Cs    ONCVPSP  r_core=  2.22  1.86  2.02  1.86
55.0000      9.0000      140908    zatom,zion,pspd
8    11     3     4   601     0    pspcod,pspxc,lmax,lloc,mmax,r2well
6.00000000  0.85000000  0.00000000    rchrg fchrg qchrg
2     2     2     2     0    nproj
0                 extension_switch
0                         6.5551382312055D+00  7.9451671210477D-01
1  0.0000000000000D+00 -0.0000000000000D+00  0.0000000000000D+00
2  1.0000000000000D-02 -2.1499482448530D-02  1.6723884416837D-03
3  2.0000000000000D-02 -4.3009923955271D-02  3.3030558991126D-03
4  3.0000000000000D-02 -6.4542192623569D-02  4.8505029154630D-03
5  4.0000000000000D-02 -8.6106974988617D-02  6.2736722392937D-03
6  5.0000000000000D-02 -1.0771468608624D-01  7.5321678062927D-03
7  6.0000000000000D-02 -1.2937538054228D-01  8.5864711829050D-03
8  7.0000000000000D-02 -1.5109866501741D-01  9.3981546394917D-03
9  8.0000000000000D-02 -1.7289361233917D-01  9.9300900277790D-03
10  9.0000000000000D-02 -1.9476867764563D-01  1.0146652656445D-02
11  1.0000000000000D-01 -2.1673161686182D-01  1.0013919366560D-02
12  1.1000000000000D-01 -2.3878940782041D-01  9.4998600330038D-03
13  1.2000000000000D-01 -2.6094817432981D-01  8.5745217385612D-03
14  1.3000000000000D-01 -2.8321311348032D-01  7.2102048991725D-03
15  1.4000000000000D-01 -3.0558842649384D-01  5.3816305828467D-03
16  1.5000000000000D-01 -3.2807725334280D-01  3.0660984605149D-03
17  1.6000000000000D-01 -3.5068161147619D-01  2.4363455516076D-04
18  1.7000000000000D-01 -3.7340233879532D-01 -3.1028715692577D-03
19  1.8000000000000D-01 -3.9623904123800D-01 -6.9875410596452D-03
20  1.9000000000000D-01 -4.1919004507270D-01 -1.1421391722888D-02
21  2.0000000000000D-01 -4.4225235422599D-01 -1.6412236462622D-02
22  2.1000000000000D-01 -4.6542161266485D-01 -2.1964594265982D-02
23  2.2000000000000D-01 -4.8869207221604D-01 -2.8079614665804D-02
24  2.3000000000000D-01 -5.1205656582042D-01 -3.4755015679024D-02
25  2.4000000000000D-01 -5.3550648643836D-01 -4.1985035741375D-02
26  2.5000000000000D-01 -5.5903177154966D-01 -4.9760399514665D-02
27  2.6000000000000D-01 -5.8262089381686D-01 -5.8068298897918D-02
28  2.7000000000000D-01 -6.0626085725549D-01 -6.6892387712315D-02
29  2.8000000000000D-01 -6.2993719970024D-01 -7.6212791891353D-02
30  2.9000000000000D-01 -6.5363400115388D-01 -8.6006134204432D-02
31  3.0000000000000D-01 -6.7733389818410D-01 -9.6245573888142D-02
32  3.1000000000000D-01 -7.0101810437306D-01 -1.0690086117010D-01
33  3.2000000000000D-01 -7.2466643671427D-01 -1.1793840639209D-01
34  3.3000000000000D-01 -7.4825734815852D-01 -1.2932136430878D-01
35  3.4000000000000D-01 -7.7176796576337D-01 -1.4100973194308D-01
36  3.5000000000000D-01 -7.9517413504147D-01 -1.5296046177655D-01
37  3.6000000000000D-01 -8.1845046946510D-01 -1.6512758732751D-01
38  3.7000000000000D-01 -8.4157040657638D-01 -1.7746236501105D-01
39  3.8000000000000D-01 -8.6450626809718D-01 -1.8991342540181D-01
40  3.9000000000000D-01 -8.8722932609751D-01 -2.0242693931071D-01
41  4.0000000000000D-01 -9.0970987528434D-01 -2.1494679869028D-01
42  4.1000000000000D-01 -9.3191730802217D-01 -2.2741480372311D-01
43  4.2000000000000D-01 -9.5382019544730D-01 -2.3977086466535D-01
44  4.3000000000000D-01 -9.7538637267337D-01 -2.5195321328127D-01
45  4.4000000000000D-01 -9.9658302815038D-01 -2.6389862400309D-01
46  4.5000000000000D-01 -1.0173767968988D+00 -2.7554264407446D-01
47  4.6000000000000D-01 -1.0377338573034D+00 -2.8681983184059D-01
48  4.7000000000000D-01 -1.0576200293697D+00 -2.9766399793529D-01
49  4.8000000000000D-01 -1.0770008814997D+00 -3.0800846683050D-01
50  4.9000000000000D-01 -1.0958418346956D+00 -3.1778633108057D-01
51  5.0000000000000D-01 -1.1141082694907D+00 -3.2693071146846D-01
52  5.1000000000000D-01 -1.1317656295346D+00 -3.3537500806405D-01
53  5.2000000000000D-01 -1.1487795500414D+00 -3.4305321139033D-01
54  5.3000000000000D-01 -1.1651159551959D+00 -3.4990013608366D-01
55  5.4000000000000D-01 -1.1807411676785D+00 -3.5585168358776D-01
56  5.5000000000000D-01 -1.1956220495350D+00 -3.6084517981469D-01
57  5.6000000000000D-01 -1.2097260699156D+00 -3.6481953349725D-01
58  5.7000000000000D-01 -1.2230214774009D+00 -3.6771564740582D-01
59  5.8000000000000D-01 -1.2354773431422D+00 -3.6947651490427D-01
60  5.9000000000000D-01 -1.2470637486028D+00 -3.7004766459372D-01
61  6.0000000000000D-01 -1.2577518165978D+00 -3.6937722563227D-01
62  6.1000000000000D-01 -1.2675138890468D+00 -3.6741634394319D-01
63  6.2000000000000D-01 -1.2763235878099D+00 -3.6411931627851D-01
64  6.3000000000000D-01 -1.2841559137402D+00 -3.5944381455448D-01
65  6.4000000000000D-01 -1.2909873973065D+00 -3.5335122950080D-01
66  6.5000000000000D-01 -1.2967961355231D+00 -3.4580674347200D-01
67  6.6000000000000D-01 -1.3015618896469D+00 -3.3677954572182D-01
68  6.7000000000000D-01 -1.3052662308693D+00 -3.2624315559311D-01
69  6.8000000000000D-01 -1.3078925602004D+00 -3.1417545035389D-01
70  6.9000000000000D-01 -1.3094262013792D+00 -3.0055886133863D-01
71  7.0000000000000D-01 -1.3098544693515D+00 -2.8538051084037D-01
72  7.1000000000000D-01 -1.3091667801760D+00 -2.6863243893604D-01
73  7.2000000000000D-01 -1.3073546603871D+00 -2.5031159970481D-01
74  7.3000000000000D-01 -1.3044118188539D+00 -2.3041999663057D-01
75  7.4000000000000D-01 -1.3003341955669D+00 -2.0896476239608D-01
76  7.5000000000000D-01 -1.2951200002539D+00 -1.8595821306510D-01
77  7.6000000000000D-01 -1.2887697479281D+00 -1.6141789222002D-01
78  7.7000000000000D-01 -1.2812863088067D+00 -1.3536664016037D-01
79  7.8000000000000D-01 -1.2726748983835D+00 -1.0783253289307D-01
80  7.9000000000000D-01 -1.2629431024304D+00 -7.8848891663272D-02
81  8.0000000000000D-01 -1.2521008832477D+00 -4.8454248494447D-02
82  8.1000000000000D-01 -1.2401605784217D+00 -1.6692291988134D-02
83  8.2000000000000D-01 -1.2271368920457D+00  1.6388206606285D-02
84  8.3000000000000D-01 -1.2130468783891D+00  5.0733486969139D-02
85  8.4000000000000D-01 -1.1979099180224D+00  8.6284912780487D-02
86  8.5000000000000D-01 -1.1817476864294D+00  1.2297910405663D-01
87  8.6000000000000D-01 -1.1645841151673D+00  1.6074808845478D-01
88  8.7000000000000D-01 -1.1464453456541D+00  1.9951947117420D-01
89  8.8000000000000D-01 -1.1273596756956D+00  2.3921662300606D-01
90  8.9000000000000D-01 -1.1073574988864D+00  2.7975888600386D-01
91  9.0000000000000D-01 -1.0864712370532D+00  3.2106179616150D-01
92  9.1000000000000D-01 -1.0647352659377D+00  3.6303732239374D-01
93  9.2000000000000D-01 -1.0421858343548D+00  4.0559412101509D-01
94  9.3000000000000D-01 -1.0188609770974D+00  4.4863780480545D-01
95  9.4000000000000D-01 -9.9480042450976D-01  4.9207120998717D-01
96  9.5000000000000D-01 -9.7004550531825D-01  5.3579469822948D-01
97  9.6000000000000D-01 -9.4463903047117D-01  5.7970651524722D-01
98  9.7000000000000D-01 -9.1862519266532D-01  6.2370305293314D-01
99  9.8000000000000D-01 -8.9204945006226D-01  6.6767919573682D-01
100  9.9000000000000D-01 -8.6495840791958D-01  7.1152865699202D-01
101  1.0000000000000D+00 -8.3739969668506D-01  7.5514432130198D-01
102  1.0100000000000D+00 -8.0942185376012D-01  7.9841856865049D-01
103  1.0200000000000D+00 -7.8107423480896D-01  8.4124350011518D-01
104  1.0300000000000D+00 -7.5240673752842D-01  8.8351178206560D-01
105  1.0400000000000D+00 -7.2346980037822D-01  9.2511654443515D-01
106  1.0500000000000D+00 -6.9431422998523D-01  9.6595187385136D-01
107  1.0600000000000D+00 -6.6499106747875D-01  1.0059131641564D+00
108  1.0700000000000D+00 -6.3555157228510D-01  1.0448971103408D+00
109  1.0800000000000D+00 -6.0604675809340D-01  1.0828030593747D+00
110  1.0900000000000D+00 -5.7652749756829D-01  1.1195325990580D+00
111  1.1000000000000D+00 -5.4704436507312D-01  1.1549899720572D+00
112  1.1100000000000D+00 -5.1764758754140D-01  1.1890821691729D+00
113  1.1200000000000D+00 -4.8838675374227D-01  1.2217197191640D+00
114  1.1300000000000D+00 -4.5931052390464D-01  1.2528174279100D+00
115  1.1400000000000D+00 -4.3046682539931D-01  1.2822937547433D+00
116  1.1500000000000D+00 -4.0190279258408D-01  1.3100709468892D+00
117  1.1600000000000D+00 -3.7366429411252D-01  1.3360762904858D+00
118  1.1700000000000D+00 -3.4579575454312D-01  1.3602424917393D+00
119  1.1800000000000D+00 -3.1834042894041D-01  1.3825068697854D+00
120  1.1900000000000D+00 -2.9134054718242D-01  1.4028109623300D+00
121  1.2000000000000D+00 -2.6483598001202D-01  1.4211039419670D+00
122  1.2100000000000D+00 -2.3886522440084D-01  1.4373399285205D+00
123  1.2200000000000D+00 -2.1346541868615D-01  1.4514779469311D+00
124  1.2300000000000D+00 -1.8867142831738D-01  1.4634841820253D+00
125  1.2400000000000D+00 -1.6451599116789D-01  1.4733314603968D+00
126  1.2500000000000D+00 -1.4103039636072D-01  1.4809975410505D+00
127  1.2600000000000D+00 -1.1824363064486D-01  1.4864671616736D+00
128  1.2700000000000D+00 -9.6182045999185D-02  1.4897326449686D+00
129  1.2800000000000D+00 -7.4870539445430D-02  1.4907910717219D+00
130  1.2900000000000D+00 -5.4331467115228D-02  1.4896467777744D+00
131  1.3000000000000D+00 -3.4584390851392D-02  1.4863116909453D+00
132  1.3100000000000D+00 -1.5647483327872D-02  1.4808021846133D+00
133  1.3200000000000D+00  2.4641159011748D-03  1.4731426050140D+00
134  1.3300000000000D+00  1.9737801926028D-02  1.4633639122549D+00
135  1.3400000000000D+00  3.6162274843585D-02  1.4515012241988D+00
136  1.3500000000000D+00  5.1729972124258D-02  1.4375985049760D+00
137  1.3600000000000D+00  6.6435024932413D-02  1.4217042922509D+00
138  1.3700000000000D+00  8.0273482892270D-02  1.4038723082203D+00
139  1.3800000000000D+00  9.3244938928634D-02  1.3841639214946D+00
140  1.3900000000000D+00  1.0535003139583D-01  1.3626438228029D+00
141  1.4000000000000D+00  1.1659248473491D-01  1.3393832866839D+00
142  1.4100000000000D+00  1.2697817628614D-01  1.3144581980915D+00
143  1.4200000000000D+00  1.3651440868833D-01  1.2879484017000D+00
144  1.4300000000000D+00  1.4521185863126D-01  1.2599393928126D+00
145  1.4400000000000D+00  1.5308203521745D-01  1.2305195644942D+00
146  1.4500000000000D+00  1.6013927358838D-01  1.1997818644461D+00
147  1.4600000000000D+00  1.6639945101413D-01  1.1678221298508D+00
148  1.4700000000000D+00  1.7188013100397D-01  1.1347397253039D+00
149  1.4800000000000D+00  1.7660110821279D-01  1.1006360062835D+00
150  1.4900000000000D+00  1.8058307064337D-01  1.0656158802446D+00
151  1.5000000000000D+00  1.8384903066765D-01  1.0297845378502D+00
152  1.5100000000000D+00  1.8642280512884D-01  9.9325033705286D-01
153  1.5200000000000D+00  1.8832991657286D-01  9.5612157055327D-01
154  1.5300000000000D+00  1.8959685841005D-01  9.1850777962568D-01
155  1.5400000000000D+00  1.9025138845803D-01  8.8051929046852D-01
156  1.5500000000000D+00  1.9032203152492D-01  8.4226466540656D-01
157  1.5600000000000D+00  1.8983848453203D-01  8.0385507013048D-01
158  1.5700000000000D+00  1.8883064489852D-01  7.6539602176814D-01
159  1.5800000000000D+00  1.8732981163747D-01  7.2699818893886D-01
160  1.5900000000000D+00  1.8536664320457D-01  6.8876233533430D-01
161  1.6000000000000D+00  1.8297354996570D-01  6.5079651048393D-01
162  1.6100000000000D+00  1.8018151766315D-01  6.1319599341525D-01
163  1.6200000000000D+00  1.7702336004344D-01  5.7606328487462D-01
164  1.6300000000000D+00  1.7353006326503D-01  5.3948769587998D-01
165  1.6400000000000D+00  1.6973424137767D-01  5.0356423601467D-01
166  1.6500000000000D+00  1.6566638322750D-01  4.6837465367073D-01
167  1.6600000000000D+00  1.6135839009403D-01  4.3400508264036D-01
168  1.6700000000000D+00  1.5683971877684D-01  4.0052803980092D-01
169  1.6800000000000D+00  1.5214110000827D-01  3.6801962812461D-01
170  1.6900000000000D+00  1.4729038818406D-01  3.3654141091880D-01
171  1.7000000000000D+00  1.4231674792494D-01  3.0615853791307D-01
172  1.7100000000000D+00  1.3724582886816D-01  2.7691986959969D-01
173  1.7200000000000D+00  1.3210489966447D-01  2.4887890535407D-01
174  1.7300000000000D+00  1.2691677694618D-01  2.2207005902632D-01
175  1.7400000000000D+00  1.2170656848249D-01  1.9653468697607D-01
176  1.7500000000000D+00  1.1649360837230D-01  1.7229103459428D-01
177  1.7600000000000D+00  1.1130061865117D-01  1.4936789373652D-01
178  1.7700000000000D+00  1.0614288963251D-01  1.2776618922565D-01
179  1.7800000000000D+00  1.0104029849786D-01  1.0750046489103D-01
180  1.7900000000000D+00  9.6004894775867D-02  8.8559396192391D-02
181  1.8000000000000D+00  9.1053029412839D-02  7.0942521208248D-02
182  1.8100000000000D+00  8.6194989945049D-02  5.4632276608251D-02
183  1.8200000000000D+00  8.1443814459726D-02  3.9616507433456D-02
184  1.8300000000000D+00  7.6808220152417D-02  2.5871406924684D-02
185  1.8400000000000D+00  7.2297885437142D-02  1.3373875715518D-02
186  1.8500000000000D+00  6.7920145413155D-02  2.0944226561676D-03
187  1.8600000000000D+00  6.3681364499077D-02 -8.0001038572291D-03
188  1.8700000000000D+00  5.9587640401158D-02 -1.6944479430585D-02
189  1.8800000000000D+00  5.5642224482521D-02 -2.4780456658322D-02
190  1.8900000000000D+00  5.1850023485663D-02 -3.1548032614198D-02
191  1.9000000000000D+00  4.8211712748334D-02 -3.7295381595975D-02
192  1.9100000000000D+00  4.4730445425221D-02 -4.2068542355969D-02
193  1.9200000000000D+00  4.1405506508117D-02 -4.5919310023912D-02
194  1.9300000000000D+00  3.8237498835330D-02 -4.8899836277513D-02
195  1.9400000000000D+00  3.5225258153602D-02 -5.1064249068738D-02
196  1.9500000000000D+00  3.2367009801808D-02 -5.2468670147360D-02
197  1.9600000000000D+00  2.9661079258925D-02 -5.3170187084291D-02
198  1.9700000000000D+00  2.7103990053131D-02 -5.3225818312928D-02
199  1.9800000000000D+00  2.4693273268608D-02 -5.2696349131102D-02
200  1.9900000000000D+00  2.2424675734423D-02 -5.1637951820178D-02
201  2.0000000000000D+00  2.0294416469123D-02 -5.0111863678024D-02
202  2.0100000000000D+00  1.8298217602837D-02 -4.8175547178266D-02
203  2.0200000000000D+00  1.6431471979065D-02 -4.5886448804064D-02
204  2.0300000000000D+00  1.4689539082518D-02 -4.3305111959369D-02
205  2.0400000000000D+00  1.3067802250330D-02 -4.0482675485438D-02
206  2.0500000000000D+00  1.1561148048155D-02 -3.7479864328941D-02
207  2.0600000000000D+00  1.0165198373411D-02 -3.4345130596602D-02
208  2.0700000000000D+00  8.8751626048676D-03 -3.1131096063592D-02
209  2.0800000000000D+00  7.6863277297763D-03 -2.7889742137158D-02
210  2.0900000000000D+00  6.5950687806411D-03 -2.4661411718464D-02
211  2.1000000000000D+00  5.5963500685775D-03 -2.1499351733741D-02
212  2.1100000000000D+00  4.6874216644301D-03 -1.8437109647371D-02
213  2.1200000000000D+00  3.8646155866913D-03 -1.5515601146733D-02
214  2.1300000000000D+00  3.1245634046980D-03 -1.2773594706276D-02
215  2.1400000000000D+00  2.4658486222887D-03 -1.0234921015171D-02
216  2.1500000000000D+00  1.8850150243450D-03 -7.9384277980838D-03
217  2.1600000000000D+00  1.3817083225391D-03 -5.9008745965637D-03
218  2.1700000000000D+00  9.5486314364214D-04 -4.1440117688584D-03
219  2.1800000000000D+00  6.0305501250743D-04 -2.6921838493200D-03
220  2.1900000000000D+00  3.2800800264632D-04 -1.5482564022428D-03
221  2.2000000000000D+00  1.3903378574494D-04 -7.7466253655648D-04
222  2.2100000000000D+00  2.5059638952595D-05 -3.1491276939660D-04
223  2.2200000000000D+00 -3.1504161430412D-05 -7.4289575251681D-05
224  2.2300000000000D+00 -3.8395482464035D-05  2.7460156822512D-05
225  2.2400000000000D+00 -1.8642265047995D-05  2.8472504496798D-05
226  2.2500000000000D+00  1.1265175680670D-06  2.7104906480605D-06
227  2.2600000000000D+00  2.0484512262936D-06  4.9287361771055D-06
228  2.2700000000000D+00  7.0767754131837D-07  1.7027283124196D-06
229  2.2800000000000D+00  0.0000000000000D+00  0.0000000000000D+00
230  2.2900000000000D+00  0.0000000000000D+00  0.0000000000000D+00
231  2.3000000000000D+00  0.0000000000000D+00  0.0000000000000D+00
232  2.3100000000000D+00  0.0000000000000D+00  0.0000000000000D+00
233  2.3200000000000D+00  0.0000000000000D+00  0.0000000000000D+00
234  2.3300000000000D+00  0.0000000000000D+00  0.0000000000000D+00
235  2.3400000000000D+00  0.0000000000000D+00  0.0000000000000D+00
236  2.3500000000000D+00  0.0000000000000D+00  0.0000000000000D+00
237  2.3600000000000D+00  0.0000000000000D+00  0.0000000000000D+00
238  2.3700000000000D+00  0.0000000000000D+00  0.0000000000000D+00
239  2.3800000000000D+00  0.0000000000000D+00  0.0000000000000D+00
240  2.3900000000000D+00  0.0000000000000D+00  0.0000000000000D+00
241  2.4000000000000D+00  0.0000000000000D+00  0.0000000000000D+00
242  2.4100000000000D+00  0.0000000000000D+00  0.0000000000000D+00
243  2.4200000000000D+00  0.0000000000000D+00  0.0000000000000D+00
244  2.4300000000000D+00  0.0000000000000D+00  0.0000000000000D+00
245  2.4400000000000D+00  0.0000000000000D+00  0.0000000000000D+00
246  2.4500000000000D+00  0.0000000000000D+00  0.0000000000000D+00
247  2.4600000000000D+00  0.0000000000000D+00  0.0000000000000D+00
248  2.4700000000000D+00  0.0000000000000D+00  0.0000000000000D+00
249  2.4800000000000D+00  0.0000000000000D+00  0.0000000000000D+00
250  2.4900000000000D+00  0.0000000000000D+00  0.0000000000000D+00
251  2.5000000000000D+00  0.0000000000000D+00  0.0000000000000D+00
252  2.5100000000000D+00  0.0000000000000D+00  0.0000000000000D+00
253  2.5200000000000D+00  0.0000000000000D+00  0.0000000000000D+00
254  2.5300000000000D+00  0.0000000000000D+00  0.0000000000000D+00
255  2.5400000000000D+00  0.0000000000000D+00  0.0000000000000D+00
256  2.5500000000000D+00  0.0000000000000D+00  0.0000000000000D+00
257  2.5600000000000D+00  0.0000000000000D+00  0.0000000000000D+00
258  2.5700000000000D+00  0.0000000000000D+00  0.0000000000000D+00
259  2.5800000000000D+00  0.0000000000000D+00  0.0000000000000D+00
260  2.5900000000000D+00  0.0000000000000D+00  0.0000000000000D+00
261  2.6000000000000D+00  0.0000000000000D+00  0.0000000000000D+00
262  2.6100000000000D+00  0.0000000000000D+00  0.0000000000000D+00
263  2.6200000000000D+00  0.0000000000000D+00  0.0000000000000D+00
264  2.6300000000000D+00  0.0000000000000D+00  0.0000000000000D+00
265  2.6400000000000D+00  0.0000000000000D+00  0.0000000000000D+00
266  2.6500000000000D+00  0.0000000000000D+00  0.0000000000000D+00
267  2.6600000000000D+00  0.0000000000000D+00  0.0000000000000D+00
268  2.6700000000000D+00  0.0000000000000D+00  0.0000000000000D+00
269  2.6800000000000D+00  0.0000000000000D+00  0.0000000000000D+00
270  2.6900000000000D+00  0.0000000000000D+00  0.0000000000000D+00
271  2.7000000000000D+00  0.0000000000000D+00  0.0000000000000D+00
272  2.7100000000000D+00  0.0000000000000D+00  0.0000000000000D+00
273  2.7200000000000D+00  0.0000000000000D+00  0.0000000000000D+00
274  2.7300000000000D+00  0.0000000000000D+00  0.0000000000000D+00
275  2.7400000000000D+00  0.0000000000000D+00  0.0000000000000D+00
276  2.7500000000000D+00  0.0000000000000D+00  0.0000000000000D+00
277  2.7600000000000D+00  0.0000000000000D+00  0.0000000000000D+00
278  2.7700000000000D+00  0.0000000000000D+00  0.0000000000000D+00
279  2.7800000000000D+00  0.0000000000000D+00  0.0000000000000D+00
280  2.7900000000000D+00  0.0000000000000D+00  0.0000000000000D+00
281  2.8000000000000D+00  0.0000000000000D+00  0.0000000000000D+00
282  2.8100000000000D+00  0.0000000000000D+00  0.0000000000000D+00
283  2.8200000000000D+00  0.0000000000000D+00  0.0000000000000D+00
284  2.8300000000000D+00  0.0000000000000D+00  0.0000000000000D+00
285  2.8400000000000D+00  0.0000000000000D+00  0.0000000000000D+00
286  2.8500000000000D+00  0.0000000000000D+00  0.0000000000000D+00
287  2.8600000000000D+00  0.0000000000000D+00  0.0000000000000D+00
288  2.8700000000000D+00  0.0000000000000D+00  0.0000000000000D+00
289  2.8800000000000D+00  0.0000000000000D+00  0.0000000000000D+00
290  2.8900000000000D+00  0.0000000000000D+00  0.0000000000000D+00
291  2.9000000000000D+00  0.0000000000000D+00  0.0000000000000D+00
292  2.9100000000000D+00  0.0000000000000D+00  0.0000000000000D+00
293  2.9200000000000D+00  0.0000000000000D+00  0.0000000000000D+00
294  2.9300000000000D+00  0.0000000000000D+00  0.0000000000000D+00
295  2.9400000000000D+00  0.0000000000000D+00  0.0000000000000D+00
296  2.9500000000000D+00  0.0000000000000D+00  0.0000000000000D+00
297  2.9600000000000D+00  0.0000000000000D+00  0.0000000000000D+00
298  2.9700000000000D+00  0.0000000000000D+00  0.0000000000000D+00
299  2.9800000000000D+00  0.0000000000000D+00  0.0000000000000D+00
300  2.9900000000000D+00  0.0000000000000D+00  0.0000000000000D+00
301  3.0000000000000D+00  0.0000000000000D+00  0.0000000000000D+00
302  3.0100000000000D+00  0.0000000000000D+00  0.0000000000000D+00
303  3.0200000000000D+00  0.0000000000000D+00  0.0000000000000D+00
304  3.0300000000000D+00  0.0000000000000D+00  0.0000000000000D+00
305  3.0400000000000D+00  0.0000000000000D+00  0.0000000000000D+00
306  3.0500000000000D+00  0.0000000000000D+00  0.0000000000000D+00
307  3.0600000000000D+00  0.0000000000000D+00  0.0000000000000D+00
308  3.0700000000000D+00  0.0000000000000D+00  0.0000000000000D+00
309  3.0800000000000D+00  0.0000000000000D+00  0.0000000000000D+00
310  3.0900000000000D+00  0.0000000000000D+00  0.0000000000000D+00
311  3.1000000000000D+00  0.0000000000000D+00  0.0000000000000D+00
312  3.1100000000000D+00  0.0000000000000D+00  0.0000000000000D+00
313  3.1200000000000D+00  0.0000000000000D+00  0.0000000000000D+00
314  3.1300000000000D+00  0.0000000000000D+00  0.0000000000000D+00
315  3.1400000000000D+00  0.0000000000000D+00  0.0000000000000D+00
316  3.1500000000000D+00  0.0000000000000D+00  0.0000000000000D+00
317  3.1600000000000D+00  0.0000000000000D+00  0.0000000000000D+00
318  3.1700000000000D+00  0.0000000000000D+00  0.0000000000000D+00
319  3.1800000000000D+00  0.0000000000000D+00  0.0000000000000D+00
320  3.1900000000000D+00  0.0000000000000D+00  0.0000000000000D+00
321  3.2000000000000D+00  0.0000000000000D+00  0.0000000000000D+00
322  3.2100000000000D+00  0.0000000000000D+00  0.0000000000000D+00
323  3.2200000000000D+00  0.0000000000000D+00  0.0000000000000D+00
324  3.2300000000000D+00  0.0000000000000D+00  0.0000000000000D+00
325  3.2400000000000D+00  0.0000000000000D+00  0.0000000000000D+00
326  3.2500000000000D+00  0.0000000000000D+00  0.0000000000000D+00
327  3.2600000000000D+00  0.0000000000000D+00  0.0000000000000D+00
328  3.2700000000000D+00  0.0000000000000D+00  0.0000000000000D+00
329  3.2800000000000D+00  0.0000000000000D+00  0.0000000000000D+00
330  3.2900000000000D+00  0.0000000000000D+00  0.0000000000000D+00
331  3.3000000000000D+00  0.0000000000000D+00  0.0000000000000D+00
332  3.3100000000000D+00  0.0000000000000D+00  0.0000000000000D+00
333  3.3200000000000D+00  0.0000000000000D+00  0.0000000000000D+00
334  3.3300000000000D+00  0.0000000000000D+00  0.0000000000000D+00
335  3.3400000000000D+00  0.0000000000000D+00  0.0000000000000D+00
336  3.3500000000000D+00  0.0000000000000D+00  0.0000000000000D+00
337  3.3600000000000D+00  0.0000000000000D+00  0.0000000000000D+00
338  3.3700000000000D+00  0.0000000000000D+00  0.0000000000000D+00
339  3.3800000000000D+00  0.0000000000000D+00  0.0000000000000D+00
340  3.3900000000000D+00  0.0000000000000D+00  0.0000000000000D+00
341  3.4000000000000D+00  0.0000000000000D+00  0.0000000000000D+00
342  3.4100000000000D+00  0.0000000000000D+00  0.0000000000000D+00
343  3.4200000000000D+00  0.0000000000000D+00  0.0000000000000D+00
344  3.4300000000000D+00  0.0000000000000D+00  0.0000000000000D+00
345  3.4400000000000D+00  0.0000000000000D+00  0.0000000000000D+00
346  3.4500000000000D+00  0.0000000000000D+00  0.0000000000000D+00
347  3.4600000000000D+00  0.0000000000000D+00  0.0000000000000D+00
348  3.4700000000000D+00  0.0000000000000D+00  0.0000000000000D+00
349  3.4800000000000D+00  0.0000000000000D+00  0.0000000000000D+00
350  3.4900000000000D+00  0.0000000000000D+00  0.0000000000000D+00
351  3.5000000000000D+00  0.0000000000000D+00  0.0000000000000D+00
352  3.5100000000000D+00  0.0000000000000D+00  0.0000000000000D+00
353  3.5200000000000D+00  0.0000000000000D+00  0.0000000000000D+00
354  3.5300000000000D+00  0.0000000000000D+00  0.0000000000000D+00
355  3.5400000000000D+00  0.0000000000000D+00  0.0000000000000D+00
356  3.5500000000000D+00  0.0000000000000D+00  0.0000000000000D+00
357  3.5600000000000D+00  0.0000000000000D+00  0.0000000000000D+00
358  3.5700000000000D+00  0.0000000000000D+00  0.0000000000000D+00
359  3.5800000000000D+00  0.0000000000000D+00  0.0000000000000D+00
360  3.5900000000000D+00  0.0000000000000D+00  0.0000000000000D+00
361  3.6000000000000D+00  0.0000000000000D+00  0.0000000000000D+00
362  3.6100000000000D+00  0.0000000000000D+00  0.0000000000000D+00
363  3.6200000000000D+00  0.0000000000000D+00  0.0000000000000D+00
364  3.6300000000000D+00  0.0000000000000D+00  0.0000000000000D+00
365  3.6400000000000D+00  0.0000000000000D+00  0.0000000000000D+00
366  3.6500000000000D+00  0.0000000000000D+00  0.0000000000000D+00
367  3.6600000000000D+00  0.0000000000000D+00  0.0000000000000D+00
368  3.6700000000000D+00  0.0000000000000D+00  0.0000000000000D+00
369  3.6800000000000D+00  0.0000000000000D+00  0.0000000000000D+00
370  3.6900000000000D+00  0.0000000000000D+00  0.0000000000000D+00
371  3.7000000000000D+00  0.0000000000000D+00  0.0000000000000D+00
372  3.7100000000000D+00  0.0000000000000D+00  0.0000000000000D+00
373  3.7200000000000D+00  0.0000000000000D+00  0.0000000000000D+00
374  3.7300000000000D+00  0.0000000000000D+00  0.0000000000000D+00
375  3.7400000000000D+00  0.0000000000000D+00  0.0000000000000D+00
376  3.7500000000000D+00  0.0000000000000D+00  0.0000000000000D+00
377  3.7600000000000D+00  0.0000000000000D+00  0.0000000000000D+00
378  3.7700000000000D+00  0.0000000000000D+00  0.0000000000000D+00
379  3.7800000000000D+00  0.0000000000000D+00  0.0000000000000D+00
380  3.7900000000000D+00  0.0000000000000D+00  0.0000000000000D+00
381  3.8000000000000D+00  0.0000000000000D+00  0.0000000000000D+00
382  3.8100000000000D+00  0.0000000000000D+00  0.0000000000000D+00
383  3.8200000000000D+00  0.0000000000000D+00  0.0000000000000D+00
384  3.8300000000000D+00  0.0000000000000D+00  0.0000000000000D+00
385  3.8400000000000D+00  0.0000000000000D+00  0.0000000000000D+00
386  3.8500000000000D+00  0.0000000000000D+00  0.0000000000000D+00
387  3.8600000000000D+00  0.0000000000000D+00  0.0000000000000D+00
388  3.8700000000000D+00  0.0000000000000D+00  0.0000000000000D+00
389  3.8800000000000D+00  0.0000000000000D+00  0.0000000000000D+00
390  3.8900000000000D+00  0.0000000000000D+00  0.0000000000000D+00
391  3.9000000000000D+00  0.0000000000000D+00  0.0000000000000D+00
392  3.9100000000000D+00  0.0000000000000D+00  0.0000000000000D+00
393  3.9200000000000D+00  0.0000000000000D+00  0.0000000000000D+00
394  3.9300000000000D+00  0.0000000000000D+00  0.0000000000000D+00
395  3.9400000000000D+00  0.0000000000000D+00  0.0000000000000D+00
396  3.9500000000000D+00  0.0000000000000D+00  0.0000000000000D+00
397  3.9600000000000D+00  0.0000000000000D+00  0.0000000000000D+00
398  3.9700000000000D+00  0.0000000000000D+00  0.0000000000000D+00
399  3.9800000000000D+00  0.0000000000000D+00  0.0000000000000D+00
400  3.9900000000000D+00  0.0000000000000D+00  0.0000000000000D+00
401  4.0000000000000D+00  0.0000000000000D+00  0.0000000000000D+00
402  4.0100000000000D+00  0.0000000000000D+00  0.0000000000000D+00
403  4.0200000000000D+00  0.0000000000000D+00  0.0000000000000D+00
404  4.0300000000000D+00  0.0000000000000D+00  0.0000000000000D+00
405  4.0400000000000D+00  0.0000000000000D+00  0.0000000000000D+00
406  4.0500000000000D+00  0.0000000000000D+00  0.0000000000000D+00
407  4.0600000000000D+00  0.0000000000000D+00  0.0000000000000D+00
408  4.0700000000000D+00  0.0000000000000D+00  0.0000000000000D+00
409  4.0800000000000D+00  0.0000000000000D+00  0.0000000000000D+00
410  4.0900000000000D+00  0.0000000000000D+00  0.0000000000000D+00
411  4.1000000000000D+00  0.0000000000000D+00  0.0000000000000D+00
412  4.1100000000000D+00  0.0000000000000D+00  0.0000000000000D+00
413  4.1200000000000D+00  0.0000000000000D+00  0.0000000000000D+00
414  4.1300000000000D+00  0.0000000000000D+00  0.0000000000000D+00
415  4.1400000000000D+00  0.0000000000000D+00  0.0000000000000D+00
416  4.1500000000000D+00  0.0000000000000D+00  0.0000000000000D+00
417  4.1600000000000D+00  0.0000000000000D+00  0.0000000000000D+00
418  4.1700000000000D+00  0.0000000000000D+00  0.0000000000000D+00
419  4.1800000000000D+00  0.0000000000000D+00  0.0000000000000D+00
420  4.1900000000000D+00  0.0000000000000D+00  0.0000000000000D+00
421  4.2000000000000D+00  0.0000000000000D+00  0.0000000000000D+00
422  4.2100000000000D+00  0.0000000000000D+00  0.0000000000000D+00
423  4.2200000000000D+00  0.0000000000000D+00  0.0000000000000D+00
424  4.2300000000000D+00  0.0000000000000D+00  0.0000000000000D+00
425  4.2400000000000D+00  0.0000000000000D+00  0.0000000000000D+00
426  4.2500000000000D+00  0.0000000000000D+00  0.0000000000000D+00
427  4.2600000000000D+00  0.0000000000000D+00  0.0000000000000D+00
428  4.2700000000000D+00  0.0000000000000D+00  0.0000000000000D+00
429  4.2800000000000D+00  0.0000000000000D+00  0.0000000000000D+00
430  4.2900000000000D+00  0.0000000000000D+00  0.0000000000000D+00
431  4.3000000000000D+00  0.0000000000000D+00  0.0000000000000D+00
432  4.3100000000000D+00  0.0000000000000D+00  0.0000000000000D+00
433  4.3200000000000D+00  0.0000000000000D+00  0.0000000000000D+00
434  4.3300000000000D+00  0.0000000000000D+00  0.0000000000000D+00
435  4.3400000000000D+00  0.0000000000000D+00  0.0000000000000D+00
436  4.3500000000000D+00  0.0000000000000D+00  0.0000000000000D+00
437  4.3600000000000D+00  0.0000000000000D+00  0.0000000000000D+00
438  4.3700000000000D+00  0.0000000000000D+00  0.0000000000000D+00
439  4.3800000000000D+00  0.0000000000000D+00  0.0000000000000D+00
440  4.3900000000000D+00  0.0000000000000D+00  0.0000000000000D+00
441  4.4000000000000D+00  0.0000000000000D+00  0.0000000000000D+00
442  4.4100000000000D+00  0.0000000000000D+00  0.0000000000000D+00
443  4.4200000000000D+00  0.0000000000000D+00  0.0000000000000D+00