V     ONCVPSP-3.3.0  r_core=   1.31479   1.31479   1.66904
23.0000     13.0000      180112    zatom,zion,pspd
8 -116133   2     4   600     0    pspcod,pspxc,lmax,lloc,mmax,r2well
5.99000000  5.00000000  0.00000000    rchrg fchrg qchrg
2     2     2     0     0    nproj
1     1           extension_switch
0                         1.1839471324190D+01  1.3928889846016D+00
1  0.0000000000000D+00 -1.6671626301701D-09  5.5260560016812D-09
2  1.0000000000000D-02  9.1359928129308D-02 -4.4585284605039D-02
3  2.0000000000000D-02  1.8241700410641D-01 -8.8723265822190D-02
4  3.0000000000000D-02  2.7287038490335D-01 -1.3197188430154D-01
5  4.0000000000000D-02  3.6242321981603D-01 -1.7389948569384D-01
6  5.0000000000000D-02  4.5078458224983D-01 -2.1408981690612D-01
7  6.0000000000000D-02  5.3767132546589D-01 -2.5214677888039D-01
8  7.0000000000000D-02  6.2280983893850D-01 -2.8769886135638D-01
9  8.0000000000000D-02  7.0593768364197D-01 -3.2040319060537D-01
10  9.0000000000000D-02  7.8680508661359D-01 -3.4994912784792D-01
11  1.0000000000000D-01  8.6517627749522D-01 -3.7606136387644D-01
12  1.1000000000000D-01  9.4083065239595D-01 -3.9850246415839D-01
13  1.2000000000000D-01  1.0135637532987D+00 -4.1707482824520D-01
14  1.3000000000000D-01  1.0831880543019D+00 -4.3162203748866D-01
15  1.4000000000000D-01  1.1495335491908D+00 -4.4202957569341D-01
16  1.5000000000000D-01  1.2124481381170D+00 -4.4822491822411D-01
17  1.6000000000000D-01  1.2717978144674D+00 -4.5017699604934D-01
18  1.7000000000000D-01  1.3274666562707D+00 -4.4789505204648D-01
19  1.8000000000000D-01  1.3793566296648D+00 -4.4142691742308D-01
20  1.9000000000000D-01  1.4273872149665D+00 -4.3085674614250D-01
21  2.0000000000000D-01  1.4714948687045D+00 -4.1630225459748D-01
22  2.1000000000000D-01  1.5116323375398D+00 -3.9791152228670D-01
23  2.2000000000000D-01  1.5477678422576D+00 -3.7585941676317D-01
24  2.3000000000000D-01  1.5798841519378D+00 -3.5034371250392D-01
25  2.4000000000000D-01  1.6079775699537D+00 -3.2158097847851D-01
26  2.5000000000000D-01  1.6320568545884D+00 -2.8980231297759D-01
27  2.6000000000000D-01  1.6521420977747D+00 -2.5524900662463D-01
28  2.7000000000000D-01  1.6682635857339D+00 -2.1816821539130D-01
29  2.8000000000000D-01  1.6804606651204D+00 -1.7880872484307D-01
30  2.9000000000000D-01  1.6887806376636D+00 -1.3741688476415D-01
31  3.0000000000000D-01  1.6932777052445D+00 -9.4232789776680D-02
32  3.1000000000000D-01  1.6940119858847D+00 -4.9486776638148D-02
33  3.2000000000000D-01  1.6910486192628D+00 -3.3963026503735D-03
34  3.3000000000000D-01  1.6844569781627D+00  4.3836737847295D-02
35  3.4000000000000D-01  1.6743099997184D+00  9.2028210473984D-02
36  3.5000000000000D-01  1.6606836475182D+00  1.4101341234805D-01
37  3.6000000000000D-01  1.6436565125939D+00  1.9064818948101D-01
38  3.7000000000000D-01  1.6233095581251D+00  2.4080948217475D-01
39  3.8000000000000D-01  1.5997260093796D+00  2.9139529181163D-01
40  3.9000000000000D-01  1.5729913870526D+00  3.4232407385978D-01
41  4.0000000000000D-01  1.5431936788293D+00  3.9353357333804D-01
42  4.1000000000000D-01  1.5104236407291D+00  4.4497913018367D-01
43  4.2000000000000D-01  1.4747752166671D+00  4.9663149273847D-01
44  4.3000000000000D-01  1.4363460617472D+00  5.4847418771070D-01
45  4.4000000000000D-01  1.3952381521357D+00  6.0050050429060D-01
46  4.5000000000000D-01  1.3515584620120D+00  6.5271015841700D-01
47  4.6000000000000D-01  1.3054196861035D+00  7.0510571034741D-01
48  4.7000000000000D-01  1.2569409847199D+00  7.5768881453136D-01
49  4.8000000000000D-01  1.2062487270539D+00  8.1045638520145D-01
50  4.9000000000000D-01  1.1534772078312D+00  8.6339676398559D-01
51  5.0000000000000D-01  1.0987693121963D+00  9.1648597712933D-01
52  5.1000000000000D-01  1.0422771040229D+00  9.6968416956176D-01
53  5.2000000000000D-01  9.8416231363856D-01  1.0229323010207D+00
54  5.3000000000000D-01  9.2459670225248D-01  1.0761491857993D+00
55  5.4000000000000D-01  8.6376228214824D-01  1.1292289524129D+00
56  5.5000000000000D-01  8.0185137393465D-01  1.1820389927078D+00
57  5.6000000000000D-01  7.3906648479415D-01  1.2344184617376D+00
58  5.7000000000000D-01  6.7561999470244D-01  1.2861773802197D+00
59  5.8000000000000D-01  6.1173364094262D-01  1.3370963807890D+00
60  5.9000000000000D-01  5.4763779488200D-01  1.3869271276315D+00
61  6.0000000000000D-01  4.8357052880980D-01  1.4353934267815D+00
62  6.1000000000000D-01  4.1977647464031D-01  1.4821930314132D+00
63  6.2000000000000D-01  3.5650548033942D-01  1.5270001332808D+00
64  6.3000000000000D-01  2.9401107400631D-01  1.5694685181309D+00
65  6.4000000000000D-01  2.3254874954555D-01  1.6092353497390D+00
66  6.5000000000000D-01  1.7237409169868D-01  1.6459255345174D+00
67  6.6000000000000D-01  1.1374076185646D-01  1.6791566064482D+00
68  6.7000000000000D-01  5.6898369407241D-02  1.7085440608611D+00
69  6.8000000000000D-01  2.0902563617066D-03  1.7337070554024D+00
70  6.9000000000000D-01 -5.0448774421947D-02  1.7542743875983D+00
71  7.0000000000000D-01 -1.0049475499174D-01  1.7698906509906D+00
72  7.1000000000000D-01 -1.4783683802681D-01  1.7802224659910D+00
73  7.2000000000000D-01 -1.9227953749591D-01  1.7849646775254D+00
74  7.3000000000000D-01 -2.3364488876506D-01  1.7838464093012D+00
75  7.4000000000000D-01 -2.7177449283166D-01  1.7766368642376D+00
76  7.5000000000000D-01 -3.0653141013502D-01  1.7631507622433D+00
77  7.6000000000000D-01 -3.3780187077802D-01  1.7432533101414D+00
78  7.7000000000000D-01 -3.6549676998204D-01  1.7168646040870D+00
79  7.8000000000000D-01 -3.8955292015409D-01  1.6839633722118D+00
80  7.9000000000000D-01 -4.0993403404781D-01  1.6445899743894D+00
81  8.0000000000000D-01 -4.2663141710707D-01  1.5988485868164D+00
82  8.1000000000000D-01 -4.3966435111927D-01  1.5469085113248D+00
83  8.2000000000000D-01 -4.4908015573666D-01  1.4890045628603D+00
84  8.3000000000000D-01 -4.5495391916316D-01  1.4254365031146D+00
85  8.4000000000000D-01 -4.5738789428098D-01  1.3565675036624D+00
86  8.5000000000000D-01 -4.5651056162153D-01  1.2828216378662D+00
87  8.6000000000000D-01 -4.5247536578469D-01  1.2046804170050D+00
88  8.7000000000000D-01 -4.4545913709018D-01  1.1226784022707D+00
89  8.8000000000000D-01 -4.3566021531637D-01  1.0373979401856D+00
90  8.9000000000000D-01 -4.2329629725625D-01  9.4946308433477D-01
91  9.0000000000000D-01 -4.0860203441193D-01  8.5953278080543D-01
92  9.1000000000000D-01 -3.9182641137460D-01  7.6829340812117D-01
93  9.2000000000000D-01 -3.7322993922004D-01  6.7645077449862D-01
94  9.3000000000000D-01 -3.5308170151908D-01  5.8472168571240D-01
95  9.4000000000000D-01 -3.3165629325868D-01  4.9382520553791D-01
96  9.5000000000000D-01 -3.0923069502678D-01  4.0447373744054D-01
97  9.6000000000000D-01 -2.8608112620963D-01  3.1736406080655D-01
98  9.7000000000000D-01 -2.6247992164514D-01  2.3316845745623D-01
99  9.8000000000000D-01 -2.3869247612623D-01  1.5252606427910D-01
100  9.9000000000000D-01 -2.1497430038537D-01  7.6034585693815D-02
101  1.0000000000000D+00 -1.9156823069233D-01  4.2424951772238D-03
102  1.0100000000000D+00 -1.6870183200464D-01 -6.2358151539193D-02
103  1.0200000000000D+00 -1.4658503163854D-01 -1.2333817811232D-01
104  1.0300000000000D+00 -1.2540801705272D-01 -1.7833692097482D-01
105  1.0400000000000D+00 -1.0533942711338D-01 -2.2706694443934D-01
106  1.0500000000000D+00 -8.6524861561312D-02 -2.6931776192133D-01
107  1.0600000000000D+00 -6.9085728395471D-02 -3.0495850325535D-01
108  1.0700000000000D+00 -5.3118443342344D-02 -3.3393948536391D-01
109  1.0800000000000D+00 -3.8693989824227D-02 -3.5629266150776D-01
110  1.0900000000000D+00 -2.5857842316615D-02 -3.7213094160316D-01
111  1.1000000000000D+00 -1.4630249288195D-02 -3.8164639704370D-01
112  1.1100000000000D+00 -5.0068665482850D-03 -3.8510738027436D-01
113  1.1200000000000D+00  3.0402746515082D-03 -3.8285460966002D-01
114  1.1300000000000D+00  9.5614850763108D-03 -3.7529628480092D-01
115  1.1400000000000D+00  1.4627847352450D-02 -3.6290231785806D-01
116  1.1500000000000D+00  1.8329389265883D-02 -3.4619777976000D-01
117  1.1600000000000D+00  2.0773036458529D-02 -3.2575567544477D-01
118  1.1700000000000D+00  2.2080385048855D-02 -3.0218917761957D-01
119  1.1800000000000D+00  2.2385327480189D-02 -2.7614341856897D-01
120  1.1900000000000D+00  2.1831620940692D-02 -2.4828714734941D-01
121  1.2000000000000D+00  2.0570228104654D-02 -2.1930359553466D-01
122  1.2100000000000D+00  1.8757305247671D-02 -1.8988378101673D-01
123  1.2200000000000D+00  1.6550617892305D-02 -1.6071392084242D-01
124  1.2300000000000D+00  1.4104381521188D-02 -1.3245697229231D-01
125  1.2400000000000D+00  1.1563879492915D-02 -1.0573383335626D-01
126  1.2500000000000D+00  9.0618756647122D-03 -8.1111361186090D-02
127  1.2600000000000D+00  6.7165328342538D-03 -5.9096062813777D-02
128  1.2700000000000D+00  4.6293821112199D-03 -4.0129345333278D-02
129  1.2800000000000D+00  2.8826174066523D-03 -2.4575174317855D-02
130  1.2900000000000D+00  1.5268459105570D-03 -1.2636202009251D-02
131  1.3000000000000D+00  6.3614420193219D-04 -4.7626060331829D-03
132  1.3100000000000D+00  2.2434637906279D-04 -1.0389535680640D-03
133  1.3200000000000D+00  6.6677580962288D-05  2.2222177519705D-05
134  1.3300000000000D+00  1.8754016694378D-06  8.9655786356187D-06
135  1.3400000000000D+00 -4.8034672970756D-06 -4.0287297540127D-05
136  1.3500000000000D+00  1.2216726092939D-06  4.1492797532337D-06
137  1.3600000000000D+00  7.2058684830495D-07  3.1330041952795D-06
138  1.3700000000000D+00 -3.8141015090090D-07  8.9572938459875D-07
139  1.3800000000000D+00  0.0000000000000D+00  0.0000000000000D+00
140  1.3900000000000D+00  0.0000000000000D+00  0.0000000000000D+00
141  1.4000000000000D+00  0.0000000000000D+00  0.0000000000000D+00
142  1.4100000000000D+00  0.0000000000000D+00  0.0000000000000D+00
143  1.4200000000000D+00  0.0000000000000D+00  0.0000000000000D+00
144  1.4300000000000D+00  0.0000000000000D+00  0.0000000000000D+00
145  1.4400000000000D+00  0.0000000000000D+00  0.0000000000000D+00
146  1.4500000000000D+00  0.0000000000000D+00  0.0000000000000D+00
147  1.4600000000000D+00  0.0000000000000D+00  0.0000000000000D+00
148  1.4700000000000D+00  0.0000000000000D+00  0.0000000000000D+00
149  1.4800000000000D+00  0.0000000000000D+00  0.0000000000000D+00
150  1.4900000000000D+00  0.0000000000000D+00  0.0000000000000D+00
151  1.5000000000000D+00  0.0000000000000D+00  0.0000000000000D+00
152  1.5100000000000D+00  0.0000000000000D+00  0.0000000000000D+00
153  1.5200000000000D+00  0.0000000000000D+00  0.0000000000000D+00
154  1.5300000000000D+00  0.0000000000000D+00  0.0000000000000D+00
155  1.5400000000000D+00  0.0000000000000D+00  0.0000000000000D+00
156  1.5500000000000D+00  0.0000000000000D+00  0.0000000000000D+00
157  1.5600000000000D+00  0.0000000000000D+00  0.0000000000000D+00
158  1.5700000000000D+00  0.0000000000000D+00  0.0000000000000D+00
159  1.5800000000000D+00  0.0000000000000D+00  0.0000000000000D+00
160  1.5900000000000D+00  0.0000000000000D+00  0.0000000000000D+00
161  1.6000000000000D+00  0.0000000000000D+00  0.0000000000000D+00
162  1.6100000000000D+00  0.0000000000000D+00  0.0000000000000D+00
163  1.6200000000000D+00  0.0000000000000D+00  0.0000000000000D+00
164  1.6300000000000D+00  0.0000000000000D+00  0.0000000000000D+00
165  1.6400000000000D+00  0.0000000000000D+00  0.0000000000000D+00
166  1.6500000000000D+00  0.0000000000000D+00  0.0000000000000D+00
167  1.6600000000000D+00  0.0000000000000D+00  0.0000000000000D+00
168  1.6700000000000D+00  0.0000000000000D+00  0.0000000000000D+00
169  1.6800000000000D+00  0.0000000000000D+00  0.0000000000000D+00
170  1.6900000000000D+00  0.0000000000000D+00  0.0000000000000D+00
171  1.7000000000000D+00  0.0000000000000D+00  0.0000000000000D+00
172  1.7100000000000D+00  0.0000000000000D+00  0.0000000000000D+00
173  1.7200000000000D+00  0.0000000000000D+00  0.0000000000000D+00
174  1.7300000000000D+00  0.0000000000000D+00  0.0000000000000D+00
175  1.7400000000000D+00  0.0000000000000D+00  0.0000000000000D+00
176  1.7500000000000D+00  0.0000000000000D+00  0.0000000000000D+00
177  1.7600000000000D+00  0.0000000000000D+00  0.0000000000000D+00
178  1.7700000000000D+00  0.0000000000000D+00  0.0000000000000D+00
179  1.7800000000000D+00  0.0000000000000D+00  0.0000000000000D+00
180  1.7900000000000D+00  0.0000000000000D+00  0.0000000000000D+00
181  1.8000000000000D+00  0.0000000000000D+00  0.0000000000000D+00
182  1.8100000000000D+00  0.0000000000000D+00  0.0000000000000D+00
183  1.8200000000000D+00  0.0000000000000D+00  0.0000000000000D+00
184  1.8300000000000D+00  0.0000000000000D+00  0.0000000000000D+00
185  1.8400000000000D+00  0.0000000000000D+00  0.0000000000000D+00
186  1.8500000000000D+00  0.0000000000000D+00  0.0000000000000D+00
187  1.8600000000000D+00  0.0000000000000D+00  0.0000000000000D+00
188  1.8700000000000D+00  0.0000000000000D+00  0.0000000000000D+00
189  1.8800000000000D+00  0.0000000000000D+00  0.0000000000000D+00
190  1.8900000000000D+00  0.0000000000000D+00  0.0000000000000D+00
191  1.9000000000000D+00  0.0000000000000D+00  0.0000000000000D+00
192  1.9100000000000D+00  0.0000000000000D+00  0.0000000000000D+00
193  1.9200000000000D+00  0.0000000000000D+00  0.0000000000000D+00
194  1.9300000000000D+00  0.0000000000000D+00  0.0000000000000D+00
195  1.9400000000000D+00  0.0000000000000D+00  0.0000000000000D+00
196  1.9500000000000D+00  0.0000000000000D+00  0.0000000000000D+00
197  1.9600000000000D+00  0.0000000000000D+00  0.0000000000000D+00
198  1.9700000000000D+00  0.0000000000000D+00  0.0000000000000D+00
199  1.9800000000000D+00  0.0000000000000D+00  0.0000000000000D+00
200  1.9900000000000D+00  0.0000000000000D+00  0.0000000000000D+00
201  2.0000000000000D+00  0.0000000000000D+00  0.0000000000000D+00
202  2.0100000000000D+00  0.0000000000000D+00  0.0000000000000D+00
203  2.0200000000000D+00  0.0000000000000D+00  0.0000000000000D+00
204  2.0300000000000D+00  0.0000000000000D+00  0.0000000000000D+00
205  2.0400000000000D+00  0.0000000000000D+00  0.0000000000000D+00
206  2.0500000000000D+00  0.0000000000000D+00  0.0000000000000D+00
207  2.0600000000000D+00  0.0000000000000D+00  0.0000000000000D+00
208  2.0700000000000D+00  0.0000000000000D+00  0.0000000000000D+00
209  2.0800000000000D+00  0.0000000000000D+00  0.0000000000000D+00
210  2.0900000000000D+00  0.0000000000000D+00  0.0000000000000D+00
211  2.1000000000000D+00  0.0000000000000D+00  0.0000000000000D+00
212  2.1100000000000D+00  0.0000000000000D+00  0.0000000000000D+00
213  2.1200000000000D+00  0.0000000000000D+00  0.0000000000000D+00
214  2.1300000000000D+00  0.0000000000000D+00  0.0000000000000D+00
215  2.1400000000000D+00  0.0000000000000D+00  0.0000000000000D+00
216  2.1500000000000D+00  0.0000000000000D+00  0.0000000000000D+00
217  2.1600000000000D+00  0.0000000000000D+00  0.0000000000000D+00
218  2.1700000000000D+00  0.0000000000000D+00  0.0000000000000D+00
219  2.1800000000000D+00  0.0000000000000D+00  0.0000000000000D+00
220  2.1900000000000D+00  0.0000000000000D+00  0.0000000000000D+00
221  2.2000000000000D+00  0.0000000000000D+00  0.0000000000000D+00
222  2.2100000000000D+00  0.0000000000000D+00  0.0000000000000D+00
223  2.2200000000000D+00  0.0000000000000D+00  0.0000000000000D+00
224  2.2300000000000D+00  0.0000000000000D+00  0.0000000000000D+00
225  2.2400000000000D+00  0.0000000000000D+00  0.0000000000000D+00
226  2.2500000000000D+00  0.0000000000000D+00  0.0000000000000D+00
227  2.2600000000000D+00  0.0000000000000D+00  0.0000000000000D+00
228  2.2700000000000D+00  0.0000000000000D+00  0.0000000000000D+00
229  2.2800000000000D+00  0.0000000000000D+00  0.0000000000000D+00
230  2.2900000000000D+00  0.0000000000000D+00  0.0000000000000D+00
231  2.3000000000000D+00  0.0000000000000D+00  0.0000000000000D+00
232  2.3100000000000D+00  0.0000000000000D+00  0.0000000000000D+00
233  2.3200000000000D+00  0.0000000000000D+00  0.0000000000000D+00
234  2.3300000000000D+00  0.0000000000000D+00  0.0000000000000D+00
235  2.3400000000000D+00  0.0000000000000D+00  0.0000000000000D+00
236  2.3500000000000D+00  0.0000000000000D+00  0.0000000000000D+00
237  2.3600000000000D+00  0.0000000000000D+00  0.0000000000000D+00
238  2.3700000000000D+00  0.0000000000000D+00  0.0000000000000D+00
239  2.3800000000000D+00  0.0000000000000D+00  0.0000000000000D+00
240  2.3900000000000D+00  0.0000000000000D+00  0.0000000000000D+00
241  2.4000000000000D+00  0.0000000000000D+00  0.0000000000000D+00
242  2.4100000000000D+00  0.0000000000000D+00  0.0000000000000D+00
243  2.4200000000000D+00  0.0000000000000D+00  0.0000000000000D+00
244  2.4300000000000D+00  0.0000000000000D+00  0.0000000000000D+00
245  2.4400000000000D+00  0.0000000000000D+00  0.0000000000000D+00
246  2.4500000000000D+00  0.0000000000000D+00  0.0000000000000D+00
247  2.4600000000000D+00  0.0000000000000D+00  0.0000000000000D+00
248  2.4700000000000D+00  0.0000000000000D+00  0.0000000000000D+00
249  2.4800000000000D+00  0.0000000000000D+00  0.0000000000000D+00
250  2.4900000000000D+00  0.0000000000000D+00  0.0000000000000D+00
251  2.5000000000000D+00  0.0000000000000D+00  0.0000000000000D+00
252  2.5100000000000D+00  0.0000000000000D+00  0.0000000000000D+00
253  2.5200000000000D+00  0.0000000000000D+00  0.0000000000000D+00
254  2.5300000000000D+00  0.0000000000000D+00  0.0000000000000D+00
255  2.5400000000000D+00  0.0000000000000D+00  0.0000000000000D+00
256  2.5500000000000D+00  0.0000000000000D+00  0.0000000000000D+00
257  2.5600000000000D+00  0.0000000000000D+00  0.0000000000000D+00
258  2.5700000000000D+00  0.0000000000000D+00  0.0000000000000D+00
259  2.5800000000000D+00  0.0000000000000D+00  0.0000000000000D+00
260  2.5900000000000D+00  0.0000000000000D+00  0.0000000000000D+00
261  2.6000000000000D+00  0.0000000000000D+00  0.0000000000000D+00
262  2.6100000000000D+00  0.0000000000000D+00  0.0000000000000D+00
263  2.6200000000000D+00  0.0000000000000D+00  0.0000000000000D+00
264  2.6300000000000D+00  0.0000000000000D+00  0.0000000000000D+00
265  2.6400000000000D+00  0.0000000000000D+00  0.0000000000000D+00
266  2.6500000000000D+00  0.0000000000000D+00  0.0000000000000D+00
267  2.6600000000000D+00  0.0000000000000D+00  0.0000000000000D+00
268  2.6700000000000D+00  0.0000000000000D+00  0.0000000000000D+00
269  2.6800000000000D+00  0.0000000000000D+00  0.0000000000000D+00
270  2.6900000000000D+00  0.0000000000000D+00  0.0000000000000D+00
271  2.7000000000000D+00  0.0000000000000D+00  0.0000000000000D+00
272  2.7100000000000D+00  0.0000000000000D+00  0.0000000000000D+00
273  2.7200000000000D+00  0.0000000000000D+00  0.0000000000000D+00
274  2.7300000000000D+00  0.0000000000000D+00  0.0000000000000D+00
275  2.7400000000000D+00  0.0000000000000D+00  0.0000000000000D+00
276  2.7500000000000D+00  0.0000000000000D+00  0.0000000000000D+00
277  2.7600000000000D+00  0.0000000000000D+00  0.0000000000000D+00
278  2.7700000000000D+00  0.0000000000000D+00  0.0000000000000D+00
279  2.7800000000000D+00  0.0000000000000D+00  0.0000000000000D+00
280  2.7900000000000D+00  0.0000000000000D+00  0.0000000000000D+00
281  2.8000000000000D+00  0.0000000000000D+00  0.0000000000000D+00
282  2.8100000000000D+00  0.0000000000000D+00  0.0000000000000D+00
283  2.8200000000000D+00  0.0000000000000D+00  0.0000000000000D+00
284  2.8300000000000D+00  0.0000000000000D+00  0.0000000000000D+00
285  2.8400000000000D+00  0.0000000000000D+00  0.0000000000000D+00
286  2.8500000000000D+00  0.0000000000000D+00  0.0000000000000D+00
287  2.8600000000000D+00  0.0000000000000D+00  0.0000000000000D+00
288  2.8700000000000D+00  0.0000000000000D+00  0.0000000000000D+00
289  2.8800000000000D+00  0.0000000000000D+00  0.0000000000000D+00
290  2.8900000000000D+00  0.0000000000000D+00  0.0000000000000D+00
291  2.9000000000000D+00  0.0000000000000D+00  0.0000000000000D+00
292  2.9100000000000D+00  0.0000000000000D+00  0.0000000000000D+00
293  2.9200000000000D+00  0.0000000000000D+00  0.0000000000000D+00
294  2.9300000000000D+00  0.0000000000000D+00  0.0000000000000D+00
295  2.9400000000000D+00  0.0000000000000D+00  0.0000000000000D+00
296  2.9500000000000D+00  0.0000000000000D+00  0.0000000000000D+00
297  2.9600000000000D+00  0.0000000000000D+00  0.0000000000000D+00
298  2.9700000000000D+00  0.0000000000000D+00  0.0000000000000D+00
299  2.9800000000000D+00  0.0000000000000D+00  0.0000000000000D+00
300  2.9900000000000D+00  0.0000000000000D+00  0.0000000000000D+00
301  3.0000000000000D+00  0.0000000000000D+00  0.0000000000000D+00
302  3.0100000000000D+00  0.0000000000000D+00  0.0000000000000D+00
303  3.0200000000000D+00  0.0000000000000D+00  0.0000000000000D+00
304  3.0300000000000D+00  0.0000000000000D+00  0.0000000000000D+00
305  3.0400000000000D+00  0.0000000000000D+00  0.0000000000000D+00
306  3.0500000000000D+00  0.0000000000000D+00  0.0000000000000D+00
307  3.0600000000000D+00  0.0000000000000D+00  0.0000000000000D+00
308  3.0700000000000D+00  0.0000000000000D+00  0.0000000000000D+00
309  3.0800000000000D+00  0.0000000000000D+00  0.0000000000000D+00
310  3.0900000000000D+00  0.0000000000000D+00  0.0000000000000D+00
311  3.1000000000000D+00  0.0000000000000D+00  0.0000000000000D+00
312  3.1100000000000D+00  0.0000000000000D+00  0.0000000000000D+00
313  3.1200000000000D+00  0.0000000000000D+00  0.0000000000000D+00
314  3.1300000000000D+00  0.0000000000000D+00  0.0000000000000D+00
315  3.1400000000000D+00  0.0000000000000D+00  0.0000000000000D+00
316  3.1500000000000D+00  0.0000000000000D+00  0.0000000000000D+00
317  3.1600000000000D+00  0.0000000000000D+00  0.0000000000000D+00
318  3.1700000000000D+00  0.0000000000000D+00  0.0000000000000D+00
319  3.1800000000000D+00  0.0000000000000D+00  0.0000000000000D+00
320  3.1900000000000D+00  0.0000000000000D+00  0.0000000000000D+00
321  3.2000000000000D+00  0.0000000000000D+00  0.0000000000000D+00
322  3.2100000000000D+00  0.0000000000000D+00  0.0000000000000D+00
323  3.2200000000000D+00  0.0000000000000D+00  0.0000000000000D+00
324  3.2300000000000D+00  0.0000000000000D+00  0.0000000000000D+00
325  3.2400000000000D+00  0.0000000000000D+00  0.0000000000000D+00
326  3.2500000000000D+00  0.0000000000000D+00  0.0000000000000D+00
327  3.2600000000000D+00  0.0000000000000D+00  0.0000000000000D+00
328  3.2700000000000D+00  0.0000000000000D+00  0.0000000000000D+00
329  3.2800000000000D+00  0.0000000000000D+00  0.0000000000000D+00
330  3.2900000000000D+00  0.0000000000000D+00  0.0000000000000D+00
331  3.3000000000000D+00  0.0000000000000D+00  0.0000000000000D+00
332  3.3100000000000D+00  0.0000000000000D+00  0.0000000000000D+00
333  3.3200000000000D+00  0.0000000000000D+00  0.0000000000000D+00
334  3.3300000000000D+00  0.0000000000000D+00  0.0000000000000D+00
335  3.3400000000000D+00  0.0000000000000D+00  0.0000000000000D+00
336  3.3500000000000D+00  0.0000000000000D+00  0.0000000000000D+00
337  3.3600000000000D+00  0.0000000000000D+00  0.0000000000000D+00
338  3.3700000000000D+00  0.0000000000000D+00  0.0000000000000D+00
339  3.3800000000000D+00  0.0000000000000D+00  0.0000000000000D+00
340  3.3900000000000D+00  0.0000000000000D+00  0.0000000000000D+00
341  3.4000000000000D+00  0.0000000000000D+00  0.0000000000000D+00
342  3.4100000000000D+00  0.0000000000000D+00  0.0000000000000D+00
343  3.4200000000000D+00  0.0000000000000D+00  0.0000000000000D+00
344  3.4300000000000D+00  0.0000000000000D+00  0.0000000000000D+00
345  3.4400000000000D+00  0.0000000000000D+00  0.0000000000000D+00
346  3.4500000000000D+00  0.0000000000000D+00  0.0000000000000D+00
347  3.4600000000000D+00  0.0000000000000D+00  0.0000000000000D+00
348  3.4700000000000D+00  0.0000000000000D+00  0.0000000000000D+00
349  3.4800000000000D+00  0.0000000000000D+00  0.0000000000000D+00
350  3.4900000000000D+00  0.0000000000000D+00  0.0000000000000D+00
351  3.5000000000000D+00  0.0000000000000D+00  0.0000000000000D+00
352  3.5100000000000D+00  0.0000000000000D+00  0.0000000000000D+00
353  3.5200000000000D+00  0.0000000000000D+00  0.0000000000000D+00
354  3.5300000000000D+00  0.0000000000000D+00  0.0000000000000D+00
355  3.5400000000000D+00  0.0000000000000D+00  0.0000000000000D+00
356  3.5500000000000D+00  0.0000000000000D+00  0.0000000000000D+00
357  3.5600000000000D+00  0.0000000000000D+00  0.0000000000000D+00
358  3.5700000000000D+00  0.0000000000000D+00  0.0000000000000D+00
359  3.5800000000000D+00  0.0000000000000D+00  0.0000000000000D+00
360  3.5900000000000D+00  0.0000000000000D+00  0.0000000000000D+00
361  3.6000000000000D+00  0.0000000000000D+00  0.0000000000000D+00
362  3.6100000000000D+00  0.0000000000000D+00  0.0000000000000D+00
363  3.6200000000000D+00  0.0000000000000D+00  0.0000000000000D+00
364  3.6300000000000D+00  0.0000000000000D+00  0.0000000000000D+00
365  3.6400000000000D+00  0.0000000000000D+00  0.0000000000000D+00
366  3.6500000000000D+00  0.0000000000000D+00  0.0000000000000D+00
367  3.6600000000000D+00  0.0000000000000D+00  0.0000000000000D+00
368  3.6700000000000D+00  0.0000000000000D+00  0.0000000000000D+00
369  3.6800000000000D+00  0.0000000000000D+00  0.0000000000000D+00
370  3.6900000000000D+00  0.0000000000000D+00  0.0000000000000D+00
371  3.7000000000000D+00  0.0000000000000D+00  0.0000000000000D+00
372  3.7100000000000D+00  0.0000000000000D+00  0.0000000000000D+00
373  3.7200000000000D+00  0.0000000000000D+00  0.0000000000000D+00
374  3.7300000000000D+00  0.0000000000000D+00  0.0000000000000D+00
375  3.7400000000000D+00  0.0000000000000D+00  0.0000000000000D+00
376  3.7500000000000D+00  0.0000000000000D+00  0.0000000000000D+00
377  3.7600000000000D+00  0.0000000000000D+00  0.0000000000000D+00
378  3.7700000000000D+00  0.0000000000000D+00  0.0000000000000D+00
379  3.7800000000000D+00  0.0000000000000D+00  0.0000000000000D+00
380  3.7900000000000D+00  0.0000000000000D+00  0.0000000000000D+00
381  3.8000000000000D+00  0.0000000000000D+00  0.0000000000000D+00
382  3.8100000000000D+00  0.0000000000000D+00  0.0000000000000D+00
383  3.8200000000000D+00  0.0000000000000D+00  0.0000000000000D+00
384  3.8300000000000D+00  0.0000000000000D+00  0.0000000000000D+00
385  3.8400000000000D+00  0.0000000000000D+00  0.0000000000000D+00
386  3.8500000000000D+00  0.0000000000000D+00  0.0000000000000D+00
387  3.8600000000000D+00  0.0000000000000D+00  0.0000000000000D+00
388  3.8700000000000D+00  0.0000000000000D+00  0.0000000000000D+00
389  3.8800000000000D+00  0.0000000000000D+00  0.0000000000000D+00
390  3.8900000000000D+00  0.0000000000000D+00  0.0000000000000D+00
391  3.9000000000000D+00  0.0000000000000D+00  0.0000000000000D+00
392  3.9100000000000D+00  0.0000000000000D+00  0.0000000000000D+00
393  3.9200000000000D+00  0.0000000000000D+00  0.0000000000000D+00
394  3.9300000000000D+00  0.0000000000000D+00  0.0000000000000D+00
395  3.9400000000000D+00  0.0000000000000D+00  0.0000000000000D+00
396  3.9500000000000D+00  0.0000000000000D+00  0.0000000000000D+00
397  3.9600000000000D+00  0.0000000000000D+00  0.0000000000000D+00
398  3.9700000000000D+00  0.0000000000000D+00  0.0000000000000D+00
399  3.9800000000000D+00  0.0000000000000D+00  0.0000000000000D+00
400  3.9900000000000D+00  0.0000000000000D+00  0.0000000000000D+00
401  4.0000000000000D+00  0.0000000000000D+00  0.0000000000000D+00
402  4.0100000000000D+00  0.0000000000000D+00  0.0000000000000D+00
403  4.0200000000000D+00  0.0000000000000D+00  0.0000000000000D+00
404  4.0300000000000D+00  0.0000000000000D+00  0.0000000000000D+00
405  4.0400000000000D+00  0.0000000000000D+00  0.0000000000000D+00
406  4.0500000000000D+00  0.0000000000000D+00  0.0000000000000D+00
407  4.0600000000000D+00  0.0000000000000D+00  0.0000000000000D+00
408  4.0700000000000D+00  0.0000000000000D+00  0.0000000000000D+00
409  4.0800000000000D+00  0.0000000000000D+00  0.0000000000000D+00
410  4.0900000000000D+00  0.0000000000000D+00  0.0000000000000D+00
411  4.1000000000000D+00  0.0000000000000D+00  0.0000000000000D+00
412  4.1100000000000D+00  0.0000000000000D+00  0.0000000000000D+00
413  4.1200000000000D+00  0.0000000000000D+00  0.0000000000000D+00
414  4.1300000000000D+00  0.0000000000000D+00  0.0000000000000D+00
415  4.1400000000000D+00  0.0000000000000D+00  0.0000000000000D+00
416  4.1500000000000D+00  0.0000000000000D+00  0.0000000000000D+00
417  4.1600000000000D+00  0.0000000000000D+00  0.0000000000000D+00
418  4.1700000000000D+00  0.0000000000000D+00  0.0000000000000D+00
419  4.1800000000000D+00  0.0000000000000D+00  0.0000000000000D+00
420  4.1900000000000D+00  0.0000000000000D+00  0.0000000000000D+00
421  4.2000000000000D+00  0.0000000000000D+00  0.0000000000000D+00
422  4.2100000000000D+00  0.0000000000000D+00  0.0000000000000D+00
423  4.2200000000000D+00  0.0000000000000D+00  0.0000000000000D+00
424  4.2300000000000D+00  0.0000000000000D+00  0.0000000000000D+00
425  4.2400000000000D+00  0.0000000000000D+00  0.0000000000000D+00
426  4.2500000000000D+00  0.0000000000000D+00  0.0000000000000D+00
427  4.2600000000000D+00  0.0000000000000D+00  0.0000000000000D+00
428  4.2700000000000D+00  0.0000000000000D+00  0.0000000000000D+00
429  4.2800000000000D+00  0.0000000000000D+00  0.0000000000000D+00
430  4.2900000000000D+00  0.0000000000000D+00  0.0000000000000D+00
431  4.3000000000000D+00  0.0000000000000D+00  0.0000000000000D+00
432  4.3100000000000D+00  0.0000000000000D+00  0.0000000000000D+00
433  4.3200000000000D+00  0.0000000000000D+00  0.0000000000000D+00
434  4.3300000000000D+00  0.0000000000000D+00  0.0000000000000D+00
435  4.3400000000000D+00  0.0000000000000D+00  0.0000000000000D+00
436  4.3500000000000D+00  0.0000000000000D+00  0.0000000000000D+00
437  4.3600000000000D+00  0.0000000000000D+00  0.0000000000000D+00
438  4.3700000000000D+00  0.0000000000000D+00  0.0000000000000D+00
439  4.3800000000000D+00  0.0000000000000D+00  0.0000000000000D+00
440  4.3900000000000D+00  0.0000000000000D+00  0.0000000000000D+00
441  4.4000000000000D+00  0.0000000000000D+00  0.0000000000000D+00
442  4.4100000000000D+00  0.0000000000000D+00  0.0000000000000D+00
443  4.4200000000000D+00  0.0000000000000D+00  0.0000000000000D+00