Ne    ONCVPSP-3.2.3  r_core=   1.31204   1.70576
10.0000      8.0000      161006    zatom,zion,pspd
8   -1012   1     4   400     0    pspcod,pspxc,lmax,lloc,mmax,r2well
3.99000000  0.00000000  0.00000000    rchrg fchrg qchrg
2     2     0     0     0    nproj
1     1           extension_switch
0                         2.1730860361440D+00 -4.7283845790395D-01
1  0.0000000000000D+00  2.1906975122832D-09  7.0157382681124D-10
2  1.0000000000000D-02  5.2349161426830D-02  7.4560462216732D-03
3  2.0000000000000D-02  1.0480792234922D-01  1.5058237376171D-02
4  3.0000000000000D-02  1.5748246473142D-01  2.2951196503409D-02
5  4.0000000000000D-02  2.1047218225767D-01  3.1276519086330D-02
6  5.0000000000000D-02  2.6386640258497D-01  4.0171299664110D-02
7  6.0000000000000D-02  3.1774124769495D-01  4.9766706412258D-02
8  7.0000000000000D-02  3.7215667577705D-01  6.0186618846041D-02
9  8.0000000000000D-02  4.2715374588439D-01  7.1546343102071D-02
10  9.0000000000000D-02  4.8275214391333D-01  8.3951418390854D-02
11  1.0000000000000D-01  5.3894800529813D-01  9.7496527200061D-02
12  1.1000000000000D-01  5.9571206622047D-01  1.1226452067593D-01
13  1.2000000000000D-01  6.5298817115106D-01  1.2832556933118D-01
14  1.3000000000000D-01  7.1069216021350D-01  1.4573644783657D-01
15  1.4000000000000D-01  7.6871115523845D-01  1.6453996116572D-01
16  1.5000000000000D-01  8.2690325851388D-01  1.8476451779488D-01
17  1.6000000000000D-01  8.8509767318966D-01  2.0642385402982D-01
18  1.7000000000000D-01  9.4309524912202D-01  2.2951691185816D-01
19  1.8000000000000D-01  1.0006694527049D+00  2.5402787102673D-01
20  1.9000000000000D-01  1.0575677539925D+00  2.7992633433878D-01
21  2.0000000000000D-01  1.1135134192327D+00  3.0716766347462D-01
22  2.1000000000000D-01  1.1682076918616D+00  3.3569346098007D-01
23  2.2000000000000D-01  1.2213323401213D+00  3.6543219245915D-01
24  2.3000000000000D-01  1.2725525448085D+00  3.9629994146872D-01
25  2.4000000000000D-01  1.3215200962961D+00  4.2820128816072D-01
26  2.5000000000000D-01  1.3678768659508D+00  4.6103030136844D-01
27  2.6000000000000D-01  1.4112585134390D+00  4.9467163260274D-01
28  2.7000000000000D-01  1.4512983882177D+00  5.2900169932556D-01
29  2.8000000000000D-01  1.4876315807870D+00  5.6388994391446D-01
30  2.9000000000000D-01  1.5198990770668D+00  5.9920015393368D-01
31  3.0000000000000D-01  1.5477519675826D+00  6.3479182869421D-01
32  3.1000000000000D-01  1.5708556620257D+00  6.7052157662326D-01
33  3.2000000000000D-01  1.5888940592053D+00  7.0624452767961D-01
34  3.3000000000000D-01  1.6015736224472D+00  7.4181574494726D-01
35  3.4000000000000D-01  1.6086273111106D+00  7.7709161961745D-01
36  3.5000000000000D-01  1.6098183200981D+00  8.1193123382754D-01
37  3.6000000000000D-01  1.6049435810002D+00  8.4619767626176D-01
38  3.7000000000000D-01  1.5938369808376D+00  8.7975929602774D-01
39  3.8000000000000D-01  1.5763722572112D+00  9.1249088109776D-01
40  3.9000000000000D-01  1.5524655320152D+00  9.4427474853603D-01
41  4.0000000000000D-01  1.5220774496719D+00  9.7500173481112D-01
42  4.1000000000000D-01  1.4852148900726D+00  1.0045720757055D+00
43  4.2000000000000D-01  1.4419322310045D+00  1.0328961666659D+00
44  4.3000000000000D-01  1.3923321397586D+00  1.0598951958752D+00
45  4.4000000000000D-01  1.3365658787998D+00  1.0855016438511D+00
46  4.5000000000000D-01  1.2748331157672D+00  1.1096596449725D+00
47  4.6000000000000D-01  1.2073812336110D+00  1.1323252079800D+00
48  4.7000000000000D-01  1.1345041422891D+00  1.1534662941781D+00
49  4.8000000000000D-01  1.0565405990867D+00  1.1730627537581D+00
50  4.9000000000000D-01  9.7387205021013D-01  1.1911061223458D+00
51  5.0000000000000D-01  8.8692001178810D-01  1.2075992815403D+00
52  5.1000000000000D-01  7.9614301371658D-01  1.2225559888202D+00
53  5.2000000000000D-01  7.0203313485317D-01  1.2360002837443D+00
54  5.3000000000000D-01  6.0511216283540D-01  1.2479657788386D+00
55  5.4000000000000D-01  5.0592741621649D-01  1.2584948449273D+00
56  5.5000000000000D-01  4.0504727062595D-01  1.2676377019103D+00
57  5.6000000000000D-01  3.0305643421562D-01  1.2754514271114D+00
58  5.7000000000000D-01  2.0055102071939D-01  1.2819988942882D+00
59  5.8000000000000D-01  9.8133470974422D-02  1.2873476572118D+00
60  5.9000000000000D-01 -3.5926242829318D-03  1.2915687923717D+00
61  6.0000000000000D-01 -1.0402774616927D-01  1.2947357158347D+00
62  6.1000000000000D-01 -2.0258165901639D-01  1.2969229895797D+00
63  6.2000000000000D-01 -2.9867855626909D-01  1.2982051327379D+00
64  6.3000000000000D-01 -3.9176208633467D-01  1.2986554530904D+00
65  6.4000000000000D-01 -4.8130020491017D-01  1.2983449139120D+00
66  6.5000000000000D-01 -5.6678980203573D-01  1.2973410508038D+00
67  6.6000000000000D-01 -6.4776105444767D-01  1.2957069525322D+00
68  6.7000000000000D-01 -7.2378145668903D-01  1.2935003190963D+00
69  6.8000000000000D-01 -7.9445948786215D-01  1.2907726092926D+00
70  6.9000000000000D-01 -8.5944787484731D-01  1.2875682889324D+00
71  7.0000000000000D-01 -9.1844641719684D-01  1.2839241896239D+00
72  7.1000000000000D-01 -9.7120434370511D-01  1.2798689866655D+00
73  7.2000000000000D-01 -1.0175221758141D+00  1.2754228031141D+00
74  7.3000000000000D-01 -1.0572530784650D+00  1.2705969455317D+00
75  7.4000000000000D-01 -1.0903036846831D+00  1.2653937752720D+00
76  7.5000000000000D-01 -1.1166343860346D+00  1.2598067174823D+00
77  7.6000000000000D-01 -1.1362590870566D+00  1.2538204082719D+00
78  7.7000000000000D-01 -1.1492444277206D+00  1.2474109787746D+00
79  7.8000000000000D-01 -1.1557084839675D+00  1.2405464730984D+00
80  7.9000000000000D-01 -1.1558189621701D+00  1.2331873954748D+00
81  8.0000000000000D-01 -1.1497909090523D+00  1.2252873802771D+00
82  8.1000000000000D-01 -1.1378839640097D+00  1.2167939770060D+00
83  8.2000000000000D-01 -1.1203991858997D+00  1.2076495408666D+00
84  8.3000000000000D-01 -1.0976754911112D+00  1.1977922181889D+00
85  8.4000000000000D-01 -1.0700857440529D+00  1.1871570147008D+00
86  8.5000000000000D-01 -1.0380325450495D+00  1.1756769335606D+00
87  8.6000000000000D-01 -1.0019437639622D+00  1.1632841691076D+00
88  8.7000000000000D-01 -9.6226787061816D-01  1.1499113415096D+00
89  8.8000000000000D-01 -9.1946911530713D-01  1.1354927568837D+00
90  8.9000000000000D-01 -8.7402261414946D-01  1.1199656770475D+00
91  9.0000000000000D-01 -8.2640939505146D-01  1.1032715828338D+00
92  9.1000000000000D-01 -7.7711146021662D-01  1.0853574148681D+00
93  9.2000000000000D-01 -7.2660692077880D-01  1.0661767758724D+00
94  9.3000000000000D-01 -6.7536525806649D-01  1.0456910789204D+00
95  9.4000000000000D-01 -6.2384276430752D-01  1.0238706266158D+00
96  9.5000000000000D-01 -5.7247821326700D-01  1.0006956069010D+00
97  9.6000000000000D-01 -5.2168880836318D-01  9.7615699212567D-01
98  9.7000000000000D-01 -4.7186645237095D-01  9.5025732906878D-01
99  9.8000000000000D-01 -4.2337437879493D-01  9.2301140885018D-01
100  9.9000000000000D-01 -3.7654418049305D-01  8.9444680704936D-01
101  1.0000000000000D+00 -3.3167326626599D-01  8.6460428583771D-01
102  1.0100000000000D+00 -2.8902277084435D-01  8.3353805154206D-01
103  1.0200000000000D+00 -2.4881593816471D-01  8.0131586274378D-01
104  1.0300000000000D+00 -2.1123699190427D-01  7.6801898581564D-01
105  1.0400000000000D+00 -1.7643050151355D-01  7.3374199653546D-01
106  1.0500000000000D+00 -1.4450124573903D-01  6.9859242830597D-01
107  1.0600000000000D+00 -1.1551456953693D-01  6.6269026934911D-01
108  1.0700000000000D+00 -8.9497224377807D-02  6.2616731302203D-01
109  1.0800000000000D+00 -6.6438675846041D-02  5.8916636723545D-01
110  1.0900000000000D+00 -4.6292856948143D-02  5.5184033060311D-01
111  1.1000000000000D+00 -2.8980340071647D-02  5.1435114459024D-01
112  1.1100000000000D+00 -1.4390895126965D-02  4.7686863254407D-01
113  1.1200000000000D+00 -2.3863970420879D-03  4.3956923778725D-01
114  1.1300000000000D+00  7.1959588390336D-03  4.0263467432258D-01
115  1.1400000000000D+00  1.4540178003315D-02  3.6625050461339D-01
116  1.1500000000000D+00  1.9847773436507D-02  3.3060466013967D-01
117  1.1600000000000D+00  2.3333908355448D-02  2.9588592096576D-01
118  1.1700000000000D+00  2.5223427866580D-02  2.6228237118162D-01
119  1.1800000000000D+00  2.5746833794120D-02  2.2997984746814D-01
120  1.1900000000000D+00  2.5136257868084D-02  1.9916039826220D-01
121  1.2000000000000D+00  2.3621487971015D-02  1.7000077080650D-01
122  1.2100000000000D+00  2.1426101957864D-02  1.4267094327243D-01
123  1.2200000000000D+00  1.8763762371216D-02  1.1733271872140D-01
124  1.2300000000000D+00  1.5834722806889D-02  9.4138396833385D-02
125  1.2400000000000D+00  1.2822594289228D-02  7.3229538555723D-02
126  1.2500000000000D+00  9.8914182166831D-03  5.4735838236069D-02
127  1.2600000000000D+00  7.1830863911192D-03  3.8774115877355D-02
128  1.2700000000000D+00  4.8162559135728D-03  2.5452821095562D-02
129  1.2800000000000D+00  2.8794504849787D-03  1.4846490615549D-02
130  1.2900000000000D+00  1.4274983606427D-03  6.9910507460181D-03
131  1.3000000000000D+00  5.5209879472726D-04  2.1691775580713D-03
132  1.3100000000000D+00  1.8526555429256D-04  1.3754007993612D-04
133  1.3200000000000D+00  4.4647009073227D-05 -1.7901655808344D-04
134  1.3300000000000D+00 -3.8503575409740D-06  2.9994733082950D-05
135  1.3400000000000D+00 -2.8844268560506D-06  3.4618897462759D-05
136  1.3500000000000D+00  1.7132800545763D-06 -1.0269459310083D-05
137  1.3600000000000D+00 -1.5424361996577D-08  2.6862124234480D-09
138  1.3700000000000D+00 -3.7769925305521D-07  6.5777788806378D-08
139  1.3800000000000D+00  0.0000000000000D+00  0.0000000000000D+00
140  1.3900000000000D+00  0.0000000000000D+00  0.0000000000000D+00
141  1.4000000000000D+00  0.0000000000000D+00  0.0000000000000D+00
142  1.4100000000000D+00  0.0000000000000D+00  0.0000000000000D+00
143  1.4200000000000D+00  0.0000000000000D+00  0.0000000000000D+00
144  1.4300000000000D+00  0.0000000000000D+00  0.0000000000000D+00
145  1.4400000000000D+00  0.0000000000000D+00  0.0000000000000D+00
146  1.4500000000000D+00  0.0000000000000D+00  0.0000000000000D+00
147  1.4600000000000D+00  0.0000000000000D+00  0.0000000000000D+00
148  1.4700000000000D+00  0.0000000000000D+00  0.0000000000000D+00
149  1.4800000000000D+00  0.0000000000000D+00  0.0000000000000D+00
150  1.4900000000000D+00  0.0000000000000D+00  0.0000000000000D+00
151  1.5000000000000D+00  0.0000000000000D+00  0.0000000000000D+00
152  1.5100000000000D+00  0.0000000000000D+00  0.0000000000000D+00
153  1.5200000000000D+00  0.0000000000000D+00  0.0000000000000D+00
154  1.5300000000000D+00  0.0000000000000D+00  0.0000000000000D+00
155  1.5400000000000D+00  0.0000000000000D+00  0.0000000000000D+00
156  1.5500000000000D+00  0.0000000000000D+00  0.0000000000000D+00
157  1.5600000000000D+00  0.0000000000000D+00  0.0000000000000D+00
158  1.5700000000000D+00  0.0000000000000D+00  0.0000000000000D+00
159  1.5800000000000D+00  0.0000000000000D+00  0.0000000000000D+00
160  1.5900000000000D+00  0.0000000000000D+00  0.0000000000000D+00
161  1.6000000000000D+00  0.0000000000000D+00  0.0000000000000D+00
162  1.6100000000000D+00  0.0000000000000D+00  0.0000000000000D+00
163  1.6200000000000D+00  0.0000000000000D+00  0.0000000000000D+00
164  1.6300000000000D+00  0.0000000000000D+00  0.0000000000000D+00
165  1.6400000000000D+00  0.0000000000000D+00  0.0000000000000D+00
166  1.6500000000000D+00  0.0000000000000D+00  0.0000000000000D+00
167  1.6600000000000D+00  0.0000000000000D+00  0.0000000000000D+00
168  1.6700000000000D+00  0.0000000000000D+00  0.0000000000000D+00
169  1.6800000000000D+00  0.0000000000000D+00  0.0000000000000D+00
170  1.6900000000000D+00  0.0000000000000D+00  0.0000000000000D+00
171  1.7000000000000D+00  0.0000000000000D+00  0.0000000000000D+00
172  1.7100000000000D+00  0.0000000000000D+00  0.0000000000000D+00
173  1.7200000000000D+00  0.0000000000000D+00  0.0000000000000D+00
174  1.7300000000000D+00  0.0000000000000D+00  0.0000000000000D+00
175  1.7400000000000D+00  0.0000000000000D+00  0.0000000000000D+00
176  1.7500000000000D+00  0.0000000000000D+00  0.0000000000000D+00
177  1.7600000000000D+00  0.0000000000000D+00  0.0000000000000D+00
178  1.7700000000000D+00  0.0000000000000D+00  0.0000000000000D+00
179  1.7800000000000D+00  0.0000000000000D+00  0.0000000000000D+00
180  1.7900000000000D+00  0.0000000000000D+00  0.0000000000000D+00
181  1.8000000000000D+00  0.0000000000000D+00  0.0000000000000D+00
182  1.8100000000000D+00  0.0000000000000D+00  0.0000000000000D+00
183  1.8200000000000D+00  0.0000000000000D+00  0.0000000000000D+00
184  1.8300000000000D+00  0.0000000000000D+00  0.0000000000000D+00
185  1.8400000000000D+00  0.0000000000000D+00  0.0000000000000D+00
186  1.8500000000000D+00  0.0000000000000D+00  0.0000000000000D+00
187  1.8600000000000D+00  0.0000000000000D+00  0.0000000000000D+00
188  1.8700000000000D+00  0.0000000000000D+00  0.0000000000000D+00
189  1.8800000000000D+00  0.0000000000000D+00  0.0000000000000D+00
190  1.8900000000000D+00  0.0000000000000D+00  0.0000000000000D+00
191  1.9000000000000D+00  0.0000000000000D+00  0.0000000000000D+00
192  1.9100000000000D+00  0.0000000000000D+00  0.0000000000000D+00
193  1.9200000000000D+00  0.0000000000000D+00  0.0000000000000D+00
194  1.9300000000000D+00  0.0000000000000D+00  0.0000000000000D+00
195  1.9400000000000D+00  0.0000000000000D+00  0.0000000000000D+00
196  1.9500000000000D+00  0.0000000000000D+00  0.0000000000000D+00
197  1.9600000000000D+00  0.0000000000000D+00  0.0000000000000D+00
198  1.9700000000000D+00  0.0000000000000D+00  0.0000000000000D+00
199  1.9800000000000D+00  0.0000000000000D+00  0.0000000000000D+00
200  1.9900000000000D+00  0.0000000000000D+00  0.0000000000000D+00
201  2.0000000000000D+00  0.0000000000000D+00  0.0000000000000D+00
202  2.0100000000000D+00  0.0000000000000D+00  0.0000000000000D+00
203  2.0200000000000D+00  0.0000000000000D+00  0.0000000000000D+00
204  2.0300000000000D+00  0.0000000000000D+00  0.0000000000000D+00
205  2.0400000000000D+00  0.0000000000000D+00  0.0000000000000D+00
206  2.0500000000000D+00  0.0000000000000D+00  0.0000000000000D+00
207  2.0600000000000D+00  0.0000000000000D+00  0.0000000000000D+00
208  2.0700000000000D+00  0.0000000000000D+00  0.0000000000000D+00
209  2.0800000000000D+00  0.0000000000000D+00  0.0000000000000D+00
210  2.0900000000000D+00  0.0000000000000D+00  0.0000000000000D+00
211  2.1000000000000D+00  0.0000000000000D+00  0.0000000000000D+00
212  2.1100000000000D+00  0.0000000000000D+00  0.0000000000000D+00
213  2.1200000000000D+00  0.0000000000000D+00  0.0000000000000D+00
214  2.1300000000000D+00  0.0000000000000D+00  0.0000000000000D+00
215  2.1400000000000D+00  0.0000000000000D+00  0.0000000000000D+00
216  2.1500000000000D+00  0.0000000000000D+00  0.0000000000000D+00
217  2.1600000000000D+00  0.0000000000000D+00  0.0000000000000D+00
218  2.1700000000000D+00  0.0000000000000D+00  0.0000000000000D+00
219  2.1800000000000D+00  0.0000000000000D+00  0.0000000000000D+00
220  2.1900000000000D+00  0.0000000000000D+00  0.0000000000000D+00
221  2.2000000000000D+00  0.0000000000000D+00  0.0000000000000D+00
222  2.2100000000000D+00  0.0000000000000D+00  0.0000000000000D+00
223  2.2200000000000D+00  0.0000000000000D+00  0.0000000000000D+00
224  2.2300000000000D+00  0.0000000000000D+00  0.0000000000000D+00
225  2.2400000000000D+00  0.0000000000000D+00  0.0000000000000D+00
226  2.2500000000000D+00  0.0000000000000D+00  0.0000000000000D+00
227  2.2600000000000D+00  0.0000000000000D+00  0.0000000000000D+00
228  2.2700000000000D+00  0.0000000000000D+00  0.0000000000000D+00
229  2.2800000000000D+00  0.0000000000000D+00  0.0000000000000D+00
230  2.2900000000000D+00  0.0000000000000D+00  0.0000000000000D+00
231  2.3000000000000D+00  0.0000000000000D+00  0.0000000000000D+00
232  2.3100000000000D+00  0.0000000000000D+00  0.0000000000000D+00
233  2.3200000000000D+00  0.0000000000000D+00  0.0000000000000D+00
234  2.3300000000000D+00  0.0000000000000D+00  0.0000000000000D+00
235  2.3400000000000D+00  0.0000000000000D+00  0.0000000000000D+00
236  2.3500000000000D+00  0.0000000000000D+00  0.0000000000000D+00
237  2.3600000000000D+00  0.0000000000000D+00  0.0000000000000D+00
238  2.3700000000000D+00  0.0000000000000D+00  0.0000000000000D+00
239  2.3800000000000D+00  0.0000000000000D+00  0.0000000000000D+00
240  2.3900000000000D+00  0.0000000000000D+00  0.0000000000000D+00
241  2.4000000000000D+00  0.0000000000000D+00  0.0000000000000D+00
242  2.4100000000000D+00  0.0000000000000D+00  0.0000000000000D+00
243  2.4200000000000D+00  0.0000000000000D+00  0.0000000000000D+00
244  2.4300000000000D+00  0.0000000000000D+00  0.0000000000000D+00
245  2.4400000000000D+00  0.0000000000000D+00  0.0000000000000D+00
246  2.4500000000000D+00  0.0000000000000D+00  0.0000000000000D+00
247  2.4600000000000D+00  0.0000000000000D+00  0.0000000000000D+00
248  2.4700000000000D+00  0.0000000000000D+00  0.0000000000000D+00
249  2.4800000000000D+00  0.0000000000000D+00  0.0000000000000D+00
250  2.4900000000000D+00  0.0000000000000D+00  0.0000000000000D+00
251  2.5000000000000D+00  0.0000000000000D+00  0.0000000000000D+00
252  2.5100000000000D+00  0.0000000000000D+00  0.0000000000000D+00
253  2.5200000000000D+00  0.0000000000000D+00  0.0000000000000D+00
254  2.5300000000000D+00  0.0000000000000D+00  0.0000000000000D+00
255  2.5400000000000D+00  0.0000000000000D+00  0.0000000000000D+00
256  2.5500000000000D+00  0.0000000000000D+00  0.0000000000000D+00
257  2.5600000000000D+00  0.0000000000000D+00  0.0000000000000D+00
258  2.5700000000000D+00  0.0000000000000D+00  0.0000000000000D+00
259  2.5800000000000D+00  0.0000000000000D+00  0.0000000000000D+00
260  2.5900000000000D+00  0.0000000000000D+00  0.0000000000000D+00
261  2.6000000000000D+00  0.0000000000000D+00  0.0000000000000D+00
262  2.6100000000000D+00  0.0000000000000D+00  0.0000000000000D+00
263  2.6200000000000D+00  0.0000000000000D+00  0.0000000000000D+00
264  2.6300000000000D+00  0.0000000000000D+00  0.0000000000000D+00
265  2.6400000000000D+00  0.0000000000000D+00  0.0000000000000D+00
266  2.6500000000000D+00  0.0000000000000D+00  0.0000000000000D+00
267  2.6600000000000D+00  0.0000000000000D+00  0.0000000000000D+00
268  2.6700000000000D+00  0.0000000000000D+00  0.0000000000000D+00
269  2.6800000000000D+00  0.0000000000000D+00  0.0000000000000D+00
270  2.6900000000000D+00  0.0000000000000D+00  0.0000000000000D+00
271  2.7000000000000D+00  0.0000000000000D+00  0.0000000000000D+00
272  2.7100000000000D+00  0.0000000000000D+00  0.0000000000000D+00
273  2.7200000000000D+00  0.0000000000000D+00  0.0000000000000D+00
274  2.7300000000000D+00  0.0000000000000D+00  0.0000000000000D+00
275  2.7400000000000D+00  0.0000000000000D+00  0.0000000000000D+00
276  2.7500000000000D+00  0.0000000000000D+00  0.0000000000000D+00
277  2.7600000000000D+00  0.0000000000000D+00  0.0000000000000D+00
278  2.7700000000000D+00  0.0000000000000D+00  0.0000000000000D+00
279  2.7800000000000D+00  0.0000000000000D+00  0.0000000000000D+00
280  2.7900000000000D+00  0.0000000000000D+00  0.0000000000000D+00
281  2.8000000000000D+00  0.0000000000000D+00  0.0000000000000D+00
282  2.8100000000000D+00  0.0000000000000D+00  0.0000000000000D+00
283  2.8200000000000D+00  0.0000000000000D+00  0.0000000000000D+00
284  2.8300000000000D+00  0.0000000000000D+00  0.0000000000000D+00
285  2.8400000000000D+00  0.0000000000000D+00  0.0000000000000D+00
286  2.8500000000000D+00  0.0000000000000D+00  0.0000000000000D+00
287  2.8600000000000D+00  0.0000000000000D+00  0.0000000000000D+00
288  2.8700000000000D+00  0.0000000000000D+00  0.0000000000000D+00
289  2.8800000000000D+00  0.0000000000000D+00  0.0000000000000D+00
290  2.8900000000000D+00  0.0000000000000D+00  0.0000000000000D+00
291  2.9000000000000D+00  0.0000000000000D+00  0.0000000000000D+00
292  2.9100000000000D+00  0.0000000000000D+00  0.0000000000000D+00
293  2.9200000000000D+00  0.0000000000000D+00  0.0000000000000D+00
294  2.9300000000000D+00  0.0000000000000D+00  0.0000000000000D+00
295  2.9400000000000D+00  0.0000000000000D+00  0.0000000000000D+00
296  2.9500000000000D+00  0.0000000000000D+00  0.0000000000000D+00
297  2.9600000000000D+00  0.0000000000000D+00  0.0000000000000D+00
298  2.9700000000000D+00  0.0000000000000D+00  0.0000000000000D+00
299  2.9800000000000D+00  0.0000000000000D+00  0.0000000000000D+00
300  2.9900000000000D+00  0.0000000000000D+00  0.0000000000000D+00
301  3.0000000000000D+00  0.0000000000000D+00  0.0000000000000D+00
302  3.0100000000000D+00  0.0000000000000D+00  0.0000000000000D+00
303  3.0200000000000D+00  0.0000000000000D+00  0.0000000000000D+00
304  3.0300000000000D+00  0.0000000000000D+00  0.0000000000000D+00
305  3.0400000000000D+00  0.0000000000000D+00  0.0000000000000D+00
306  3.0500000000000D+00  0.0000000000000D+00  0.0000000000000D+00
307  3.0600000000000D+00  0.0000000000000D+00  0.0000000000000D+00
308  3.0700000000000D+00  0.0000000000000D+00  0.0000000000000D+00
309  3.0800000000000D+00  0.0000000000000D+00  0.0000000000000D+00
310  3.0900000000000D+00  0.0000000000000D+00  0.0000000000000D+00
311  3.1000000000000D+00  0.0000000000000D+00  0.0000000000000D+00
312  3.1100000000000D+00  0.0000000000000D+00  0.0000000000000D+00
313  3.1200000000000D+00  0.0000000000000D+00  0.0000000000000D+00
314  3.1300000000000D+00  0.0000000000000D+00  0.0000000000000D+00
315  3.1400000000000D+00  0.0000000000000D+00  0.0000000000000D+00
316  3.1500000000000D+00  0.0000000000000D+00  0.0000000000000D+00
317  3.1600000000000D+00  0.0000000000000D+00  0.0000000000000D+00
318  3.1700000000000D+00  0.0000000000000D+00  0.0000000000000D+00
319  3.1800000000000D+00  0.0000000000000D+00  0.0000000000000D+00
320  3.1900000000000D+00  0.0000000000000D+00  0.0000000000000D+00
321  3.2000000000000D+00  0.0000000000000D+00  0.0000000000000D+00
322  3.2100000000000D+00  0.0000000000000D+00  0.0000000000000D+00
323  3.2200000000000D+00  0.0000000000000D+00  0.0000000000000D+00
324  3.2300000000000D+00  0.0000000000000D+00  0.0000000000000D+00
325  3.2400000000000D+00  0.0000000000000D+00  0.0000000000000D+00
326  3.2500000000000D+00  0.0000000000000D+00  0.0000000000000D+00
327  3.2600000000000D+00  0.0000000000000D+00  0.0000000000000D+00
328  3.2700000000000D+00  0.0000000000000D+00  0.0000000000000D+00
329  3.2800000000000D+00  0.0000000000000D+00  0.0000000000000D+00
330  3.2900000000000D+00  0.0000000000000D+00  0.0000000000000D+00
331  3.3000000000000D+00  0.0000000000000D+00  0.0000000000000D+00
332  3.3100000000000D+00  0.0000000000000D+00  0.0000000000000D+00
333  3.3200000000000D+00  0.0000000000000D+00  0.0000000000000D+00
334  3.3300000000000D+00  0.0000000000000D+00  0.0000000000000D+00
335  3.3400000000000D+00  0.0000000000000D+00  0.0000000000000D+00
336  3.3500000000000D+00  0.0000000000000D+00  0.0000000000000D+00
337  3.3600000000000D+00  0.0000000000000D+00  0.0000000000000D+00
338  3.3700000000000D+00  0.0000000000000D+00  0.0000000000000D+00
339  3.3800000000000D+00  0.0000000000000D+00  0.0000000000000D+00
340  3.3900000000000D+00  0.0000000000000D+00  0.0000000000000D+00
341  3.4000000000000D+00  0.0000000000000D+00  0.0000000000000D+00
342  3.4100000000000D+00  0.0000000000000D+00  0.0000000000000D+00
343  3.4200000000000D+00  0.0000000000000D+00  0.0000000000000D+00
344  3.4300000000000D+00  0.0000000000000D+00  0.0000000000000D+00
345  3.4400000000000D+00  0.0000000000000D+00  0.0000000000000D+00
346  3.4500000000000D+00  0.0000000000000D+00  0.0000000000000D+00
347  3.4600000000000D+00  0.0000000000000D+00  0.0000000000000D+00
348  3.4700000000000D+00  0.0000000000000D+00  0.0000000000000D+00
349  3.4800000000000D+00  0.0000000000000D+00  0.0000000000000D+00
350  3.4900000000000D+00  0.0000000000000D+00  0.0000000000000D+00
351  3.5000000000000D+00  0.0000000000000D+00  0.0000000000000D+00
352  3.5100000000000D+00  0.0000000000000D+00  0.0000000000000D+00
353  3.5200000000000D+00  0.0000000000000D+00  0.0000000000000D+00
354  3.5300000000000D+00  0.0000000000000D+00  0.0000000000000D+00
355  3.5400000000000D+00  0.0000000000000D+00  0.0000000000000D+00
356  3.5500000000000D+00  0.0000000000000D+00  0.0000000000000D+00
357  3.5600000000000D+00  0.0000000000000D+00  0.0000000000000D+00
358  3.5700000000000D+00  0.0000000000000D+00  0.0000000000000D+00
359  3.5800000000000D+00  0.0000000000000D+00  0.0000000000000D+00
360  3.5900000000000D+00  0.0000000000000D+00  0.0000000000000D+00
361  3.6000000000000D+00  0.0000000000000D+00  0.0000000000000D+00
362  3.6100000000000D+00  0.0000000000000D+00  0.0000000000000D+00
363  3.6200000000000D+00  0.0000000000000D+00  0.0000000000000D+00
364  3.6300000000000D+00  0.0000000000000D+00  0.0000000000000D+00
365  3.6400000000000D+00  0.0000000000000D+00  0.0000000000000D+00
366  3.6500000000000D+00  0.0000000000000D+00  0.0000000000000D+00
367  3.6600000000000D+00  0.0000000000000D+00  0.0000000000000D+00
368  3.6700000000000D+00  0.0000000000000D+00  0.0000000000000D+00
369  3.6800000000000D+00  0.0000000000000D+00  0.0000000000000D+00
370  3.6900000000000D+00  0.0000000000000D+00  0.0000000000000D+00
371  3.7000000000000D+00  0.0000000000000D+00  0.0000000000000D+00
372  3.7100000000000D+00  0.0000000000000D+00  0.0000000000000D+00
373  3.7200000000000D+00  0.0000000000000D+00  0.0000000000000D+00
374  3.7300000000000D+00  0.0000000000000D+00  0.0000000000000D+00
375  3.7400000000000D+00  0.0000000000000D+00  0.0000000000000D+00
376  3.7500000000000D+00  0.0000000000000D+00  0.0000000000000D+00
377  3.7600000000000D+00  0.0000000000000D+00  0.0000000000000D+00
378  3.7700000000000D+00  0.0000000000000D+00  0.0000000000000D+00
379  3.7800000000000D+00  0.0000000000000D+00  0.0000000000000D+00
380  3.7900000000000D+00  0.0000000000000D+00  0.0000000000000D+00
381  3.8000000000000D+00  0.0000000000000D+00  0.0000000000000D+00
382  3.8100000000000D+00  0.0000000000000D+00  0.0000000000000D+00
383  3.8200000000000D+00  0.0000000000000D+00  0.0000000000000D+00
384  3.8300000000000D+00  0.0000000000000D+00  0.0000000000000D+00
385  3.8400000000000D+00  0.0000000000000D+00  0.0000000000000D+00
386  3.8500000000000D+00  0.0000000000000D+00  0.0000000000000D+00
387  3.8600000000000D+00  0.0000000000000D+00  0.0000000000000D+00
388  3.8700000000000D+00  0.0000000000000D+00  0.0000000000000D+00
389  3.8800000000000D+00  0.0000000000000D+00  0.0000000000000D+00
390  3.8900000000000D+00  0.0000000000000D+00  0.0000000000000D+00
391  3.9000000000000D+00  0.0000000000000D+00  0.0000000000000D+00
392  3.9100000000000D+00  0.0000000000000D+00  0.0000000000000D+00
393  3.9200000000000D+00  0.0000000000000D+00  0.0000000000000D+00
394  3.9300000000000D+00  0.0000000000000D+00  0.0000000000000D+00
395  3.9400000000000D+00  0.0000000000000D+00  0.0000000000000D+00
396  3.9500000000000D+00  0.0000000000000D+00  0.0000000000000D+00
397  3.9600000000000D+00  0.0000000000000D+00  0.0000000000000D+00
398  3.9700000000000D+00  0.0000000000000D+00  0.0000000000000D+00
399  3.9800000000000D+00  0.0000000000000D+00  0.0000000000000D+00
400  3.9900000000000D+00  0.0000000000000D+00  0.0000000000000D+00
1                        -5.2260110137672D+00 -1.7304612631834D+00
1  0.0000000000000D+00 -9.7525598707904D-12  1.1385221931892D-10
2  1.0000000000000D-02  1.4889372563974D-03 -5.0593866819513D-04
3  2.0000000000000D-02  5.9505988207089D-03 -2.0206946290897D-03
4  3.0000000000000D-02  1.3369547386326D-02 -4.5350938262832D-03
5  4.0000000000000D-02  2.3720098478673D-02 -8.0338664807584D-03
6  5.0000000000000D-02  3.6966387042760D-02 -1.2495677793046D-02
7  6.0000000000000D-02  5.3062460729511D-02 -1.7893171381679D-02
8  7.0000000000000D-02  7.1952399939659D-02 -2.4193025903664D-02
9  8.0000000000000D-02  9.3570464693748D-02 -3.1356025416564D-02
10  9.0000000000000D-02  1.1784126840163D-01 -3.9337144145645D-02
11  1.0000000000000D-01  1.4467997860316D-01 -4.8085646411211D-02
12  1.1000000000000D-01  1.7399254474348D-01 -5.7545202549531D-02
13  1.2000000000000D-01  2.0567595302960D-01 -6.7654021722789D-02
14  1.3000000000000D-01  2.3961850838992D-01 -7.8345002559106D-02
15  1.4000000000000D-01  2.7570014352392D-01 -8.9545902590274D-02
16  1.5000000000000D-01  3.1379275498449D-01 -1.0117952746195D-01
17  1.6000000000000D-01  3.5376056618122D-01 -1.1316394087761D-01
18  1.7000000000000D-01  3.9546051712713D-01 -1.2541269620269D-01
19  1.8000000000000D-01  4.3874268067580D-01 -1.3783509059842D-01
20  1.9000000000000D-01  4.8345070490895D-01 -1.5033644247654D-01
21  2.0000000000000D-01  5.2942228123721D-01 -1.6281839296479D-01
22  2.1000000000000D-01  5.7648963766938D-01 -1.7517923195061D-01
23  2.2000000000000D-01  6.2448005658797D-01 -1.8731424912685D-01
24  2.3000000000000D-01  6.7321641624210D-01 -1.9911611029865D-01
25  2.4000000000000D-01  7.2251775503367D-01 -2.1047525902702D-01
26  2.5000000000000D-01  7.7219985752948D-01 -2.2128034348293D-01
27  2.6000000000000D-01  8.2207586098276D-01 -2.3141866816692D-01
28  2.7000000000000D-01  8.7195688099175D-01 -2.4077666991647D-01
29  2.8000000000000D-01  9.2165265476379D-01 -2.4924041737648D-01
30  2.9000000000000D-01  9.7097220029050D-01 -2.5669613285218D-01
31  3.0000000000000D-01  1.0197244895754D+00 -2.6303073519793D-01
32  3.1000000000000D-01  1.0677191338915D+00 -2.6813240212483D-01
33  3.2000000000000D-01  1.1147670788827D+00 -2.7189115003581D-01
34  3.3000000000000D-01  1.1606813071647D+00 -2.7419942922245D-01
35  3.4000000000000D-01  1.2052775459255D+00 -2.7495273198587D-01
36  3.5000000000000D-01  1.2483749768785D+00 -2.7405021097759D-01
37  3.6000000000000D-01  1.2897969457799D+00 -2.7139530479856D-01
38  3.7000000000000D-01  1.3293716685969D+00 -2.6689636764762D-01
39  3.8000000000000D-01  1.3669329312895D+00 -2.6046729957941D-01
40  3.9000000000000D-01  1.4023207800715D+00 -2.5202817371666D-01
41  4.0000000000000D-01  1.4353821989220D+00 -2.4150585656786D-01
42  4.1000000000000D-01  1.4659717710498D+00 -2.2883461743028D-01
43  4.2000000000000D-01  1.4939523209592D+00 -2.1395672271297D-01