In    ONCVPSP  r_core=  1.60  1.60  1.70
49.0000     21.0000      161219    zatom,zion,pspd
8 -116133   2     4   600     0    pspcod,pspxc,lmax,lloc,mmax,r2well
5.99000000  5.00000000  0.00000000    rchrg fchrg qchrg
2     2     2     0     0    nproj
1                 extension_switch
0                         8.3935245621084D+00 -5.5295611935140D-01
1  0.0000000000000D+00  9.0322527235287D-11  5.6934715275681D-10
2  1.0000000000000D-02  8.9288441469175D-02  6.6286112869040D-03
3  2.0000000000000D-02  1.7833173168089D-01  1.3313145873072D-02
4  3.0000000000000D-02  2.6688541457069D-01  2.0108731845472D-02
5  4.0000000000000D-02  3.5470642390588D-01  2.7068918140002D-02
6  5.0000000000000D-02  4.4155377679210D-01  3.4244913003020D-02
7  6.0000000000000D-02  5.2718926542330D-01  4.1684855688269D-02
8  7.0000000000000D-02  6.1137814638140D-01  4.9433131791166D-02
9  8.0000000000000D-02  6.9388982670159D-01  5.7529742053085D-02
10  9.0000000000000D-02  7.7449854580947D-01  6.6009733769693D-02
11  1.0000000000000D-01  8.5298405230810D-01  7.4902703117894D-02
12  1.1000000000000D-01  9.2913227444974D-01  8.4232375785740D-02
13  1.2000000000000D-01  1.0027359829704D+00  9.4016272259657D-02
14  1.3000000000000D-01  1.0735954447983D+00  1.0426546300668D-01
15  1.4000000000000D-01  1.1415190659735D+00  1.1498441759894D-01
16  1.5000000000000D-01  1.2063240219356D+00  1.2617095057900D-01
17  1.6000000000000D-01  1.2678368731598D+00  1.3781626557186D-01
18  1.7000000000000D-01  1.3258941639417D+00  1.4990509782997D-01
19  1.8000000000000D-01  1.3803430019617D+00  1.6241595406650D-01
20  1.9000000000000D-01  1.4310416160990D+00  1.7532144710646D-01
21  2.0000000000000D-01  1.4778598898146D+00  1.8858872158214D-01
22  2.1000000000000D-01  1.5206798672939D+00  2.0217996563399D-01
23  2.2000000000000D-01  1.5593962294239D+00  2.1605300236791D-01
24  2.3000000000000D-01  1.5939167365936D+00  2.3016195367936D-01
25  2.4000000000000D-01  1.6241626352413D+00  2.4445796799895D-01
26  2.5000000000000D-01  1.6500690250370D+00  2.5889000255722D-01
27  2.6000000000000D-01  1.6715851835856D+00  2.7340564992074D-01
28  2.7000000000000D-01  1.6886748455643D+00  2.8795199782859D-01
29  2.8000000000000D-01  1.7013164332705D+00  3.0247651076841D-01
30  2.9000000000000D-01  1.7095032356578D+00  3.1692792128313D-01
31  3.0000000000000D-01  1.7132435330725D+00  3.3125711869920D-01
32  3.1000000000000D-01  1.7125606650762D+00  3.4541802282129D-01
33  3.2000000000000D-01  1.7074930389538D+00  3.5936843014896D-01
34  3.3000000000000D-01  1.6980940767492D+00  3.7307082034056D-01
35  3.4000000000000D-01  1.6844320989611D+00  3.8649311097725D-01
36  3.5000000000000D-01  1.6665901433436D+00  3.9960934916376D-01
37  3.6000000000000D-01  1.6446657176122D+00  4.1240032913788D-01
38  3.7000000000000D-01  1.6187704852349D+00  4.2485412584227D-01
39  3.8000000000000D-01  1.5890298838994D+00  4.3696653533068D-01
40  3.9000000000000D-01  1.5555826766797D+00  4.4874141392874D-01
41  4.0000000000000D-01  1.5185804363825D+00  4.6019090923296D-01
42  4.1000000000000D-01  1.4781869640258D+00  4.7133557730057D-01
43  4.2000000000000D-01  1.4345776428875D+00  4.8220438174095D-01
44  4.3000000000000D-01  1.3879387300559D+00  4.9283457185179D-01
45  4.4000000000000D-01  1.3384665879136D+00  5.0327143843475D-01
46  4.5000000000000D-01  1.2863668584815D+00  5.1356794745521D-01
47  4.6000000000000D-01  1.2318535840431D+00  5.2378425326549D-01
48  4.7000000000000D-01  1.1751482779473D+00  5.3398709466710D-01
49  4.8000000000000D-01  1.1164789499532D+00  5.4424907863018D-01
50  4.9000000000000D-01  1.0560790909238D+00  5.5464785799583D-01
51  5.0000000000000D-01  9.9418662208986D-01  5.6526521094205D-01
52  5.1000000000000D-01  9.3104281449250D-01  5.7618603137729D-01
53  5.2000000000000D-01  8.6689118456195D-01  5.8749724072030D-01
54  5.3000000000000D-01  8.0197637209930D-01  5.9928663271337D-01
55  5.4000000000000D-01  7.3654300719360D-01  6.1164166398178D-01
56  5.5000000000000D-01  6.7083457282411D-01  6.2464820398271D-01
57  5.6000000000000D-01  6.0509227006372D-01  6.3838925876681D-01
58  5.7000000000000D-01  5.3955389291157D-01  6.5294368359331D-01
59  5.8000000000000D-01  4.7445271983925D-01  6.6838489988810D-01
60  5.9000000000000D-01  4.1001642913234D-01  6.8477963230158D-01
61  6.0000000000000D-01  3.4646604504764D-01  7.0218668170660D-01
62  6.1000000000000D-01  2.8401492168481D-01  7.2065574987170D-01
63  6.2000000000000D-01  2.2286777128946D-01  7.4022633124910D-01
64  6.3000000000000D-01  1.6321974346297D-01  7.6092668683081D-01
65  6.4000000000000D-01  1.0525556145600D-01  7.8277291435759D-01
66  6.5000000000000D-01  4.9148721365038D-02  8.0576812830889D-01
67  6.6000000000000D-01 -4.9392403585281D-03  8.2990176207703D-01
68  6.7000000000000D-01 -5.6859406137356D-02  8.5514900354126D-01
69  6.8000000000000D-01 -1.0647605879708D-01  8.8147037390900D-01
70  6.9000000000000D-01 -1.5366718150849D-01  9.0881145821315D-01
71  7.0000000000000D-01 -1.9832487284739D-01  9.3710279425104D-01
72  7.1000000000000D-01 -2.4035567430241D-01  9.6625992503908D-01
73  7.2000000000000D-01 -2.7968080821547D-01  9.9618361805858D-01
74  7.3000000000000D-01 -3.1623632481495D-01  1.0267602527065D+00
75  7.4000000000000D-01 -3.4997315769562D-01  1.0578623754520D+00
76  7.5000000000000D-01 -3.8085708780105D-01  1.0893494202692D+00
77  7.6000000000000D-01 -4.0886861667176D-01  1.1210685899783D+00
78  7.7000000000000D-01 -4.3400275042654D-01  1.1528558922102D+00
79  7.8000000000000D-01 -4.5626869663684D-01  1.1845373218458D+00
80  7.9000000000000D-01 -4.7568947693309D-01  1.2159301799708D+00
81  8.0000000000000D-01 -4.9230145883550D-01  1.2468445176758D+00
82  8.1000000000000D-01 -5.0615381092838D-01  1.2770846914252D+00
83  8.2000000000000D-01 -5.1730788608664D-01  1.3064510152443D+00
84  8.3000000000000D-01 -5.2583653801292D-01  1.3347414936474D+00
85  8.4000000000000D-01 -5.3182337684624D-01  1.3617536180745D+00
86  8.5000000000000D-01 -5.3536197005478D-01  1.3872862086257D+00
87  8.6000000000000D-01 -5.3655499522097D-01  1.4111412821036D+00
88  8.7000000000000D-01 -5.3551335166273D-01  1.4331259268040D+00
89  8.8000000000000D-01 -5.3235523810804D-01  1.4530541641397D+00
90  8.9000000000000D-01 -5.2720520384667D-01  1.4707487770501D+00
91  9.0000000000000D-01 -5.2019318092280D-01  1.4860430852511D+00
92  9.1000000000000D-01 -5.1145350500249D-01  1.4987826477017D+00
93  9.2000000000000D-01 -5.0112393255121D-01  1.5088268732235D+00
94  9.3000000000000D-01 -4.8934466188788D-01  1.5160505209871D+00
95  9.4000000000000D-01 -4.7625736554499D-01  1.5203450735782D+00
96  9.5000000000000D-01 -4.6200424116048D-01  1.5216199665630D+00
97  9.6000000000000D-01 -4.4672708785795D-01  1.5198036598764D+00
98  9.7000000000000D-01 -4.3056641474296D-01  1.5148445379379D+00
99  9.8000000000000D-01 -4.1366058774827D-01  1.5067116271764D+00
100  9.9000000000000D-01 -3.9614502063006D-01  1.4953951214979D+00
101  1.0000000000000D+00 -3.7815141541557D-01  1.4809067082983D+00
102  1.0100000000000D+00 -3.5980705706901D-01  1.4632796897435D+00
103  1.0200000000000D+00 -3.4123416657180D-01  1.4425688962414D+00
104  1.0300000000000D+00 -3.2254931600708D-01  1.4188503912985D+00
105  1.0400000000000D+00 -3.0386290860179D-01  1.3922209692696D+00
106  1.0500000000000D+00 -2.8527872603154D-01  1.3627974497976D+00
107  1.0600000000000D+00 -2.6689354465432D-01  1.3307157749461D+00
108  1.0700000000000D+00 -2.4879682162637D-01  1.2961299174055D+00
109  1.0800000000000D+00 -2.3107045123005D-01  1.2592106101582D+00
110  1.0900000000000D+00 -2.1378859105876D-01  1.2201439101326D+00
111  1.1000000000000D+00 -1.9701755708286D-01  1.1791296102248D+00
112  1.1100000000000D+00 -1.8081578601578D-01  1.1363795158200D+00
113  1.1200000000000D+00 -1.6523386275685D-01  1.0921156036761D+00
114  1.1300000000000D+00 -1.5031461018349D-01  1.0465680822985D+00
115  1.1400000000000D+00 -1.3609323800972D-01  9.9997337420180D-01
116  1.1500000000000D+00 -1.2259754703644D-01  9.5257204131631D-01
117  1.1600000000000D+00 -1.0984818457423D-01  9.0460667574307D-01
118  1.1700000000000D+00 -9.7858946541154D-02  8.5631977834902D-01
119  1.1800000000000D+00 -8.6637121408489D-02  8.0795164794673D-01
120  1.1900000000000D+00 -7.6183870911853D-02  7.5973830391801D-01
121  1.2000000000000D+00 -6.6494642214523D-02  7.1190946474326D-01
122  1.2100000000000D+00 -5.7559606137251D-02  6.6468660415377D-01
123  1.2200000000000D+00 -4.9364115969317D-02  6.1828110635653D-01
124  1.2300000000000D+00 -4.1889181339227D-02  5.7289254027324D-01
125  1.2400000000000D+00 -3.5111951747507D-02  5.2870707135503D-01
126  1.2500000000000D+00 -2.9006204408939D-02  4.8589602857985D-01
127  1.2600000000000D+00 -2.3542831199986D-02  4.4461464234372D-01
128  1.2700000000000D+00 -1.8690319855563D-02  4.0500096635000D-01
129  1.2800000000000D+00 -1.4415224686104D-02  3.6717499563400D-01
130  1.2900000000000D+00 -1.0682622374141D-02  3.3123799053365D-01
131  1.3000000000000D+00 -7.4565490342187D-03  2.9727201263563D-01
132  1.3100000000000D+00 -4.7004147538623D-03  2.6533967852304D-01
133  1.3200000000000D+00 -2.3773923660676D-03  2.3548413375771D-01
134  1.3300000000000D+00 -4.5077799721618D-04  2.0772924539919D-01
135  1.3400000000000D+00  1.1156793042281D-03  1.8208001254490D-01
136  1.3500000000000D+00  2.3574805186213D-03  1.5852318877678D-01
137  1.3600000000000D+00  3.3091132352585D-03  1.3702810776519D-01
138  1.3700000000000D+00  4.0038234485063D-03  1.1754770552730D-01
139  1.3800000000000D+00  4.4734222392871D-03  1.0001972387018D-01
140  1.3900000000000D+00  4.7481276553761D-03  8.4368082833659D-02
141  1.4000000000000D+00  4.8564414756534D-03  7.0504406644868D-02
142  1.4100000000000D+00  4.8250593641919D-03  5.8329683348138D-02
143  1.4200000000000D+00  4.6788138943592D-03  4.7736041872848D-02
144  1.4300000000000D+00  4.4406481777010D-03  3.8608623643758D-02
145  1.4400000000000D+00  4.1316184312380D-03  3.0827528706237D-02
146  1.4500000000000D+00  3.7709233665010D-03  2.4269813750732D-02
147  1.4600000000000D+00  3.3759584750836D-03  1.8811522970482D-02
148  1.4700000000000D+00  2.9623880667773D-03  1.4329707985309D-02
149  1.4800000000000D+00  2.5442510856335D-03  1.0704493023541D-02
150  1.4900000000000D+00  2.1340315702654D-03  7.8208924778295D-03
151  1.5000000000000D+00  1.7427976287938D-03  5.5707834315082D-03
152  1.5100000000000D+00  1.3805396574288D-03  3.8556024035047D-03
153  1.5200000000000D+00  1.0557725642002D-03  2.5858245703987D-03
154  1.5300000000000D+00  7.7507138549044D-04  1.6800198660517D-03
155  1.5400000000000D+00  5.4258138715983D-04  1.0638652337985D-03
156  1.5500000000000D+00  3.5958460602089D-04  6.6936413266266D-04
157  1.5600000000000D+00  2.2465239519770D-04  4.3580714397952D-04
158  1.5700000000000D+00  1.3323296897049D-04  3.0855249793882D-04
159  1.5800000000000D+00  8.0187946118987D-05  2.5240191124098D-04
160  1.5900000000000D+00  5.9978991144336D-05  2.5022416073569D-04
161  1.6000000000000D+00  5.2129781439411D-05  2.3952528580334D-04
162  1.6100000000000D+00  3.0837460453157D-05  1.4339352636059D-04
163  1.6200000000000D+00  3.9277288413061D-06  1.8177598390809D-05
164  1.6300000000000D+00 -5.0414052589426D-06 -2.3982223408019D-05
165  1.6400000000000D+00 -8.2612638593657D-07 -3.9355252575971D-06
166  1.6500000000000D+00  1.1153281437058D-06  5.3548583800319D-06
167  1.6600000000000D+00  1.5760061045629D-07  7.5850521283970D-07
168  1.6700000000000D+00 -1.3879324589155D-07 -6.4032197438638D-07
169  1.6800000000000D+00 -1.9151182916805D-08 -8.8353890553908D-08
170  1.6900000000000D+00  0.0000000000000D+00  0.0000000000000D+00
171  1.7000000000000D+00  0.0000000000000D+00  0.0000000000000D+00
172  1.7100000000000D+00  0.0000000000000D+00  0.0000000000000D+00
173  1.7200000000000D+00  0.0000000000000D+00  0.0000000000000D+00
174  1.7300000000000D+00  0.0000000000000D+00  0.0000000000000D+00
175  1.7400000000000D+00  0.0000000000000D+00  0.0000000000000D+00
176  1.7500000000000D+00  0.0000000000000D+00  0.0000000000000D+00
177  1.7600000000000D+00  0.0000000000000D+00  0.0000000000000D+00
178  1.7700000000000D+00  0.0000000000000D+00  0.0000000000000D+00
179  1.7800000000000D+00  0.0000000000000D+00  0.0000000000000D+00
180  1.7900000000000D+00  0.0000000000000D+00  0.0000000000000D+00
181  1.8000000000000D+00  0.0000000000000D+00  0.0000000000000D+00
182  1.8100000000000D+00  0.0000000000000D+00  0.0000000000000D+00
183  1.8200000000000D+00  0.0000000000000D+00  0.0000000000000D+00
184  1.8300000000000D+00  0.0000000000000D+00  0.0000000000000D+00
185  1.8400000000000D+00  0.0000000000000D+00  0.0000000000000D+00
186  1.8500000000000D+00  0.0000000000000D+00  0.0000000000000D+00
187  1.8600000000000D+00  0.0000000000000D+00  0.0000000000000D+00
188  1.8700000000000D+00  0.0000000000000D+00  0.0000000000000D+00
189  1.8800000000000D+00  0.0000000000000D+00  0.0000000000000D+00
190  1.8900000000000D+00  0.0000000000000D+00  0.0000000000000D+00
191  1.9000000000000D+00  0.0000000000000D+00  0.0000000000000D+00
192  1.9100000000000D+00  0.0000000000000D+00  0.0000000000000D+00
193  1.9200000000000D+00  0.0000000000000D+00  0.0000000000000D+00
194  1.9300000000000D+00  0.0000000000000D+00  0.0000000000000D+00
195  1.9400000000000D+00  0.0000000000000D+00  0.0000000000000D+00
196  1.9500000000000D+00  0.0000000000000D+00  0.0000000000000D+00
197  1.9600000000000D+00  0.0000000000000D+00  0.0000000000000D+00
198  1.9700000000000D+00  0.0000000000000D+00  0.0000000000000D+00
199  1.9800000000000D+00  0.0000000000000D+00  0.0000000000000D+00
200  1.9900000000000D+00  0.0000000000000D+00  0.0000000000000D+00
201  2.0000000000000D+00  0.0000000000000D+00  0.0000000000000D+00
202  2.0100000000000D+00  0.0000000000000D+00  0.0000000000000D+00
203  2.0200000000000D+00  0.0000000000000D+00  0.0000000000000D+00
204  2.0300000000000D+00  0.0000000000000D+00  0.0000000000000D+00
205  2.0400000000000D+00  0.0000000000000D+00  0.0000000000000D+00
206  2.0500000000000D+00  0.0000000000000D+00  0.0000000000000D+00
207  2.0600000000000D+00  0.0000000000000D+00  0.0000000000000D+00
208  2.0700000000000D+00  0.0000000000000D+00  0.0000000000000D+00
209  2.0800000000000D+00  0.0000000000000D+00  0.0000000000000D+00
210  2.0900000000000D+00  0.0000000000000D+00  0.0000000000000D+00
211  2.1000000000000D+00  0.0000000000000D+00  0.0000000000000D+00
212  2.1100000000000D+00  0.0000000000000D+00  0.0000000000000D+00
213  2.1200000000000D+00  0.0000000000000D+00  0.0000000000000D+00
214  2.1300000000000D+00  0.0000000000000D+00  0.0000000000000D+00
215  2.1400000000000D+00  0.0000000000000D+00  0.0000000000000D+00
216  2.1500000000000D+00  0.0000000000000D+00  0.0000000000000D+00
217  2.1600000000000D+00  0.0000000000000D+00  0.0000000000000D+00
218  2.1700000000000D+00  0.0000000000000D+00  0.0000000000000D+00
219  2.1800000000000D+00  0.0000000000000D+00  0.0000000000000D+00
220  2.1900000000000D+00  0.0000000000000D+00  0.0000000000000D+00
221  2.2000000000000D+00  0.0000000000000D+00  0.0000000000000D+00
222  2.2100000000000D+00  0.0000000000000D+00  0.0000000000000D+00
223  2.2200000000000D+00  0.0000000000000D+00  0.0000000000000D+00
224  2.2300000000000D+00  0.0000000000000D+00  0.0000000000000D+00
225  2.2400000000000D+00  0.0000000000000D+00  0.0000000000000D+00
226  2.2500000000000D+00  0.0000000000000D+00  0.0000000000000D+00
227  2.2600000000000D+00  0.0000000000000D+00  0.0000000000000D+00
228  2.2700000000000D+00  0.0000000000000D+00  0.0000000000000D+00
229  2.2800000000000D+00  0.0000000000000D+00  0.0000000000000D+00
230  2.2900000000000D+00  0.0000000000000D+00  0.0000000000000D+00
231  2.3000000000000D+00  0.0000000000000D+00  0.0000000000000D+00
232  2.3100000000000D+00  0.0000000000000D+00  0.0000000000000D+00
233  2.3200000000000D+00  0.0000000000000D+00  0.0000000000000D+00
234  2.3300000000000D+00  0.0000000000000D+00  0.0000000000000D+00
235  2.3400000000000D+00  0.0000000000000D+00  0.0000000000000D+00
236  2.3500000000000D+00  0.0000000000000D+00  0.0000000000000D+00
237  2.3600000000000D+00  0.0000000000000D+00  0.0000000000000D+00
238  2.3700000000000D+00  0.0000000000000D+00  0.0000000000000D+00
239  2.3800000000000D+00  0.0000000000000D+00  0.0000000000000D+00
240  2.3900000000000D+00  0.0000000000000D+00  0.0000000000000D+00
241  2.4000000000000D+00  0.0000000000000D+00  0.0000000000000D+00
242  2.4100000000000D+00  0.0000000000000D+00  0.0000000000000D+00
243  2.4200000000000D+00  0.0000000000000D+00  0.0000000000000D+00
244  2.4300000000000D+00  0.0000000000000D+00  0.0000000000000D+00
245  2.4400000000000D+00  0.0000000000000D+00  0.0000000000000D+00
246  2.4500000000000D+00  0.0000000000000D+00  0.0000000000000D+00
247  2.4600000000000D+00  0.0000000000000D+00  0.0000000000000D+00
248  2.4700000000000D+00  0.0000000000000D+00  0.0000000000000D+00
249  2.4800000000000D+00  0.0000000000000D+00  0.0000000000000D+00
250  2.4900000000000D+00  0.0000000000000D+00  0.0000000000000D+00
251  2.5000000000000D+00  0.0000000000000D+00  0.0000000000000D+00
252  2.5100000000000D+00  0.0000000000000D+00  0.0000000000000D+00
253  2.5200000000000D+00  0.0000000000000D+00  0.0000000000000D+00
254  2.5300000000000D+00  0.0000000000000D+00  0.0000000000000D+00
255  2.5400000000000D+00  0.0000000000000D+00  0.0000000000000D+00
256  2.5500000000000D+00  0.0000000000000D+00  0.0000000000000D+00
257  2.5600000000000D+00  0.0000000000000D+00  0.0000000000000D+00
258  2.5700000000000D+00  0.0000000000000D+00  0.0000000000000D+00
259  2.5800000000000D+00  0.0000000000000D+00  0.0000000000000D+00
260  2.5900000000000D+00  0.0000000000000D+00  0.0000000000000D+00
261  2.6000000000000D+00  0.0000000000000D+00  0.0000000000000D+00
262  2.6100000000000D+00  0.0000000000000D+00  0.0000000000000D+00
263  2.6200000000000D+00  0.0000000000000D+00  0.0000000000000D+00
264  2.6300000000000D+00  0.0000000000000D+00  0.0000000000000D+00
265  2.6400000000000D+00  0.0000000000000D+00  0.0000000000000D+00
266  2.6500000000000D+00  0.0000000000000D+00  0.0000000000000D+00
267  2.6600000000000D+00  0.0000000000000D+00  0.0000000000000D+00
268  2.6700000000000D+00  0.0000000000000D+00  0.0000000000000D+00
269  2.6800000000000D+00  0.0000000000000D+00  0.0000000000000D+00
270  2.6900000000000D+00  0.0000000000000D+00  0.0000000000000D+00
271  2.7000000000000D+00  0.0000000000000D+00  0.0000000000000D+00
272  2.7100000000000D+00  0.0000000000000D+00  0.0000000000000D+00
273  2.7200000000000D+00  0.0000000000000D+00  0.0000000000000D+00
274  2.7300000000000D+00  0.0000000000000D+00  0.0000000000000D+00
275  2.7400000000000D+00  0.0000000000000D+00  0.0000000000000D+00
276  2.7500000000000D+00  0.0000000000000D+00  0.0000000000000D+00
277  2.7600000000000D+00  0.0000000000000D+00  0.0000000000000D+00
278  2.7700000000000D+00  0.0000000000000D+00  0.0000000000000D+00
279  2.7800000000000D+00  0.0000000000000D+00  0.0000000000000D+00
280  2.7900000000000D+00  0.0000000000000D+00  0.0000000000000D+00
281  2.8000000000000D+00  0.0000000000000D+00  0.0000000000000D+00
282  2.8100000000000D+00  0.0000000000000D+00  0.0000000000000D+00
283  2.8200000000000D+00  0.0000000000000D+00  0.0000000000000D+00
284  2.8300000000000D+00  0.0000000000000D+00  0.0000000000000D+00
285  2.8400000000000D+00  0.0000000000000D+00  0.0000000000000D+00
286  2.8500000000000D+00  0.0000000000000D+00  0.0000000000000D+00
287  2.8600000000000D+00  0.0000000000000D+00  0.0000000000000D+00
288  2.8700000000000D+00  0.0000000000000D+00  0.0000000000000D+00
289  2.8800000000000D+00  0.0000000000000D+00  0.0000000000000D+00
290  2.8900000000000D+00  0.0000000000000D+00  0.0000000000000D+00
291  2.9000000000000D+00  0.0000000000000D+00  0.0000000000000D+00
292  2.9100000000000D+00  0.0000000000000D+00  0.0000000000000D+00
293  2.9200000000000D+00  0.0000000000000D+00  0.0000000000000D+00
294  2.9300000000000D+00  0.0000000000000D+00  0.0000000000000D+00
295  2.9400000000000D+00  0.0000000000000D+00  0.0000000000000D+00
296  2.9500000000000D+00  0.0000000000000D+00  0.0000000000000D+00
297  2.9600000000000D+00  0.0000000000000D+00  0.0000000000000D+00
298  2.9700000000000D+00  0.0000000000000D+00  0.0000000000000D+00
299  2.9800000000000D+00  0.0000000000000D+00  0.0000000000000D+00
300  2.9900000000000D+00  0.0000000000000D+00  0.0000000000000D+00
301  3.0000000000000D+00  0.0000000000000D+00  0.0000000000000D+00
302  3.0100000000000D+00  0.0000000000000D+00  0.0000000000000D+00
303  3.0200000000000D+00  0.0000000000000D+00  0.0000000000000D+00
304  3.0300000000000D+00  0.0000000000000D+00  0.0000000000000D+00
305  3.0400000000000D+00  0.0000000000000D+00  0.0000000000000D+00
306  3.0500000000000D+00  0.0000000000000D+00  0.0000000000000D+00
307  3.0600000000000D+00  0.0000000000000D+00  0.0000000000000D+00
308  3.0700000000000D+00  0.0000000000000D+00  0.0000000000000D+00
309  3.0800000000000D+00  0.0000000000000D+00  0.0000000000000D+00
310  3.0900000000000D+00  0.0000000000000D+00  0.0000000000000D+00
311  3.1000000000000D+00  0.0000000000000D+00  0.0000000000000D+00
312  3.1100000000000D+00  0.0000000000000D+00  0.0000000000000D+00
313  3.1200000000000D+00  0.0000000000000D+00  0.0000000000000D+00
314  3.1300000000000D+00  0.0000000000000D+00  0.0000000000000D+00
315  3.1400000000000D+00  0.0000000000000D+00  0.0000000000000D+00
316  3.1500000000000D+00  0.0000000000000D+00  0.0000000000000D+00
317  3.1600000000000D+00  0.0000000000000D+00  0.0000000000000D+00
318  3.1700000000000D+00  0.0000000000000D+00  0.0000000000000D+00
319  3.1800000000000D+00  0.0000000000000D+00  0.0000000000000D+00
320  3.1900000000000D+00  0.0000000000000D+00  0.0000000000000D+00
321  3.2000000000000D+00  0.0000000000000D+00  0.0000000000000D+00
322  3.2100000000000D+00  0.0000000000000D+00  0.0000000000000D+00
323  3.2200000000000D+00  0.0000000000000D+00  0.0000000000000D+00
324  3.2300000000000D+00  0.0000000000000D+00  0.0000000000000D+00
325  3.2400000000000D+00  0.0000000000000D+00  0.0000000000000D+00
326  3.2500000000000D+00  0.0000000000000D+00  0.0000000000000D+00
327  3.2600000000000D+00  0.0000000000000D+00  0.0000000000000D+00
328  3.2700000000000D+00  0.0000000000000D+00  0.0000000000000D+00
329  3.2800000000000D+00  0.0000000000000D+00  0.0000000000000D+00
330  3.2900000000000D+00  0.0000000000000D+00  0.0000000000000D+00
331  3.3000000000000D+00  0.0000000000000D+00  0.0000000000000D+00
332  3.3100000000000D+00  0.0000000000000D+00  0.0000000000000D+00
333  3.3200000000000D+00  0.0000000000000D+00  0.0000000000000D+00
334  3.3300000000000D+00  0.0000000000000D+00  0.0000000000000D+00
335  3.3400000000000D+00  0.0000000000000D+00  0.0000000000000D+00
336  3.3500000000000D+00  0.0000000000000D+00  0.0000000000000D+00
337  3.3600000000000D+00  0.0000000000000D+00  0.0000000000000D+00
338  3.3700000000000D+00  0.0000000000000D+00  0.0000000000000D+00
339  3.3800000000000D+00  0.0000000000000D+00  0.0000000000000D+00
340  3.3900000000000D+00  0.0000000000000D+00  0.0000000000000D+00
341  3.4000000000000D+00  0.0000000000000D+00  0.0000000000000D+00
342  3.4100000000000D+00  0.0000000000000D+00  0.0000000000000D+00
343  3.4200000000000D+00  0.0000000000000D+00  0.0000000000000D+00
344  3.4300000000000D+00  0.0000000000000D+00  0.0000000000000D+00
345  3.4400000000000D+00  0.0000000000000D+00  0.0000000000000D+00
346  3.4500000000000D+00  0.0000000000000D+00  0.0000000000000D+00
347  3.4600000000000D+00  0.0000000000000D+00  0.0000000000000D+00
348  3.4700000000000D+00  0.0000000000000D+00  0.0000000000000D+00
349  3.4800000000000D+00  0.0000000000000D+00  0.0000000000000D+00
350  3.4900000000000D+00  0.0000000000000D+00  0.0000000000000D+00
351  3.5000000000000D+00  0.0000000000000D+00  0.0000000000000D+00
352  3.5100000000000D+00  0.0000000000000D+00  0.0000000000000D+00
353  3.5200000000000D+00  0.0000000000000D+00  0.0000000000000D+00
354  3.5300000000000D+00  0.0000000000000D+00  0.0000000000000D+00
355  3.5400000000000D+00  0.0000000000000D+00  0.0000000000000D+00
356  3.5500000000000D+00  0.0000000000000D+00  0.0000000000000D+00
357  3.5600000000000D+00  0.0000000000000D+00  0.0000000000000D+00
358  3.5700000000000D+00  0.0000000000000D+00  0.0000000000000D+00
359  3.5800000000000D+00  0.0000000000000D+00  0.0000000000000D+00
360  3.5900000000000D+00  0.0000000000000D+00  0.0000000000000D+00
361  3.6000000000000D+00  0.0000000000000D+00  0.0000000000000D+00
362  3.6100000000000D+00  0.0000000000000D+00  0.0000000000000D+00
363  3.6200000000000D+00  0.0000000000000D+00  0.0000000000000D+00
364  3.6300000000000D+00  0.0000000000000D+00  0.0000000000000D+00
365  3.6400000000000D+00  0.0000000000000D+00  0.0000000000000D+00
366  3.6500000000000D+00  0.0000000000000D+00  0.0000000000000D+00
367  3.6600000000000D+00  0.0000000000000D+00  0.0000000000000D+00
368  3.6700000000000D+00  0.0000000000000D+00  0.0000000000000D+00
369  3.6800000000000D+00  0.0000000000000D+00  0.0000000000000D+00
370  3.6900000000000D+00  0.0000000000000D+00  0.0000000000000D+00
371  3.7000000000000D+00  0.0000000000000D+00  0.0000000000000D+00
372  3.7100000000000D+00  0.0000000000000D+00  0.0000000000000D+00
373  3.7200000000000D+00  0.0000000000000D+00  0.0000000000000D+00
374  3.7300000000000D+00  0.0000000000000D+00  0.0000000000000D+00
375  3.7400000000000D+00  0.0000000000000D+00  0.0000000000000D+00
376  3.7500000000000D+00  0.0000000000000D+00  0.0000000000000D+00
377  3.7600000000000D+00  0.0000000000000D+00  0.0000000000000D+00
378  3.7700000000000D+00  0.0000000000000D+00  0.0000000000000D+00
379  3.7800000000000D+00  0.0000000000000D+00  0.0000000000000D+00
380  3.7900000000000D+00  0.0000000000000D+00  0.0000000000000D+00
381  3.8000000000000D+00  0.0000000000000D+00  0.0000000000000D+00
382  3.8100000000000D+00  0.0000000000000D+00  0.0000000000000D+00
383  3.8200000000000D+00  0.0000000000000D+00  0.0000000000000D+00
384  3.8300000000000D+00  0.0000000000000D+00  0.0000000000000D+00
385  3.8400000000000D+00  0.0000000000000D+00  0.0000000000000D+00
386  3.8500000000000D+00  0.0000000000000D+00  0.0000000000000D+00
387  3.8600000000000D+00  0.0000000000000D+00  0.0000000000000D+00
388  3.8700000000000D+00  0.0000000000000D+00  0.0000000000000D+00
389  3.8800000000000D+00  0.0000000000000D+00  0.0000000000000D+00
390  3.8900000000000D+00  0.0000000000000D+00  0.0000000000000D+00
391  3.9000000000000D+00  0.0000000000000D+00  0.0000000000000D+00
392  3.9100000000000D+00  0.0000000000000D+00  0.0000000000000D+00
393  3.9200000000000D+00  0.0000000000000D+00  0.0000000000000D+00
394  3.9300000000000D+00  0.0000000000000D+00  0.0000000000000D+00
395  3.9400000000000D+00  0.0000000000000D+00  0.0000000000000D+00
396  3.9500000000000D+00  0.0000000000000D+00  0.0000000000000D+00
397  3.9600000000000D+00  0.0000000000000D+00  0.0000000000000D+00
398  3.9700000000000D+00  0.0000000000000D+00  0.0000000000000D+00
399  3.9800000000000D+00  0.0000000000000D+00  0.0000000000000D+00
400  3.9900000000000D+00  0.0000000000000D+00  0.0000000000000D+00
401  4.0000000000000D+00  0.0000000000000D+00  0.0000000000000D+00
402  4.0100000000000D+00  0.0000000000000D+00  0.0000000000000D+00
403  4.0200000000000D+00  0.0000000000000D+00  0.0000000000000D+00
404  4.0300000000000D+00  0.0000000000000D+00  0.0000000000000D+00
405  4.0400000000000D+00  0.0000000000000D+00  0.0000000000000D+00
406  4.0500000000000D+00  0.0000000000000D+00  0.0000000000000D+00
407  4.0600000000000D+00  0.0000000000000D+00  0.0000000000000D+00
408  4.0700000000000D+00  0.0000000000000D+00  0.0000000000000D+00
409  4.0800000000000D+00  0.0000000000000D+00  0.0000000000000D+00
410  4.0900000000000D+00  0.0000000000000D+00  0.0000000000000D+00
411  4.1000000000000D+00  0.0000000000000D+00  0.0000000000000D+00
412  4.1100000000000D+00  0.0000000000000D+00  0.0000000000000D+00
413  4.1200000000000D+00  0.0000000000000D+00  0.0000000000000D+00
414  4.1300000000000D+00  0.0000000000000D+00  0.0000000000000D+00
415  4.1400000000000D+00  0.0000000000000D+00  0.0000000000000D+00
416  4.1500000000000D+00  0.0000000000000D+00  0.0000000000000D+00
417  4.1600000000000D+00  0.0000000000000D+00  0.0000000000000D+00
418  4.1700000000000D+00  0.0000000000000D+00  0.0000000000000D+00
419  4.1800000000000D+00  0.0000000000000D+00  0.0000000000000D+00
420  4.1900000000000D+00  0.0000000000000D+00  0.0000000000000D+00
421  4.2000000000000D+00  0.0000000000000D+00  0.0000000000000D+00
422  4.2100000000000D+00  0.0000000000000D+00  0.0000000000000D+00
423  4.2200000000000D+00  0.0000000000000D+00  0.0000000000000D+00
424  4.2300000000000D+00  0.0000000000000D+00  0.0000000000000D+00
425  4.2400000000000D+00  0.0000000000000D+00  0.0000000000000D+00
426  4.2500000000000D+00  0.0000000000000D+00  0.0000000000000D+00
427  4.2600000000000D+00  0.0000000000000D+00  0.0000000000000D+00
428  4.2700000000000D+00  0.0000000000000D+00  0.0000000000000D+00
429  4.2800000000000D+00  0.0000000000000D+00  0.0000000000000D+00
430  4.2900000000000D+00  0.0000000000000D+00  0.0000000000000D+00
431  4.3000000000000D+00  0.0000000000000D+00  0.0000000000000D+00
432  4.3100000000000D+00  0.0000000000000D+00  0.0000000000000D+00
433  4.3200000000000D+00  0.0000000000000D+00  0.0000000000000D+00
434  4.3300000000000D+00  0.0000000000000D+00  0.0000000000000D+00
435  4.3400000000000D+00  0.0000000000000D+00  0.0000000000000D+00
436  4.3500000000000D+00  0.0000000000000D+00  0.0000000000000D+00
437  4.3600000000000D+00  0.0000000000000D+00  0.0000000000000D+00
438  4.3700000000000D+00  0.0000000000000D+00  0.0000000000000D+00
439  4.3800000000000D+00  0.0000000000000D+00  0.0000000000000D+00
440  4.3900000000000D+00  0.0000000000000D+00  0.0000000000000D+00
441  4.4000000000000D+00  0.0000000000000D+00  0.0000000000000D+00
442  4.4100000000000D+00  0.0000000000000D+00  0.0000000000000D+00
443  4.4200000000000D+00  0.0000000000000D+00  0.0000000000000D+00
444  4.4300000000000D+00  0.0000000000000D+00  0.0000000000000D+00