Cr    ONCVPSP-3.3.0  r_core=   1.30591   1.30591   1.71817
24.0000     14.0000      180420    zatom,zion,pspd
8      11   2     4   600     0    pspcod,pspxc,lmax,lloc,mmax,r2well
5.99000000  5.00000000  0.00000000    rchrg fchrg qchrg
2     3     2     0    nproj
3     1           extension_switch
4     4     0    nprojso
0                        -1.3245053704882D+00  6.3011099409794D+00
1  0.0000000000000D+00  1.4545880167027D-08  1.6305546912676D-09
2  1.0000000000000D-02 -9.4866072691095D-02  7.3023091680977D-02
3  2.0000000000000D-02 -1.8881523162847D-01  1.4593726898078D-01
4  3.0000000000000D-02 -2.8094315635399D-01  2.1863285223531D-01
5  4.0000000000000D-02 -3.7037049989095D-01  2.9099865331651D-01
6  5.0000000000000D-02 -4.5625484651401D-01  3.6292127622837D-01
7  6.0000000000000D-02 -5.3780204533741D-01  4.3428448230979D-01
8  7.0000000000000D-02 -6.1427672909720D-01  5.0496863962467D-01
9  8.0000000000000D-02 -6.8501184204942D-01  5.7485027448898D-01
10  9.0000000000000D-02 -7.4941701859714D-01  6.4380174110240D-01
11  1.0000000000000D-01 -8.0698567477993D-01  7.1169102295280D-01
12  1.1000000000000D-01 -8.5730069774507D-01  7.7838167708877D-01
13  1.2000000000000D-01 -9.0003864335914D-01  8.4373292955326D-01
14  1.3000000000000D-01 -9.3497237876619D-01  9.0759992729192D-01
15  1.4000000000000D-01 -9.6197213447683D-01  9.6983414874645D-01
16  1.5000000000000D-01 -9.8100495898474D-01  1.0302839721730D+00
17  1.6000000000000D-01 -9.9213259744385D-01  1.0887953975452D+00
18  1.7000000000000D-01 -9.9550784408836D-01  1.1452129147710D+00
19  1.8000000000000D-01 -9.9136944533087D-01  1.1993805079255D+00
20  1.9000000000000D-01 -9.8003565634158D-01  1.2511427823410D+00
21  2.0000000000000D-01 -9.6189657792253D-01  1.3003461987451D+00
22  2.1000000000000D-01 -9.3740542221137D-01  1.3468403962551D+00
23  2.2000000000000D-01 -9.0706887478039D-01  1.3904795839632D+00
24  2.3000000000000D-01 -8.7143673668967D-01  1.4311239791217D+00
25  2.4000000000000D-01 -8.3109104271240D-01  1.4686412685968D+00
26  2.5000000000000D-01 -7.8663486103554D-01  1.5029080693271D+00
27  2.6000000000000D-01 -7.3868098507809D-01  1.5338113630234D+00
28  2.7000000000000D-01 -6.8784072955339D-01  1.5612498802853D+00
29  2.8000000000000D-01 -6.3471304049076D-01  1.5851354096988D+00
30  2.9000000000000D-01 -5.7987412265755D-01  1.6053940083108D+00
31  3.0000000000000D-01 -5.2386777778590D-01  1.6219670911373D+00
32  3.1000000000000D-01 -4.6719663337490D-01  1.6348123790406D+00
33  3.2000000000000D-01 -4.1031442484653D-01  1.6439046863695D+00
34  3.3000000000000D-01 -3.5361947377451D-01  1.6492365321748D+00
35  3.4000000000000D-01 -2.9744948213437D-01  1.6508185615351D+00
36  3.5000000000000D-01 -2.4207773744325D-01  1.6486797665248D+00
37  3.6000000000000D-01 -1.8771079671553D-01  1.6428674995629D+00
38  3.7000000000000D-01 -1.3448768884163D-01  1.6334472752509D+00
39  3.8000000000000D-01 -8.2480645810284D-02  1.6205023602771D+00
40  3.9000000000000D-01 -3.1697343674915D-02  1.6041331544786D+00
41  4.0000000000000D-01  1.7915395154014D-02  1.5844563696421D+00
42  4.1000000000000D-01  6.6466515280863D-02  1.5616040160299D+00
43  4.2000000000000D-01  1.1411436164771D-01  1.5357222098873D+00
44  4.3000000000000D-01  1.6105916260860D-01  1.5069698182425D+00
45  4.4000000000000D-01  2.0753451579618D-01  1.4755169601207D+00
46  4.5000000000000D-01  2.5379805035346D-01  1.4415433857808D+00
47  4.6000000000000D-01  3.0012145651795D-01  1.4052367577265D+00
48  4.7000000000000D-01  3.4678008750301D-01  1.3667908589799D+00
49  4.8000000000000D-01  3.9404234883332D-01  1.3264037554206D+00
50  4.9000000000000D-01  4.4215909653705D-01  1.2842759398417D+00
51  5.0000000000000D-01  4.9135326772445D-01  1.2406084857579D+00
52  5.1000000000000D-01  5.4180996502039D-01  1.1956012388918D+00
53  5.2000000000000D-01  5.9366721005745D-01  1.1494510736691D+00
54  5.3000000000000D-01  6.4700757085133D-01  1.1023502409841D+00
55  5.4000000000000D-01  7.0185085353192D-01  1.0544848319549D+00
56  5.5000000000000D-01  7.5814803080883D-01  1.0060333804116D+00
57  5.6000000000000D-01  8.1577655796841D-01  9.5716562447377D-01
58  5.7000000000000D-01  8.7453720261156D-01  9.0804144481897D-01
59  5.8000000000000D-01  9.3415248692307D-01  8.5880999416244D-01
60  5.9000000000000D-01  9.9426681186404D-01  8.0960902912936D-01
61  6.0000000000000D-01  1.0544483013126D+00  7.6056445212668D-01
62  6.1000000000000D-01  1.1141923720003D+00  7.1179006712999D-01
63  6.2000000000000D-01  1.1729270020337D+00  6.6338754948748D-01
64  6.3000000000000D-01  1.2300196380421D+00  6.1544662604320D-01
65  6.4000000000000D-01  1.2847856487505D+00  5.6804545811570D-01
66  6.5000000000000D-01  1.3364982017389D+00  5.2125121621643D-01
67  6.6000000000000D-01  1.3843994111065D+00  4.7512083194439D-01
68  6.7000000000000D-01  1.4277125768877D+00  4.2970190926995D-01
69  6.8000000000000D-01  1.4656553132044D+00  3.8503377451737D-01
70  6.9000000000000D-01  1.4974533416269D+00  3.4114864181188D-01
71  7.0000000000000D-01  1.5223547094812D+00  2.9807286862444D-01
72  7.1000000000000D-01  1.5396441801795D+00  2.5582827435698D-01
73  7.2000000000000D-01  1.5486575345001D+00  2.1443349371884D-01
74  7.3000000000000D-01  1.5487955181489D+00  1.7390533595524D-01
75  7.4000000000000D-01  1.5395371721025D+00  1.3426012082792D-01
76  7.5000000000000D-01  1.5204522881757D+00  9.5514962619610D-02
77  7.6000000000000D-01  1.4912127429814D+00  5.7688974341493D-02
78  7.7000000000000D-01  1.4516024787406D+00  2.0804365745033D-02
79  7.8000000000000D-01  1.4015259191192D+00 -1.5112589337580D-02
80  7.9000000000000D-01  1.3410146320819D+00 -5.0030738410530D-02
81  8.0000000000000D-01  1.2702320792957D+00 -8.3913407757385D-02
82  8.1000000000000D-01  1.1894763224526D+00 -1.1671794797970D-01
83  8.2000000000000D-01  1.0991805904913D+00 -1.4839548017596D-01
84  8.3000000000000D-01  9.9991164752811D-01 -1.7889085151565D-01
85  8.4000000000000D-01  8.9236593875240D-01 -2.0814280497303D-01
86  8.5000000000000D-01  7.7736352993013D-01 -2.3608436386918D-01
87  8.6000000000000D-01  6.5583989485707D-01 -2.6264342769741D-01
88  8.7000000000000D-01  5.2883564345360D-01 -2.8774357154922D-01
89  8.8000000000000D-01  3.9748432034651D-01 -3.1130503740938D-01
90  8.9000000000000D-01  2.6299843936006D-01 -3.3324590169102D-01
91  9.0000000000000D-01  1.2665395240080D-01 -3.5348339973912D-01
92  9.1000000000000D-01 -1.0226618664497D-02 -3.7193538469243D-01
93  9.2000000000000D-01 -1.4629213200695D-01 -3.8852189512934D-01
94  9.3000000000000D-01 -2.8018158012175D-01 -4.0316680338946D-01
95  9.4000000000000D-01 -4.1054335287980D-01 -4.1579951440893D-01
96  9.5000000000000D-01 -5.3605470077456D-01 -4.2635668337621D-01
97  9.6000000000000D-01 -6.5544108191759D-01 -4.3478391953890D-01
98  9.7000000000000D-01 -7.6749507383057D-01 -4.4103744309445D-01
99  9.8000000000000D-01 -8.7109453400573D-01 -4.4508566228753D-01
100  9.9000000000000D-01 -9.6521970182330D-01 -4.4691063864248D-01
101  1.0000000000000D+00 -1.0489689481001D+00 -4.4650940961898D-01
102  1.0100000000000D+00 -1.1215728973819D+00 -4.4389513989895D-01
103  1.0200000000000D+00 -1.1824066726387D+00 -4.3909807505443D-01
104  1.0300000000000D+00 -1.2310000400944D+00 -4.3216627428025D-01
105  1.0400000000000D+00 -1.2670452646469D+00 -4.2316610231683D-01
106  1.0500000000000D+00 -1.2904025232839D+00 -4.1218246459630D-01
107  1.0600000000000D+00 -1.3011027622091D+00 -3.9931877371061D-01
108  1.0700000000000D+00 -1.2993479246918D+00 -3.8469663969638D-01
109  1.0800000000000D+00 -1.2855085219850D+00 -3.6845528147051D-01
110  1.0900000000000D+00 -1.2601185614821D+00 -3.5075066122514D-01
111  1.1000000000000D+00 -1.2238678935984D+00 -3.3175434866126D-01
112  1.1100000000000D+00 -1.1775920779656D+00 -3.1165212613701D-01
113  1.1200000000000D+00 -1.1222599164532D+00 -2.9064235084909D-01
114  1.1300000000000D+00 -1.0589588394876D+00 -2.6893409435941D-01
115  1.1400000000000D+00 -9.8887837018148D-01 -2.4674508387701D-01
116  1.1500000000000D+00 -9.1329192239836D-01 -2.2429947311293D-01
117  1.1600000000000D+00 -8.3353722151581D-01 -2.0182547404738D-01
118  1.1700000000000D+00 -7.5099566304510D-01 -1.7955288379934D-01
119  1.1800000000000D+00 -6.6707094251881D-01 -1.5771054276073D-01
120  1.1900000000000D+00 -5.8316730387364D-01 -1.3652376164986D-01
121  1.2000000000000D+00 -5.0066776792317D-01 -1.1621175669270D-01
122  1.2100000000000D+00 -4.2091270136716D-01 -9.6985132015038D-02
123  1.2200000000000D+00 -3.4517908324627D-01 -7.9043447943338D-02
124  1.2300000000000D+00 -2.7466082478242D-01 -6.2572913806654D-02
125  1.2400000000000D+00 -2.1045047621715D-01 -4.7744241409486D-02
126  1.2500000000000D+00 -1.5352262940996D-01 -3.4710692648123D-02
127  1.2600000000000D+00 -1.0471932352082D-01 -2.3606354587627D-02
128  1.2700000000000D+00 -6.4762540972431D-02 -1.4550161680327D-02
129  1.2800000000000D+00 -3.3987019783503D-02 -7.5885384048630D-03
130  1.2900000000000D+00 -1.3226615438108D-02 -2.8885199548028D-03
131  1.3000000000000D+00 -2.9726925286782D-03 -5.5259555920598D-04
132  1.3100000000000D+00  9.5799041243761D-05  1.0819930996026D-04
133  1.3200000000000D+00  7.7028835501403D-05  2.7161156285204D-05
134  1.3300000000000D+00 -1.2188357241777D-04 -3.9051736830288D-05
135  1.3400000000000D+00  1.0391568578550D-05  3.8766065635114D-06
136  1.3500000000000D+00  1.2200621149382D-05  4.3171388118112D-06
137  1.3600000000000D+00  1.6299701876339D-06  5.9100321692378D-08
138  1.3700000000000D+00  0.0000000000000D+00  0.0000000000000D+00
139  1.3800000000000D+00  0.0000000000000D+00  0.0000000000000D+00
140  1.3900000000000D+00  0.0000000000000D+00  0.0000000000000D+00
141  1.4000000000000D+00  0.0000000000000D+00  0.0000000000000D+00
142  1.4100000000000D+00  0.0000000000000D+00  0.0000000000000D+00
143  1.4200000000000D+00  0.0000000000000D+00  0.0000000000000D+00
144  1.4300000000000D+00  0.0000000000000D+00  0.0000000000000D+00
145  1.4400000000000D+00  0.0000000000000D+00  0.0000000000000D+00
146  1.4500000000000D+00  0.0000000000000D+00  0.0000000000000D+00
147  1.4600000000000D+00  0.0000000000000D+00  0.0000000000000D+00
148  1.4700000000000D+00  0.0000000000000D+00  0.0000000000000D+00
149  1.4800000000000D+00  0.0000000000000D+00  0.0000000000000D+00
150  1.4900000000000D+00  0.0000000000000D+00  0.0000000000000D+00
151  1.5000000000000D+00  0.0000000000000D+00  0.0000000000000D+00
152  1.5100000000000D+00  0.0000000000000D+00  0.0000000000000D+00
153  1.5200000000000D+00  0.0000000000000D+00  0.0000000000000D+00
154  1.5300000000000D+00  0.0000000000000D+00  0.0000000000000D+00
155  1.5400000000000D+00  0.0000000000000D+00  0.0000000000000D+00
156  1.5500000000000D+00  0.0000000000000D+00  0.0000000000000D+00
157  1.5600000000000D+00  0.0000000000000D+00  0.0000000000000D+00
158  1.5700000000000D+00  0.0000000000000D+00  0.0000000000000D+00
159  1.5800000000000D+00  0.0000000000000D+00  0.0000000000000D+00
160  1.5900000000000D+00  0.0000000000000D+00  0.0000000000000D+00
161  1.6000000000000D+00  0.0000000000000D+00  0.0000000000000D+00
162  1.6100000000000D+00  0.0000000000000D+00  0.0000000000000D+00
163  1.6200000000000D+00  0.0000000000000D+00  0.0000000000000D+00
164  1.6300000000000D+00  0.0000000000000D+00  0.0000000000000D+00
165  1.6400000000000D+00  0.0000000000000D+00  0.0000000000000D+00
166  1.6500000000000D+00  0.0000000000000D+00  0.0000000000000D+00
167  1.6600000000000D+00  0.0000000000000D+00  0.0000000000000D+00
168  1.6700000000000D+00  0.0000000000000D+00  0.0000000000000D+00
169  1.6800000000000D+00  0.0000000000000D+00  0.0000000000000D+00
170  1.6900000000000D+00  0.0000000000000D+00  0.0000000000000D+00
171  1.7000000000000D+00  0.0000000000000D+00  0.0000000000000D+00
172  1.7100000000000D+00  0.0000000000000D+00  0.0000000000000D+00
173  1.7200000000000D+00  0.0000000000000D+00  0.0000000000000D+00
174  1.7300000000000D+00  0.0000000000000D+00  0.0000000000000D+00
175  1.7400000000000D+00  0.0000000000000D+00  0.0000000000000D+00
176  1.7500000000000D+00  0.0000000000000D+00  0.0000000000000D+00
177  1.7600000000000D+00  0.0000000000000D+00  0.0000000000000D+00
178  1.7700000000000D+00  0.0000000000000D+00  0.0000000000000D+00
179  1.7800000000000D+00  0.0000000000000D+00  0.0000000000000D+00
180  1.7900000000000D+00  0.0000000000000D+00  0.0000000000000D+00
181  1.8000000000000D+00  0.0000000000000D+00  0.0000000000000D+00
182  1.8100000000000D+00  0.0000000000000D+00  0.0000000000000D+00
183  1.8200000000000D+00  0.0000000000000D+00  0.0000000000000D+00
184  1.8300000000000D+00  0.0000000000000D+00  0.0000000000000D+00
185  1.8400000000000D+00  0.0000000000000D+00  0.0000000000000D+00
186  1.8500000000000D+00  0.0000000000000D+00  0.0000000000000D+00
187  1.8600000000000D+00  0.0000000000000D+00  0.0000000000000D+00
188  1.8700000000000D+00  0.0000000000000D+00  0.0000000000000D+00
189  1.8800000000000D+00  0.0000000000000D+00  0.0000000000000D+00
190  1.8900000000000D+00  0.0000000000000D+00  0.0000000000000D+00
191  1.9000000000000D+00  0.0000000000000D+00  0.0000000000000D+00
192  1.9100000000000D+00  0.0000000000000D+00  0.0000000000000D+00
193  1.9200000000000D+00  0.0000000000000D+00  0.0000000000000D+00
194  1.9300000000000D+00  0.0000000000000D+00  0.0000000000000D+00
195  1.9400000000000D+00  0.0000000000000D+00  0.0000000000000D+00
196  1.9500000000000D+00  0.0000000000000D+00  0.0000000000000D+00
197  1.9600000000000D+00  0.0000000000000D+00  0.0000000000000D+00
198  1.9700000000000D+00  0.0000000000000D+00  0.0000000000000D+00
199  1.9800000000000D+00  0.0000000000000D+00  0.0000000000000D+00
200  1.9900000000000D+00  0.0000000000000D+00  0.0000000000000D+00
201  2.0000000000000D+00  0.0000000000000D+00  0.0000000000000D+00
202  2.0100000000000D+00  0.0000000000000D+00  0.0000000000000D+00
203  2.0200000000000D+00  0.0000000000000D+00  0.0000000000000D+00
204  2.0300000000000D+00  0.0000000000000D+00  0.0000000000000D+00
205  2.0400000000000D+00  0.0000000000000D+00  0.0000000000000D+00
206  2.0500000000000D+00  0.0000000000000D+00  0.0000000000000D+00
207  2.0600000000000D+00  0.0000000000000D+00  0.0000000000000D+00
208  2.0700000000000D+00  0.0000000000000D+00  0.0000000000000D+00
209  2.0800000000000D+00  0.0000000000000D+00  0.0000000000000D+00
210  2.0900000000000D+00  0.0000000000000D+00  0.0000000000000D+00
211  2.1000000000000D+00  0.0000000000000D+00  0.0000000000000D+00
212  2.1100000000000D+00  0.0000000000000D+00  0.0000000000000D+00
213  2.1200000000000D+00  0.0000000000000D+00  0.0000000000000D+00
214  2.1300000000000D+00  0.0000000000000D+00  0.0000000000000D+00
215  2.1400000000000D+00  0.0000000000000D+00  0.0000000000000D+00
216  2.1500000000000D+00  0.0000000000000D+00  0.0000000000000D+00
217  2.1600000000000D+00  0.0000000000000D+00  0.0000000000000D+00
218  2.1700000000000D+00  0.0000000000000D+00  0.0000000000000D+00
219  2.1800000000000D+00  0.0000000000000D+00  0.0000000000000D+00
220  2.1900000000000D+00  0.0000000000000D+00  0.0000000000000D+00
221  2.2000000000000D+00  0.0000000000000D+00  0.0000000000000D+00
222  2.2100000000000D+00  0.0000000000000D+00  0.0000000000000D+00
223  2.2200000000000D+00  0.0000000000000D+00  0.0000000000000D+00
224  2.2300000000000D+00  0.0000000000000D+00  0.0000000000000D+00
225  2.2400000000000D+00  0.0000000000000D+00  0.0000000000000D+00
226  2.2500000000000D+00  0.0000000000000D+00  0.0000000000000D+00
227  2.2600000000000D+00  0.0000000000000D+00  0.0000000000000D+00
228  2.2700000000000D+00  0.0000000000000D+00  0.0000000000000D+00
229  2.2800000000000D+00  0.0000000000000D+00  0.0000000000000D+00
230  2.2900000000000D+00  0.0000000000000D+00  0.0000000000000D+00
231  2.3000000000000D+00  0.0000000000000D+00  0.0000000000000D+00
232  2.3100000000000D+00  0.0000000000000D+00  0.0000000000000D+00
233  2.3200000000000D+00  0.0000000000000D+00  0.0000000000000D+00
234  2.3300000000000D+00  0.0000000000000D+00  0.0000000000000D+00
235  2.3400000000000D+00  0.0000000000000D+00  0.0000000000000D+00
236  2.3500000000000D+00  0.0000000000000D+00  0.0000000000000D+00
237  2.3600000000000D+00  0.0000000000000D+00  0.0000000000000D+00
238  2.3700000000000D+00  0.0000000000000D+00  0.0000000000000D+00
239  2.3800000000000D+00  0.0000000000000D+00  0.0000000000000D+00
240  2.3900000000000D+00  0.0000000000000D+00  0.0000000000000D+00
241  2.4000000000000D+00  0.0000000000000D+00  0.0000000000000D+00
242  2.4100000000000D+00  0.0000000000000D+00  0.0000000000000D+00
243  2.4200000000000D+00  0.0000000000000D+00  0.0000000000000D+00
244  2.4300000000000D+00  0.0000000000000D+00  0.0000000000000D+00
245  2.4400000000000D+00  0.0000000000000D+00  0.0000000000000D+00
246  2.4500000000000D+00  0.0000000000000D+00  0.0000000000000D+00
247  2.4600000000000D+00  0.0000000000000D+00  0.0000000000000D+00
248  2.4700000000000D+00  0.0000000000000D+00  0.0000000000000D+00
249  2.4800000000000D+00  0.0000000000000D+00  0.0000000000000D+00
250  2.4900000000000D+00  0.0000000000000D+00  0.0000000000000D+00
251  2.5000000000000D+00  0.0000000000000D+00  0.0000000000000D+00
252  2.5100000000000D+00  0.0000000000000D+00  0.0000000000000D+00
253  2.5200000000000D+00  0.0000000000000D+00  0.0000000000000D+00
254  2.5300000000000D+00  0.0000000000000D+00  0.0000000000000D+00
255  2.5400000000000D+00  0.0000000000000D+00  0.0000000000000D+00
256  2.5500000000000D+00  0.0000000000000D+00  0.0000000000000D+00
257  2.5600000000000D+00  0.0000000000000D+00  0.0000000000000D+00
258  2.5700000000000D+00  0.0000000000000D+00  0.0000000000000D+00
259  2.5800000000000D+00  0.0000000000000D+00  0.0000000000000D+00
260  2.5900000000000D+00  0.0000000000000D+00  0.0000000000000D+00
261  2.6000000000000D+00  0.0000000000000D+00  0.0000000000000D+00
262  2.6100000000000D+00  0.0000000000000D+00  0.0000000000000D+00
263  2.6200000000000D+00  0.0000000000000D+00  0.0000000000000D+00
264  2.6300000000000D+00  0.0000000000000D+00  0.0000000000000D+00
265  2.6400000000000D+00  0.0000000000000D+00  0.0000000000000D+00
266  2.6500000000000D+00  0.0000000000000D+00  0.0000000000000D+00
267  2.6600000000000D+00  0.0000000000000D+00  0.0000000000000D+00
268  2.6700000000000D+00  0.0000000000000D+00  0.0000000000000D+00
269  2.6800000000000D+00  0.0000000000000D+00  0.0000000000000D+00
270  2.6900000000000D+00  0.0000000000000D+00  0.0000000000000D+00
271  2.7000000000000D+00  0.0000000000000D+00  0.0000000000000D+00
272  2.7100000000000D+00  0.0000000000000D+00  0.0000000000000D+00
273  2.7200000000000D+00  0.0000000000000D+00  0.0000000000000D+00
274  2.7300000000000D+00  0.0000000000000D+00  0.0000000000000D+00
275  2.7400000000000D+00  0.0000000000000D+00  0.0000000000000D+00
276  2.7500000000000D+00  0.0000000000000D+00  0.0000000000000D+00
277  2.7600000000000D+00  0.0000000000000D+00  0.0000000000000D+00
278  2.7700000000000D+00  0.0000000000000D+00  0.0000000000000D+00
279  2.7800000000000D+00  0.0000000000000D+00  0.0000000000000D+00
280  2.7900000000000D+00  0.0000000000000D+00  0.0000000000000D+00
281  2.8000000000000D+00  0.0000000000000D+00  0.0000000000000D+00
282  2.8100000000000D+00  0.0000000000000D+00  0.0000000000000D+00
283  2.8200000000000D+00  0.0000000000000D+00  0.0000000000000D+00
284  2.8300000000000D+00  0.0000000000000D+00  0.0000000000000D+00
285  2.8400000000000D+00  0.0000000000000D+00  0.0000000000000D+00
286  2.8500000000000D+00  0.0000000000000D+00  0.0000000000000D+00
287  2.8600000000000D+00  0.0000000000000D+00  0.0000000000000D+00
288  2.8700000000000D+00  0.0000000000000D+00  0.0000000000000D+00
289  2.8800000000000D+00  0.0000000000000D+00  0.0000000000000D+00
290  2.8900000000000D+00  0.0000000000000D+00  0.0000000000000D+00
291  2.9000000000000D+00  0.0000000000000D+00  0.0000000000000D+00
292  2.9100000000000D+00  0.0000000000000D+00  0.0000000000000D+00
293  2.9200000000000D+00  0.0000000000000D+00  0.0000000000000D+00
294  2.9300000000000D+00  0.0000000000000D+00  0.0000000000000D+00
295  2.9400000000000D+00  0.0000000000000D+00  0.0000000000000D+00
296  2.9500000000000D+00  0.0000000000000D+00  0.0000000000000D+00
297  2.9600000000000D+00  0.0000000000000D+00  0.0000000000000D+00
298  2.9700000000000D+00  0.0000000000000D+00  0.0000000000000D+00
299  2.9800000000000D+00  0.0000000000000D+00  0.0000000000000D+00
300  2.9900000000000D+00  0.0000000000000D+00  0.0000000000000D+00
301  3.0000000000000D+00  0.0000000000000D+00  0.0000000000000D+00
302  3.0100000000000D+00  0.0000000000000D+00  0.0000000000000D+00
303  3.0200000000000D+00  0.0000000000000D+00  0.0000000000000D+00
304  3.0300000000000D+00  0.0000000000000D+00  0.0000000000000D+00
305  3.0400000000000D+00  0.0000000000000D+00  0.0000000000000D+00
306  3.0500000000000D+00  0.0000000000000D+00  0.0000000000000D+00
307  3.0600000000000D+00  0.0000000000000D+00  0.0000000000000D+00
308  3.0700000000000D+00  0.0000000000000D+00  0.0000000000000D+00
309  3.0800000000000D+00  0.0000000000000D+00  0.0000000000000D+00
310  3.0900000000000D+00  0.0000000000000D+00  0.0000000000000D+00
311  3.1000000000000D+00  0.0000000000000D+00  0.0000000000000D+00
312  3.1100000000000D+00  0.0000000000000D+00  0.0000000000000D+00
313  3.1200000000000D+00  0.0000000000000D+00  0.0000000000000D+00
314  3.1300000000000D+00  0.0000000000000D+00  0.0000000000000D+00
315  3.1400000000000D+00  0.0000000000000D+00  0.0000000000000D+00
316  3.1500000000000D+00  0.0000000000000D+00  0.0000000000000D+00
317  3.1600000000000D+00  0.0000000000000D+00  0.0000000000000D+00
318  3.1700000000000D+00  0.0000000000000D+00  0.0000000000000D+00
319  3.1800000000000D+00  0.0000000000000D+00  0.0000000000000D+00
320  3.1900000000000D+00  0.0000000000000D+00  0.0000000000000D+00
321  3.2000000000000D+00  0.0000000000000D+00  0.0000000000000D+00
322  3.2100000000000D+00  0.0000000000000D+00  0.0000000000000D+00
323  3.2200000000000D+00  0.0000000000000D+00  0.0000000000000D+00
324  3.2300000000000D+00  0.0000000000000D+00  0.0000000000000D+00
325  3.2400000000000D+00  0.0000000000000D+00  0.0000000000000D+00
326  3.2500000000000D+00  0.0000000000000D+00  0.0000000000000D+00
327  3.2600000000000D+00  0.0000000000000D+00  0.0000000000000D+00
328  3.2700000000000D+00  0.0000000000000D+00  0.0000000000000D+00
329  3.2800000000000D+00  0.0000000000000D+00  0.0000000000000D+00
330  3.2900000000000D+00  0.0000000000000D+00  0.0000000000000D+00
331  3.3000000000000D+00  0.0000000000000D+00  0.0000000000000D+00
332  3.3100000000000D+00  0.0000000000000D+00  0.0000000000000D+00
333  3.3200000000000D+00  0.0000000000000D+00  0.0000000000000D+00
334  3.3300000000000D+00  0.0000000000000D+00  0.0000000000000D+00
335  3.3400000000000D+00  0.0000000000000D+00  0.0000000000000D+00
336  3.3500000000000D+00  0.0000000000000D+00  0.0000000000000D+00
337  3.3600000000000D+00  0.0000000000000D+00  0.0000000000000D+00
338  3.3700000000000D+00  0.0000000000000D+00  0.0000000000000D+00
339  3.3800000000000D+00  0.0000000000000D+00  0.0000000000000D+00
340  3.3900000000000D+00  0.0000000000000D+00  0.0000000000000D+00
341  3.4000000000000D+00  0.0000000000000D+00  0.0000000000000D+00
342  3.4100000000000D+00  0.0000000000000D+00  0.0000000000000D+00
343  3.4200000000000D+00  0.0000000000000D+00  0.0000000000000D+00
344  3.4300000000000D+00  0.0000000000000D+00  0.0000000000000D+00
345  3.4400000000000D+00  0.0000000000000D+00  0.0000000000000D+00
346  3.4500000000000D+00  0.0000000000000D+00  0.0000000000000D+00
347  3.4600000000000D+00  0.0000000000000D+00  0.0000000000000D+00
348  3.4700000000000D+00  0.0000000000000D+00  0.0000000000000D+00
349  3.4800000000000D+00  0.0000000000000D+00  0.0000000000000D+00
350  3.4900000000000D+00  0.0000000000000D+00  0.0000000000000D+00
351  3.5000000000000D+00  0.0000000000000D+00  0.0000000000000D+00
352  3.5100000000000D+00  0.0000000000000D+00  0.0000000000000D+00
353  3.5200000000000D+00  0.0000000000000D+00  0.0000000000000D+00
354  3.5300000000000D+00  0.0000000000000D+00  0.0000000000000D+00
355  3.5400000000000D+00  0.0000000000000D+00  0.0000000000000D+00
356  3.5500000000000D+00  0.0000000000000D+00  0.0000000000000D+00
357  3.5600000000000D+00  0.0000000000000D+00  0.0000000000000D+00
358  3.5700000000000D+00  0.0000000000000D+00  0.0000000000000D+00
359  3.5800000000000D+00  0.0000000000000D+00  0.0000000000000D+00
360  3.5900000000000D+00  0.0000000000000D+00  0.0000000000000D+00
361  3.6000000000000D+00  0.0000000000000D+00  0.0000000000000D+00
362  3.6100000000000D+00  0.0000000000000D+00  0.0000000000000D+00
363  3.6200000000000D+00  0.0000000000000D+00  0.0000000000000D+00
364  3.6300000000000D+00  0.0000000000000D+00  0.0000000000000D+00
365  3.6400000000000D+00  0.0000000000000D+00  0.0000000000000D+00
366  3.6500000000000D+00  0.0000000000000D+00  0.0000000000000D+00
367  3.6600000000000D+00  0.0000000000000D+00  0.0000000000000D+00
368  3.6700000000000D+00  0.0000000000000D+00  0.0000000000000D+00
369  3.6800000000000D+00  0.0000000000000D+00  0.0000000000000D+00
370  3.6900000000000D+00  0.0000000000000D+00  0.0000000000000D+00
371  3.7000000000000D+00  0.0000000000000D+00  0.0000000000000D+00
372  3.7100000000000D+00  0.0000000000000D+00  0.0000000000000D+00
373  3.7200000000000D+00  0.0000000000000D+00  0.0000000000000D+00
374  3.7300000000000D+00  0.0000000000000D+00  0.0000000000000D+00
375  3.7400000000000D+00  0.0000000000000D+00  0.0000000000000D+00
376  3.7500000000000D+00  0.0000000000000D+00  0.0000000000000D+00
377  3.7600000000000D+00  0.0000000000000D+00  0.0000000000000D+00
378  3.7700000000000D+00  0.0000000000000D+00  0.0000000000000D+00
379  3.7800000000000D+00  0.0000000000000D+00  0.0000000000000D+00
380  3.7900000000000D+00  0.0000000000000D+00  0.0000000000000D+00
381  3.8000000000000D+00  0.0000000000000D+00  0.0000000000000D+00
382  3.8100000000000D+00  0.0000000000000D+00  0.0000000000000D+00
383  3.8200000000000D+00  0.0000000000000D+00  0.0000000000000D+00
384  3.8300000000000D+00  0.0000000000000D+00  0.0000000000000D+00
385  3.8400000000000D+00  0.0000000000000D+00  0.0000000000000D+00
386  3.8500000000000D+00  0.0000000000000D+00  0.0000000000000D+00
387  3.8600000000000D+00  0.0000000000000D+00  0.0000000000000D+00
388  3.8700000000000D+00  0.0000000000000D+00  0.0000000000000D+00
389  3.8800000000000D+00  0.0000000000000D+00  0.0000000000000D+00
390  3.8900000000000D+00  0.0000000000000D+00  0.0000000000000D+00
391  3.9000000000000D+00  0.0000000000000D+00  0.0000000000000D+00
392  3.9100000000000D+00  0.0000000000000D+00  0.0000000000000D+00
393  3.9200000000000D+00  0.0000000000000D+00  0.0000000000000D+00
394  3.9300000000000D+00  0.0000000000000D+00  0.0000000000000D+00
395  3.9400000000000D+00  0.0000000000000D+00  0.0000000000000D+00
396  3.9500000000000D+00  0.0000000000000D+00  0.0000000000000D+00
397  3.9600000000000D+00  0.0000000000000D+00  0.0000000000000D+00
398  3.9700000000000D+00  0.0000000000000D+00  0.0000000000000D+00
399  3.9800000000000D+00  0.0000000000000D+00  0.0000000000000D+00
400  3.9900000000000D+00  0.0000000000000D+00  0.0000000000000D+00
401  4.0000000000000D+00  0.0000000000000D+00  0.0000000000000D+00
402  4.0100000000000D+00  0.0000000000000D+00  0.0000000000000D+00
403  4.0200000000000D+00  0.0000000000000D+00  0.0000000000000D+00
404  4.0300000000000D+00  0.0000000000000D+00  0.0000000000000D+00
405  4.0400000000000D+00  0.0000000000000D+00  0.0000000000000D+00
406  4.0500000000000D+00  0.0000000000000D+00  0.0000000000000D+00
407  4.0600000000000D+00  0.0000000000000D+00  0.0000000000000D+00
408  4.0700000000000D+00  0.0000000000000D+00  0.0000000000000D+00
409  4.0800000000000D+00  0.0000000000000D+00  0.0000000000000D+00
410  4.0900000000000D+00  0.0000000000000D+00  0.0000000000000D+00
411  4.1000000000000D+00  0.0000000000000D+00  0.0000000000000D+00
412  4.1100000000000D+00  0.0000000000000D+00  0.0000000000000D+00
413  4.1200000000000D+00  0.0000000000000D+00  0.0000000000000D+00
414  4.1300000000000D+00  0.0000000000000D+00  0.0000000000000D+00
415  4.1400000000000D+00  0.0000000000000D+00  0.0000000000000D+00
416  4.1500000000000D+00  0.0000000000000D+00  0.0000000000000D+00
417  4.1600000000000D+00  0.0000000000000D+00  0.0000000000000D+00
418  4.1700000000000D+00  0.0000000000000D+00  0.0000000000000D+00
419  4.1800000000000D+00  0.0000000000000D+00  0.0000000000000D+00
420  4.1900000000000D+00  0.0000000000000D+00  0.0000000000000D+00
421  4.2000000000000D+00  0.0000000000000D+00  0.0000000000000D+00
422  4.2100000000000D+00  0.0000000000000D+00  0.0000000000000D+00
423  4.2200000000000D+00  0.0000000000000D+00  0.0000000000000D+00
424  4.2300000000000D+00  0.0000000000000D+00  0.0000000000000D+00
425  4.2400000000000D+00  0.0000000000000D+00  0.0000000000000D+00
426  4.2500000000000D+00  0.0000000000000D+00  0.0000000000000D+00
427  4.2600000000000D+00  0.0000000000000D+00  0.0000000000000D+00
428  4.2700000000000D+00  0.0000000000000D+00  0.0000000000000D+00
429  4.2800000000000D+00  0.0000000000000D+00  0.0000000000000D+00
430  4.2900000000000D+00  0.0000000000000D+00  0.0000000000000D+00
431  4.3000000000000D+00  0.0000000000000D+00  0.0000000000000D+00
432  4.3100000000000D+00  0.0000000000000D+00  0.0000000000000D+00
433  4.3200000000000D+00  0.0000000000000D+00  0.0000000000000D+00
434  4.3300000000000D+00  0.0000000000000D+00  0.0000000000000D+00
435  4.3400000000000D+00  0.0000000000000D+00  0.0000000000000D+00
436  4.3500000000000D+00  0.0000000000000D+00  0.0000000000000D+00
437  4.3600000000000D+00  0.0000000000000D+00  0.0000000000000D+00
438  4.3700000000000D+00  0.0000000000000D+00  0.0000000000000D+00
439  4.3800000000000D+00  0.0000000000000D+00  0.0000000000000D+00
440  4.3900000000000D+00  0.0000000000000D+00  0.0000000000000D+00
441  4.4000000000000D+00  0.0000000000000D+00  0.0000000000000D+00
442  4.4100000000000D+00  0.0000000000000D+00  0.0000000000000D+00
443  4.4200000000000D+00  0.0000000000000D+00  0.0000000000000D+00