Kr    ONCVPSP  r_core=  1.76  1.51  1.80
36.0000      8.0000      150815    zatom,zion,pspd
8      11   2     4   600     0    pspcod,pspxc,lmax,lloc,mmax,r2well
5.99000000  7.00000000  0.00000000    rchrg fchrg qchrg
2     2     2     0     0    nproj
0                 extension_switch
0                         8.2188346973938D+00  8.1141358700438D-01
1  0.0000000000000D+00 -1.5511408824054D-10  6.1622806857287D-10
2  1.0000000000000D-02  4.0069475755704D-02 -1.9330214055837D-02
3  2.0000000000000D-02  8.0081669880986D-02 -3.8513018791588D-02
4  3.0000000000000D-02  1.1997966534404D-01 -5.7402505868677D-02
5  4.0000000000000D-02  1.5970727042605D-01 -7.5855753062146D-02
6  5.0000000000000D-02  1.9920937170673D-01 -9.3734277851650D-02
7  6.0000000000000D-02  2.3843227555556D-01 -1.1090544409362D-01
8  7.0000000000000D-02  2.7732403448095D-01 -1.2724380686408D-01
9  8.0000000000000D-02  3.1583475484430D-01 -1.4263238117784D-01
10  9.0000000000000D-02  3.5391688263755D-01 -1.5696382104890D-01
11  1.0000000000000D-01  3.9152546424768D-01 -1.7014149625248D-01
12  1.1000000000000D-01  4.2861837938895D-01 -1.8208045517144D-01
13  1.2000000000000D-01  4.6515654367076D-01 -1.9270826325124D-01
14  1.3000000000000D-01  5.0110407858231D-01 -2.0196570783483D-01
15  1.4000000000000D-01  5.3642844701322D-01 -2.0980736149273D-01
16  1.5000000000000D-01  5.7110055278673D-01 -2.1620199738909D-01
17  1.6000000000000D-01  6.0509480305796D-01 -2.2113285171982D-01
18  1.7000000000000D-01  6.3838913281789D-01 -2.2459772980854D-01
19  1.8000000000000D-01  6.7096499114243D-01 -2.2660895403635D-01
20  1.9000000000000D-01  7.0280728923019D-01 -2.2719315339602D-01
21  2.0000000000000D-01  7.3390431067873D-01 -2.2639089608546D-01
22  2.1000000000000D-01  7.6424758485324D-01 -2.2425616817329D-01
23  2.2000000000000D-01  7.9383172459959D-01 -2.2085570296471D-01
24  2.3000000000000D-01  8.2265422994186D-01 -2.1626816725457D-01
25  2.4000000000000D-01  8.5071525977841D-01 -2.1058321215940D-01
26  2.5000000000000D-01  8.7801737394717D-01 -2.0390039765814D-01
27  2.6000000000000D-01  9.0456524836575D-01 -1.9632800132659D-01
28  2.7000000000000D-01  9.3036536626272D-01 -1.8798172301082D-01
29  2.8000000000000D-01  9.5542568879846D-01 -1.7898329833618D-01
30  2.9000000000000D-01  9.7975530862556D-01 -1.6945903497985D-01
31  3.0000000000000D-01  1.0033640901566D+00 -1.5953828653539D-01
32  3.1000000000000D-01  1.0262623004882D+00 -1.4935187955706D-01
33  3.2000000000000D-01  1.0484602350752D+00 -1.3903050998293D-01
34  3.3000000000000D-01  1.0699678423489D+00 -1.2870312558996D-01
35  3.4000000000000D-01  1.0907943515405D+00 -1.1849531142820D-01
36  3.5000000000000D-01  1.1109479079850D+00 -1.0852769530836D-01
37  3.6000000000000D-01  1.1304352201630D+00 -9.8914390377245D-02
38  3.7000000000000D-01  1.1492612226667D+00 -8.9761491605722D-02
39  3.8000000000000D-01  1.1674287591713D+00 -8.1165642636465D-02
40  3.9000000000000D-01  1.1849382893396D+00 -7.3212688894629D-02
41  4.0000000000000D-01  1.2017876233945D+00 -6.5976432158779D-02
42  4.1000000000000D-01  1.2179716878630D+00 -5.9517500926146D-02
43  4.2000000000000D-01  1.2334823257249D+00 -5.3882349893848D-02
44  4.3000000000000D-01  1.2483081338909D+00 -4.9102400723393D-02
45  4.4000000000000D-01  1.2624343406000D+00 -4.5193334970255D-02
46  4.5000000000000D-01  1.2758427249519D+00 -4.2154548654422D-02
47  4.6000000000000D-01  1.2885115803964D+00 -3.9968776434433D-02
48  4.7000000000000D-01  1.3004157235829D+00 -3.8601891739421D-02
49  4.8000000000000D-01  1.3115265495296D+00 -3.8002887526915D-02
50  4.9000000000000D-01  1.3218121336228D+00 -3.8104040582892D-02
51  5.0000000000000D-01  1.3312373804842D+00 -3.8821260482147D-02
52  5.1000000000000D-01  1.3397642192761D+00 -4.0054622497827D-02
53  5.2000000000000D-01  1.3473518445362D+00 -4.1689081907111D-02
54  5.3000000000000D-01  1.3539570011586D+00 -4.3595365301178D-02
55  5.4000000000000D-01  1.3595343116751D+00 -4.5631032693463D-02
56  5.5000000000000D-01  1.3640366435312D+00 -4.7641702444282D-02
57  5.6000000000000D-01  1.3674155136131D+00 -4.9462429301508D-02
58  5.7000000000000D-01  1.3696215268640D+00 -5.0919224217553D-02
59  5.8000000000000D-01  1.3706048454305D+00 -5.1830703047298D-02
60  5.9000000000000D-01  1.3703156844165D+00 -5.2009849794596D-02
61  6.0000000000000D-01  1.3687048299871D+00 -5.1265878748266D-02
62  6.1000000000000D-01  1.3657241752686D+00 -4.9406178671606D-02
63  6.2000000000000D-01  1.3613272692326D+00 -4.6238321170366D-02
64  6.3000000000000D-01  1.3554698735376D+00 -4.1572114495959D-02
65  6.4000000000000D-01  1.3481105221317D+00 -3.5221683338895D-02
66  6.5000000000000D-01  1.3392110782964D+00 -2.7007554646631D-02
67  6.6000000000000D-01  1.3287372837397D+00 -1.6758729168859D-02
68  6.7000000000000D-01  1.3166592943220D+00 -4.3147182915275D-03
69  6.8000000000000D-01  1.3029521970274D+00  1.0472474222892D-02
70  6.9000000000000D-01  1.2875965028737D+00  2.7736445717013D-02
71  7.0000000000000D-01  1.2705786105831D+00  4.7594583022656D-02
72  7.1000000000000D-01  1.2518912360209D+00  7.0146364778630D-02
73  7.2000000000000D-01  1.2315338026410D+00  9.5471795879831D-02
74  7.3000000000000D-01  1.2095127884545D+00  1.2362999123097D-01
75  7.4000000000000D-01  1.1858420253700D+00  1.5465792478256D-01
76  7.5000000000000D-01  1.1605429471162D+00  1.8856935845983D-01
77  7.6000000000000D-01  1.1336447823768D+00  2.2535396407097D-01
78  7.7000000000000D-01  1.1051846902083D+00  2.6497664961899D-01
79  7.8000000000000D-01  1.0752078352959D+00  3.0737709964645D-01
80  7.9000000000000D-01  1.0437674011129D+00  3.5246953733694D-01
81  8.0000000000000D-01  1.0109245395820D+00  4.0014271409524D-01
82  8.1000000000000D-01  9.7674825639336D-01  4.5026013025056D-01
83  8.2000000000000D-01  9.4131523170348D-01  5.0266048839048D-01
84  8.3000000000000D-01  9.0470957651694D-01  5.5715837866034D-01
85  8.4000000000000D-01  8.6702252563787D-01  6.1354519317041D-01
86  8.5000000000000D-01  8.2835206865899D-01  6.7159026446788D-01
87  8.6000000000000D-01  7.8880252103173D-01  7.3104222086672D-01
88  8.7000000000000D-01  7.4848403782371D-01  7.9163054931306D-01
89  8.8000000000000D-01  7.0751207331515D-01  8.5306735441372D-01
90  8.9000000000000D-01  6.6600679010760D-01  9.1504930029357D-01
91  9.0000000000000D-01  6.2409242191239D-01  9.7725972009156D-01
92  9.1000000000000D-01  5.8189659464678D-01  1.0393708761758D+00
93  9.2000000000000D-01  5.3954961088829D-01  1.1010463525723D+00
94  9.3000000000000D-01  4.9718370311847D-01  1.1619435596755D+00
95  9.4000000000000D-01  4.5493226152166D-01  1.2217163300593D+00
96  9.5000000000000D-01  4.1292904238845D-01  1.2800175831446D+00
97  9.6000000000000D-01  3.7130736340584D-01  1.3365020356211D+00
98  9.7000000000000D-01  3.3019929229166D-01  1.3908289338680D+00
99  9.8000000000000D-01  2.8973483534980D-01  1.4426647841893D+00
100  9.9000000000000D-01  2.5004113258115D-01  1.4916860564777D+00
101  1.0000000000000D+00  2.1124166598425D-01  1.5375818369379D+00
102  1.0100000000000D+00  1.7345548762027D-01  1.5800564057512D+00
103  1.0200000000000D+00  1.3679647389076D-01  1.6188317160561D+00
104  1.0300000000000D+00  1.0137261229723D-01  1.6536497513192D+00
105  1.0400000000000D+00  6.7285326711411D-02  1.6842747391013D+00
106  1.0500000000000D+00  3.4628846879858D-02  1.7104952003964D+00
107  1.0600000000000D+00  3.4896275460324D-03  1.7321258150316D+00
108  1.0700000000000D+00 -2.6054177828325D-02  1.7490090851493D+00
109  1.0800000000000D+00 -5.3933184229349D-02  1.7610167805895D+00
110  1.0900000000000D+00 -8.0087179101807D-02  1.7680511517808D+00
111  1.1000000000000D+00 -1.0446545973569D-01  1.7700458979382D+00
112  1.1100000000000D+00 -1.2702710105719D-01  1.7669668802599D+00
113  1.1200000000000D+00 -1.4774115151468D-01  1.7588125723301D+00
114  1.1300000000000D+00 -1.6658675534616D-01  1.7456142421966D+00
115  1.1400000000000D+00 -1.8355320017887D-01  1.7274358631106D+00
116  1.1500000000000D+00 -1.9863988950071D-01  1.7043737521425D+00
117  1.1600000000000D+00 -2.1185624023618D-01  1.6765559385095D+00
118  1.1700000000000D+00 -2.2322150634124D-01  1.6441412660224D+00
119  1.1800000000000D+00 -2.3276452999866D-01  1.6073182365664D+00
120  1.1900000000000D+00 -2.4052342246257D-01  1.5663036032895D+00
121  1.2000000000000D+00 -2.4654517743876D-01  1.5213407253155D+00
122  1.2100000000000D+00 -2.5088522038582D-01  1.4726976976560D+00
123  1.2200000000000D+00 -2.5360689765826D-01  1.4206652719903D+00
124  1.2300000000000D+00 -2.5478090989143D-01  1.3655545857710D+00
125  1.2400000000000D+00 -2.5448469469033D-01  1.3076947195492D+00
126  1.2500000000000D+00 -2.5280176398987D-01  1.2474301035240D+00
127  1.2600000000000D+00 -2.4982100172684D-01  1.1851177953336D+00
128  1.2700000000000D+00 -2.4563592809722D-01  1.1211246533873D+00
129  1.2800000000000D+00 -2.4034393671022D-01  1.0558244301200D+00
130  1.2900000000000D+00 -2.3404551115735D-01  9.8959481033316D-01
131  1.3000000000000D+00 -2.2684342787513D-01  9.2281442096737D-01
132  1.3100000000000D+00 -2.1884195200523D-01  8.5585983794374D-01
133  1.3200000000000D+00 -2.1014603319295D-01  7.8910261660634D-01
134  1.3300000000000D+00 -2.0086050810885D-01  7.2290637145795D-01
135  1.3400000000000D+00 -1.9108931630509D-01  6.5762393023529D-01
136  1.3500000000000D+00 -1.8093473617787D-01  5.9359458791360D-01
137  1.3600000000000D+00 -1.7049664701824D-01  5.3114148296755D-01
138  1.3700000000000D+00 -1.5987182338256D-01  4.7056911926159D-01
139  1.3800000000000D+00 -1.4915326755378D-01  4.1216105499127D-01
140  1.3900000000000D+00 -1.3842958474557D-01  3.5617777564626D-01
141  1.4000000000000D+00 -1.2778440685708D-01  3.0285477256101D-01
142  1.4100000000000D+00 -1.1729586812882D-01  2.5240083878814D-01
143  1.4200000000000D+00 -1.0703613691012D-01  2.0499659750164D-01
144  1.4300000000000D+00 -9.7071007159874D-02  1.6079327573313D-01
145  1.4400000000000D+00 -8.7459550998550D-02  1.1991172719789D-01
146  1.4500000000000D+00 -7.8253836206384D-02  8.2441718089871D-02
147  1.4600000000000D+00 -6.9498707446223D-02  4.8441468027455D-02
148  1.4700000000000D+00 -6.1231637706037D-02  1.7937480695490D-02
149  1.4800000000000D+00 -5.3482631612177D-02 -9.0754492779476D-03
150  1.4900000000000D+00 -4.6274240170826D-02 -3.2633693619591D-02
151  1.5000000000000D+00 -3.9621555906203D-02 -5.2804491109372D-02
152  1.5100000000000D+00 -3.3532277589143D-02 -6.9685398102954D-02
153  1.5200000000000D+00 -2.8007192360538D-02 -8.3401225929891D-02
154  1.5300000000000D+00 -2.3040672911925D-02 -9.4101125250780D-02
155  1.5400000000000D+00 -1.8621349737488D-02 -1.0195492760894D-01
156  1.5500000000000D+00 -1.4732675381369D-02 -1.0715029053386D-01
157  1.5600000000000D+00 -1.1353317895852D-02 -1.0989109699065D-01
158  1.5700000000000D+00 -8.4576969987201D-03 -1.1039503003029D-01
159  1.5800000000000D+00 -6.0165395222245D-03 -1.0889110435474D-01
160  1.5900000000000D+00 -3.9974550643507D-03 -1.0561715112072D-01
161  1.6000000000000D+00 -2.3655322318538D-03 -1.0081722732229D-01
162  1.6100000000000D+00 -1.0839472317386D-03 -9.4738990965964D-02
163  1.6200000000000D+00 -1.1457907050379D-04 -8.7631061667049D-02
164  1.6300000000000D+00  5.8137539687517D-04 -7.9740394303677D-02
165  1.6400000000000D+00  1.0427924551540D-03 -7.1309688870250D-02
166  1.6500000000000D+00  1.3080259841149D-03 -6.2574866028954D-02
167  1.6600000000000D+00  1.4143299685382D-03 -5.3762626366978D-02
168  1.6700000000000D+00  1.3973071595327D-03 -4.5088125442627D-02
169  1.6800000000000D+00  1.2903869964519D-03 -3.6752776794990D-02
170  1.6900000000000D+00  1.1243413140249D-03 -2.8942216646992D-02
171  1.7000000000000D+00  9.2699016601119D-04 -2.1826401013003D-02
172  1.7100000000000D+00  7.2257653188361D-04 -1.5554969595135D-02
173  1.7200000000000D+00  5.2932748061760D-04 -1.0231163747650D-02
174  1.7300000000000D+00  3.6326814712447D-04 -5.9624171001509D-03
175  1.7400000000000D+00  2.4847955355736D-04 -2.9548759048483D-03
176  1.7500000000000D+00  1.9266138576774D-04 -1.2558269287038D-03
177  1.7600000000000D+00  1.4918807900767D-04 -4.6577568032789D-04
178  1.7700000000000D+00  7.4090605649056D-05 -1.1756786589450D-04
179  1.7800000000000D+00  5.0067836468562D-06 -4.4558354138205D-06
180  1.7900000000000D+00 -1.4308491868339D-05  7.7595713425745D-06
181  1.8000000000000D+00 -3.7729580892971D-06  9.1389208293882D-07
182  1.8100000000000D+00  3.1264608389339D-06 -3.5560570004386D-06
183  1.8200000000000D+00  1.6164922376136D-06 -1.6321749502060D-06
184  1.8300000000000D+00 -3.4790995071417D-07  1.0987845025816D-06
185  1.8400000000000D+00 -3.0178221853965D-07  9.5310187077254D-07
186  1.8500000000000D+00  0.0000000000000D+00  0.0000000000000D+00
187  1.8600000000000D+00  0.0000000000000D+00  0.0000000000000D+00
188  1.8700000000000D+00  0.0000000000000D+00  0.0000000000000D+00
189  1.8800000000000D+00  0.0000000000000D+00  0.0000000000000D+00
190  1.8900000000000D+00  0.0000000000000D+00  0.0000000000000D+00
191  1.9000000000000D+00  0.0000000000000D+00  0.0000000000000D+00
192  1.9100000000000D+00  0.0000000000000D+00  0.0000000000000D+00
193  1.9200000000000D+00  0.0000000000000D+00  0.0000000000000D+00
194  1.9300000000000D+00  0.0000000000000D+00  0.0000000000000D+00
195  1.9400000000000D+00  0.0000000000000D+00  0.0000000000000D+00
196  1.9500000000000D+00  0.0000000000000D+00  0.0000000000000D+00
197  1.9600000000000D+00  0.0000000000000D+00  0.0000000000000D+00
198  1.9700000000000D+00  0.0000000000000D+00  0.0000000000000D+00
199  1.9800000000000D+00  0.0000000000000D+00  0.0000000000000D+00
200  1.9900000000000D+00  0.0000000000000D+00  0.0000000000000D+00
201  2.0000000000000D+00  0.0000000000000D+00  0.0000000000000D+00
202  2.0100000000000D+00  0.0000000000000D+00  0.0000000000000D+00
203  2.0200000000000D+00  0.0000000000000D+00  0.0000000000000D+00
204  2.0300000000000D+00  0.0000000000000D+00  0.0000000000000D+00
205  2.0400000000000D+00  0.0000000000000D+00  0.0000000000000D+00
206  2.0500000000000D+00  0.0000000000000D+00  0.0000000000000D+00
207  2.0600000000000D+00  0.0000000000000D+00  0.0000000000000D+00
208  2.0700000000000D+00  0.0000000000000D+00  0.0000000000000D+00
209  2.0800000000000D+00  0.0000000000000D+00  0.0000000000000D+00
210  2.0900000000000D+00  0.0000000000000D+00  0.0000000000000D+00
211  2.1000000000000D+00  0.0000000000000D+00  0.0000000000000D+00
212  2.1100000000000D+00  0.0000000000000D+00  0.0000000000000D+00
213  2.1200000000000D+00  0.0000000000000D+00  0.0000000000000D+00
214  2.1300000000000D+00  0.0000000000000D+00  0.0000000000000D+00
215  2.1400000000000D+00  0.0000000000000D+00  0.0000000000000D+00
216  2.1500000000000D+00  0.0000000000000D+00  0.0000000000000D+00
217  2.1600000000000D+00  0.0000000000000D+00  0.0000000000000D+00
218  2.1700000000000D+00  0.0000000000000D+00  0.0000000000000D+00
219  2.1800000000000D+00  0.0000000000000D+00  0.0000000000000D+00
220  2.1900000000000D+00  0.0000000000000D+00  0.0000000000000D+00
221  2.2000000000000D+00  0.0000000000000D+00  0.0000000000000D+00
222  2.2100000000000D+00  0.0000000000000D+00  0.0000000000000D+00
223  2.2200000000000D+00  0.0000000000000D+00  0.0000000000000D+00
224  2.2300000000000D+00  0.0000000000000D+00  0.0000000000000D+00
225  2.2400000000000D+00  0.0000000000000D+00  0.0000000000000D+00
226  2.2500000000000D+00  0.0000000000000D+00  0.0000000000000D+00
227  2.2600000000000D+00  0.0000000000000D+00  0.0000000000000D+00
228  2.2700000000000D+00  0.0000000000000D+00  0.0000000000000D+00
229  2.2800000000000D+00  0.0000000000000D+00  0.0000000000000D+00
230  2.2900000000000D+00  0.0000000000000D+00  0.0000000000000D+00
231  2.3000000000000D+00  0.0000000000000D+00  0.0000000000000D+00
232  2.3100000000000D+00  0.0000000000000D+00  0.0000000000000D+00
233  2.3200000000000D+00  0.0000000000000D+00  0.0000000000000D+00
234  2.3300000000000D+00  0.0000000000000D+00  0.0000000000000D+00
235  2.3400000000000D+00  0.0000000000000D+00  0.0000000000000D+00
236  2.3500000000000D+00  0.0000000000000D+00  0.0000000000000D+00
237  2.3600000000000D+00  0.0000000000000D+00  0.0000000000000D+00
238  2.3700000000000D+00  0.0000000000000D+00  0.0000000000000D+00
239  2.3800000000000D+00  0.0000000000000D+00  0.0000000000000D+00
240  2.3900000000000D+00  0.0000000000000D+00  0.0000000000000D+00
241  2.4000000000000D+00  0.0000000000000D+00  0.0000000000000D+00
242  2.4100000000000D+00  0.0000000000000D+00  0.0000000000000D+00
243  2.4200000000000D+00  0.0000000000000D+00  0.0000000000000D+00
244  2.4300000000000D+00  0.0000000000000D+00  0.0000000000000D+00
245  2.4400000000000D+00  0.0000000000000D+00  0.0000000000000D+00
246  2.4500000000000D+00  0.0000000000000D+00  0.0000000000000D+00
247  2.4600000000000D+00  0.0000000000000D+00  0.0000000000000D+00
248  2.4700000000000D+00  0.0000000000000D+00  0.0000000000000D+00
249  2.4800000000000D+00  0.0000000000000D+00  0.0000000000000D+00
250  2.4900000000000D+00  0.0000000000000D+00  0.0000000000000D+00
251  2.5000000000000D+00  0.0000000000000D+00  0.0000000000000D+00
252  2.5100000000000D+00  0.0000000000000D+00  0.0000000000000D+00
253  2.5200000000000D+00  0.0000000000000D+00  0.0000000000000D+00
254  2.5300000000000D+00  0.0000000000000D+00  0.0000000000000D+00
255  2.5400000000000D+00  0.0000000000000D+00  0.0000000000000D+00
256  2.5500000000000D+00  0.0000000000000D+00  0.0000000000000D+00
257  2.5600000000000D+00  0.0000000000000D+00  0.0000000000000D+00
258  2.5700000000000D+00  0.0000000000000D+00  0.0000000000000D+00
259  2.5800000000000D+00  0.0000000000000D+00  0.0000000000000D+00
260  2.5900000000000D+00  0.0000000000000D+00  0.0000000000000D+00
261  2.6000000000000D+00  0.0000000000000D+00  0.0000000000000D+00
262  2.6100000000000D+00  0.0000000000000D+00  0.0000000000000D+00
263  2.6200000000000D+00  0.0000000000000D+00  0.0000000000000D+00
264  2.6300000000000D+00  0.0000000000000D+00  0.0000000000000D+00
265  2.6400000000000D+00  0.0000000000000D+00  0.0000000000000D+00
266  2.6500000000000D+00  0.0000000000000D+00  0.0000000000000D+00
267  2.6600000000000D+00  0.0000000000000D+00  0.0000000000000D+00
268  2.6700000000000D+00  0.0000000000000D+00  0.0000000000000D+00
269  2.6800000000000D+00  0.0000000000000D+00  0.0000000000000D+00
270  2.6900000000000D+00  0.0000000000000D+00  0.0000000000000D+00
271  2.7000000000000D+00  0.0000000000000D+00  0.0000000000000D+00
272  2.7100000000000D+00  0.0000000000000D+00  0.0000000000000D+00
273  2.7200000000000D+00  0.0000000000000D+00  0.0000000000000D+00
274  2.7300000000000D+00  0.0000000000000D+00  0.0000000000000D+00
275  2.7400000000000D+00  0.0000000000000D+00  0.0000000000000D+00
276  2.7500000000000D+00  0.0000000000000D+00  0.0000000000000D+00
277  2.7600000000000D+00  0.0000000000000D+00  0.0000000000000D+00
278  2.7700000000000D+00  0.0000000000000D+00  0.0000000000000D+00
279  2.7800000000000D+00  0.0000000000000D+00  0.0000000000000D+00
280  2.7900000000000D+00  0.0000000000000D+00  0.0000000000000D+00
281  2.8000000000000D+00  0.0000000000000D+00  0.0000000000000D+00
282  2.8100000000000D+00  0.0000000000000D+00  0.0000000000000D+00
283  2.8200000000000D+00  0.0000000000000D+00  0.0000000000000D+00
284  2.8300000000000D+00  0.0000000000000D+00  0.0000000000000D+00
285  2.8400000000000D+00  0.0000000000000D+00  0.0000000000000D+00
286  2.8500000000000D+00  0.0000000000000D+00  0.0000000000000D+00
287  2.8600000000000D+00  0.0000000000000D+00  0.0000000000000D+00
288  2.8700000000000D+00  0.0000000000000D+00  0.0000000000000D+00
289  2.8800000000000D+00  0.0000000000000D+00  0.0000000000000D+00
290  2.8900000000000D+00  0.0000000000000D+00  0.0000000000000D+00
291  2.9000000000000D+00  0.0000000000000D+00  0.0000000000000D+00
292  2.9100000000000D+00  0.0000000000000D+00  0.0000000000000D+00
293  2.9200000000000D+00  0.0000000000000D+00  0.0000000000000D+00
294  2.9300000000000D+00  0.0000000000000D+00  0.0000000000000D+00
295  2.9400000000000D+00  0.0000000000000D+00  0.0000000000000D+00
296  2.9500000000000D+00  0.0000000000000D+00  0.0000000000000D+00
297  2.9600000000000D+00  0.0000000000000D+00  0.0000000000000D+00
298  2.9700000000000D+00  0.0000000000000D+00  0.0000000000000D+00
299  2.9800000000000D+00  0.0000000000000D+00  0.0000000000000D+00
300  2.9900000000000D+00  0.0000000000000D+00  0.0000000000000D+00
301  3.0000000000000D+00  0.0000000000000D+00  0.0000000000000D+00
302  3.0100000000000D+00  0.0000000000000D+00  0.0000000000000D+00
303  3.0200000000000D+00  0.0000000000000D+00  0.0000000000000D+00
304  3.0300000000000D+00  0.0000000000000D+00  0.0000000000000D+00
305  3.0400000000000D+00  0.0000000000000D+00  0.0000000000000D+00
306  3.0500000000000D+00  0.0000000000000D+00  0.0000000000000D+00
307  3.0600000000000D+00  0.0000000000000D+00  0.0000000000000D+00
308  3.0700000000000D+00  0.0000000000000D+00  0.0000000000000D+00
309  3.0800000000000D+00  0.0000000000000D+00  0.0000000000000D+00
310  3.0900000000000D+00  0.0000000000000D+00  0.0000000000000D+00
311  3.1000000000000D+00  0.0000000000000D+00  0.0000000000000D+00
312  3.1100000000000D+00  0.0000000000000D+00  0.0000000000000D+00
313  3.1200000000000D+00  0.0000000000000D+00  0.0000000000000D+00
314  3.1300000000000D+00  0.0000000000000D+00  0.0000000000000D+00
315  3.1400000000000D+00  0.0000000000000D+00  0.0000000000000D+00
316  3.1500000000000D+00  0.0000000000000D+00  0.0000000000000D+00
317  3.1600000000000D+00  0.0000000000000D+00  0.0000000000000D+00
318  3.1700000000000D+00  0.0000000000000D+00  0.0000000000000D+00
319  3.1800000000000D+00  0.0000000000000D+00  0.0000000000000D+00
320  3.1900000000000D+00  0.0000000000000D+00  0.0000000000000D+00
321  3.2000000000000D+00  0.0000000000000D+00  0.0000000000000D+00
322  3.2100000000000D+00  0.0000000000000D+00  0.0000000000000D+00
323  3.2200000000000D+00  0.0000000000000D+00  0.0000000000000D+00
324  3.2300000000000D+00  0.0000000000000D+00  0.0000000000000D+00
325  3.2400000000000D+00  0.0000000000000D+00  0.0000000000000D+00
326  3.2500000000000D+00  0.0000000000000D+00  0.0000000000000D+00
327  3.2600000000000D+00  0.0000000000000D+00  0.0000000000000D+00
328  3.2700000000000D+00  0.0000000000000D+00  0.0000000000000D+00
329  3.2800000000000D+00  0.0000000000000D+00  0.0000000000000D+00
330  3.2900000000000D+00  0.0000000000000D+00  0.0000000000000D+00
331  3.3000000000000D+00  0.0000000000000D+00  0.0000000000000D+00
332  3.3100000000000D+00  0.0000000000000D+00  0.0000000000000D+00
333  3.3200000000000D+00  0.0000000000000D+00  0.0000000000000D+00
334  3.3300000000000D+00  0.0000000000000D+00  0.0000000000000D+00
335  3.3400000000000D+00  0.0000000000000D+00  0.0000000000000D+00
336  3.3500000000000D+00  0.0000000000000D+00  0.0000000000000D+00
337  3.3600000000000D+00  0.0000000000000D+00  0.0000000000000D+00
338  3.3700000000000D+00  0.0000000000000D+00  0.0000000000000D+00
339  3.3800000000000D+00  0.0000000000000D+00  0.0000000000000D+00
340  3.3900000000000D+00  0.0000000000000D+00  0.0000000000000D+00
341  3.4000000000000D+00  0.0000000000000D+00  0.0000000000000D+00
342  3.4100000000000D+00  0.0000000000000D+00  0.0000000000000D+00
343  3.4200000000000D+00  0.0000000000000D+00  0.0000000000000D+00
344  3.4300000000000D+00  0.0000000000000D+00  0.0000000000000D+00
345  3.4400000000000D+00  0.0000000000000D+00  0.0000000000000D+00
346  3.4500000000000D+00  0.0000000000000D+00  0.0000000000000D+00
347  3.4600000000000D+00  0.0000000000000D+00  0.0000000000000D+00
348  3.4700000000000D+00  0.0000000000000D+00  0.0000000000000D+00
349  3.4800000000000D+00  0.0000000000000D+00  0.0000000000000D+00
350  3.4900000000000D+00  0.0000000000000D+00  0.0000000000000D+00
351  3.5000000000000D+00  0.0000000000000D+00  0.0000000000000D+00
352  3.5100000000000D+00  0.0000000000000D+00  0.0000000000000D+00
353  3.5200000000000D+00  0.0000000000000D+00  0.0000000000000D+00
354  3.5300000000000D+00  0.0000000000000D+00  0.0000000000000D+00
355  3.5400000000000D+00  0.0000000000000D+00  0.0000000000000D+00
356  3.5500000000000D+00  0.0000000000000D+00  0.0000000000000D+00
357  3.5600000000000D+00  0.0000000000000D+00  0.0000000000000D+00
358  3.5700000000000D+00  0.0000000000000D+00  0.0000000000000D+00
359  3.5800000000000D+00  0.0000000000000D+00  0.0000000000000D+00
360  3.5900000000000D+00  0.0000000000000D+00  0.0000000000000D+00
361  3.6000000000000D+00  0.0000000000000D+00  0.0000000000000D+00
362  3.6100000000000D+00  0.0000000000000D+00  0.0000000000000D+00
363  3.6200000000000D+00  0.0000000000000D+00  0.0000000000000D+00
364  3.6300000000000D+00  0.0000000000000D+00  0.0000000000000D+00
365  3.6400000000000D+00  0.0000000000000D+00  0.0000000000000D+00
366  3.6500000000000D+00  0.0000000000000D+00  0.0000000000000D+00
367  3.6600000000000D+00  0.0000000000000D+00  0.0000000000000D+00
368  3.6700000000000D+00  0.0000000000000D+00  0.0000000000000D+00
369  3.6800000000000D+00  0.0000000000000D+00  0.0000000000000D+00
370  3.6900000000000D+00  0.0000000000000D+00  0.0000000000000D+00
371  3.7000000000000D+00  0.0000000000000D+00  0.0000000000000D+00
372  3.7100000000000D+00  0.0000000000000D+00  0.0000000000000D+00
373  3.7200000000000D+00  0.0000000000000D+00  0.0000000000000D+00
374  3.7300000000000D+00  0.0000000000000D+00  0.0000000000000D+00
375  3.7400000000000D+00  0.0000000000000D+00  0.0000000000000D+00
376  3.7500000000000D+00  0.0000000000000D+00  0.0000000000000D+00
377  3.7600000000000D+00  0.0000000000000D+00  0.0000000000000D+00
378  3.7700000000000D+00  0.0000000000000D+00  0.0000000000000D+00
379  3.7800000000000D+00  0.0000000000000D+00  0.0000000000000D+00
380  3.7900000000000D+00  0.0000000000000D+00  0.0000000000000D+00
381  3.8000000000000D+00  0.0000000000000D+00  0.0000000000000D+00
382  3.8100000000000D+00  0.0000000000000D+00  0.0000000000000D+00
383  3.8200000000000D+00  0.0000000000000D+00  0.0000000000000D+00
384  3.8300000000000D+00  0.0000000000000D+00  0.0000000000000D+00
385  3.8400000000000D+00  0.0000000000000D+00  0.0000000000000D+00
386  3.8500000000000D+00  0.0000000000000D+00  0.0000000000000D+00
387  3.8600000000000D+00  0.0000000000000D+00  0.0000000000000D+00
388  3.8700000000000D+00  0.0000000000000D+00  0.0000000000000D+00
389  3.8800000000000D+00  0.0000000000000D+00  0.0000000000000D+00
390  3.8900000000000D+00  0.0000000000000D+00  0.0000000000000D+00
391  3.9000000000000D+00  0.0000000000000D+00  0.0000000000000D+00
392  3.9100000000000D+00  0.0000000000000D+00  0.0000000000000D+00
393  3.9200000000000D+00  0.0000000000000D+00  0.0000000000000D+00
394  3.9300000000000D+00  0.0000000000000D+00  0.0000000000000D+00
395  3.9400000000000D+00  0.0000000000000D+00  0.0000000000000D+00
396  3.9500000000000D+00  0.0000000000000D+00  0.0000000000000D+00
397  3.9600000000000D+00  0.0000000000000D+00  0.0000000000000D+00
398  3.9700000000000D+00  0.0000000000000D+00  0.0000000000000D+00
399  3.9800000000000D+00  0.0000000000000D+00  0.0000000000000D+00
400  3.9900000000000D+00  0.0000000000000D+00  0.0000000000000D+00
401  4.0000000000000D+00  0.0000000000000D+00  0.0000000000000D+00
402  4.0100000000000D+00  0.0000000000000D+00  0.0000000000000D+00
403  4.0200000000000D+00  0.0000000000000D+00  0.0000000000000D+00
404  4.0300000000000D+00  0.0000000000000D+00  0.0000000000000D+00
405  4.0400000000000D+00  0.0000000000000D+00  0.0000000000000D+00
406  4.0500000000000D+00  0.0000000000000D+00  0.0000000000000D+00
407  4.0600000000000D+00  0.0000000000000D+00  0.0000000000000D+00
408  4.0700000000000D+00  0.0000000000000D+00  0.0000000000000D+00
409  4.0800000000000D+00  0.0000000000000D+00  0.0000000000000D+00
410  4.0900000000000D+00  0.0000000000000D+00  0.0000000000000D+00
411  4.1000000000000D+00  0.0000000000000D+00  0.0000000000000D+00
412  4.1100000000000D+00  0.0000000000000D+00  0.0000000000000D+00
413  4.1200000000000D+00  0.0000000000000D+00  0.0000000000000D+00
414  4.1300000000000D+00  0.0000000000000D+00  0.0000000000000D+00
415  4.1400000000000D+00  0.0000000000000D+00  0.0000000000000D+00
416  4.1500000000000D+00  0.0000000000000D+00  0.0000000000000D+00
417  4.1600000000000D+00  0.0000000000000D+00  0.0000000000000D+00
418  4.1700000000000D+00  0.0000000000000D+00  0.0000000000000D+00
419  4.1800000000000D+00  0.0000000000000D+00  0.0000000000000D+00
420  4.1900000000000D+00  0.0000000000000D+00  0.0000000000000D+00
421  4.2000000000000D+00  0.0000000000000D+00  0.0000000000000D+00
422  4.2100000000000D+00  0.0000000000000D+00  0.0000000000000D+00
423  4.2200000000000D+00  0.0000000000000D+00  0.0000000000000D+00
424  4.2300000000000D+00  0.0000000000000D+00  0.0000000000000D+00
425  4.2400000000000D+00  0.0000000000000D+00  0.0000000000000D+00
426  4.2500000000000D+00  0.0000000000000D+00  0.0000000000000D+00
427  4.2600000000000D+00  0.0000000000000D+00  0.0000000000000D+00
428  4.2700000000000D+00  0.0000000000000D+00  0.0000000000000D+00
429  4.2800000000000D+00  0.0000000000000D+00  0.0000000000000D+00
430  4.2900000000000D+00  0.0000000000000D+00  0.0000000000000D+00
431  4.3000000000000D+00  0.0000000000000D+00  0.0000000000000D+00
432  4.3100000000000D+00  0.0000000000000D+00  0.0000000000000D+00
433  4.3200000000000D+00  0.0000000000000D+00  0.0000000000000D+00
434  4.3300000000000D+00  0.0000000000000D+00  0.0000000000000D+00
435  4.3400000000000D+00  0.0000000000000D+00  0.0000000000000D+00
436  4.3500000000000D+00  0.0000000000000D+00  0.0000000000000D+00
437  4.3600000000000D+00  0.0000000000000D+00  0.0000000000000D+00
438  4.3700000000000D+00  0.0000000000000D+00  0.0000000000000D+00
439  4.3800000000000D+00  0.0000000000000D+00  0.0000000000000D+00
440  4.3900000000000D+00  0.0000000000000D+00  0.0000000000000D+00
441  4.4000000000000D+00  0.0000000000000D+00  0.0000000000000D+00
442  4.4100000000000D+00  0.0000000000000D+00  0.0000000000000D+00
443  4.4200000000000D+00  0.0000000000000D+00  0.0000000000000D+00
444  4.4300000000000D+00  0.0000000000000D+00  0.0000000000000D+00