Kr    ONCVPSP  r_core=  1.76  1.51  1.80
36.0000      8.0000      160520    zatom,zion,pspd
8      11   2     4   600     0    pspcod,pspxc,lmax,lloc,mmax,r2well
5.99000000  7.00000000  0.00000000    rchrg fchrg qchrg
2     4     3     0    nproj
3                 extension_switch
4     4     0    nprojso
0                         8.1096729164455D-01  8.2189843857930D+00
1  0.0000000000000D+00  6.1564689457505D-10 -1.5488871296654D-10
2  1.0000000000000D-02 -1.9310414680989D-02  4.0049167547565D-02
3  2.0000000000000D-02 -3.8473608514501D-02  8.0041148769774D-02
4  3.0000000000000D-02 -5.7343860069243D-02  1.1991912128704D-01
5  4.0000000000000D-02 -7.5778430911052D-02  1.5962698673280D-01
6  5.0000000000000D-02 -9.3639017670944D-02  1.9910972310341D-01
7  6.0000000000000D-02 -1.1079315723631D-01  2.3831372563081D-01
8  7.0000000000000D-02 -1.2711557016811D-01  2.7718713253541D-01
9  8.0000000000000D-02 -1.4248942806270D-01  3.1568013217180D-01
10  9.0000000000000D-02 -1.5680753133533D-01  3.5374524827042D-01
11  1.0000000000000D-01 -1.6997338479708D-01  3.9133760020353D-01
12  1.1000000000000D-01 -1.8190215941888D-01  4.2841513546053D-01
13  1.2000000000000D-01 -1.9252152981615D-01  4.6493883180443D-01
14  1.3000000000000D-01 -2.0177237823415D-01  5.0087286689411D-01
15  1.4000000000000D-01 -2.0960935715685D-01  5.3618475349457D-01
16  1.5000000000000D-01 -2.1600130408620D-01  5.7084543875439D-01
17  1.6000000000000D-01 -2.2093150353310D-01  6.0482936640481D-01
18  1.7000000000000D-01 -2.2439779280930D-01  6.3811450112265D-01
19  1.8000000000000D-01 -2.2641250979883D-01  6.7068231469744D-01
20  1.9000000000000D-01 -2.2700228250029D-01  7.0251773404665D-01
21  2.0000000000000D-01 -2.2620766175472D-01  7.3360905152868D-01
22  2.1000000000000D-01 -2.2408260018989D-01  7.6394779840697D-01
23  2.2000000000000D-01 -2.2069378200631D-01  7.9352858271575D-01
24  2.3000000000000D-01 -2.1611980978716D-01  8.2234889316573D-01
25  2.4000000000000D-01 -2.1045025601851D-01  8.5040887110158D-01
26  2.5000000000000D-01 -2.0378458844225D-01  8.7771105287895D-01
27  2.6000000000000D-01 -1.9623097971888D-01  9.0426008536341D-01
28  2.7000000000000D-01 -1.8790501313619D-01  9.3006241756382D-01
29  2.8000000000000D-01 -1.7892829724992D-01  9.5512597169441D-01
30  2.9000000000000D-01 -1.6942700337376D-01  9.7945979721114D-01
31  3.0000000000000D-01 -1.5953034073474D-01  1.0030737115851D+00
32  3.1000000000000D-01 -1.4936898486953D-01  1.0259779317571D+00
33  3.2000000000000D-01 -1.3907347544715D-01  1.0481827003611D+00
34  3.3000000000000D-01 -1.2877260015809D-01  1.0696979109067D+00
35  3.4000000000000D-01 -1.1859178160263D-01  1.0905327361732D+00
36  3.5000000000000D-01 -1.0865148423894D-01  1.1106952640887D+00
37  3.6000000000000D-01 -9.9065658410930D-02  1.1301921453415D+00
38  3.7000000000000D-01 -8.9940238266825D-02  1.1490282569086D+00
39  3.8000000000000D-01 -8.1371710001673D-02  1.1672063855741D+00
40  3.9000000000000D-01 -7.3445766313750D-02  1.1847269353606D+00
41  4.0000000000000D-01 -6.6236062258934D-02  1.2015876626037D+00
42  4.1000000000000D-01 -5.9803086825239D-02  1.2177834421678D+00
43  4.2000000000000D-01 -5.4193163537219D-02  1.2333060680307D+00
44  4.3000000000000D-01 -4.9437592247186D-02  1.2481440911601D+00
45  4.4000000000000D-01 -4.5551942985072D-02  1.2622826972644D+00
46  4.5000000000000D-01 -4.2535511334425D-02  1.2757036266329D+00
47  4.6000000000000D-01 -4.0370943289348D-02  1.2883851378837D+00
48  4.7000000000000D-01 -3.9024035940896D-02  1.3003020170181D+00
49  4.8000000000000D-01 -3.8443718655379D-02  1.3114256327427D+00
50  4.9000000000000D-01 -3.8562217657955D-02  1.3217240385637D+00
51  5.0000000000000D-01 -3.9295405136744D-02  1.3311621216955D+00
52  5.1000000000000D-01 -4.0543332156108D-02  1.3397017983481D+00
53  5.2000000000000D-01 -4.2190942826309D-02  1.3473022544896D+00
54  5.3000000000000D-01 -4.4108965339860D-02  1.3539202306991D+00
55  5.4000000000000D-01 -4.6154973671993D-02  1.3595103492655D+00
56  5.5000000000000D-01 -4.8174611968277D-02  1.3640254812299D+00
57  5.6000000000000D-01 -5.0002971925081D-02  1.3674171506300D+00
58  5.7000000000000D-01 -5.1466111830664D-02  1.3696359727870D+00
59  5.8000000000000D-01 -5.2382704380136D-02  1.3706321230807D+00
60  5.9000000000000D-01 -5.2565798941739D-02  1.3703558322944D+00
61  6.0000000000000D-01 -5.1824682626341D-02  1.3687579042750D+00
62  6.1000000000000D-01 -4.9966823335317D-02  1.3657902513613D+00
63  6.2000000000000D-01 -4.6799876925129D-02  1.3614064427724D+00
64  6.3000000000000D-01 -4.2133739757925D-02  1.3555622609357D+00
65  6.4000000000000D-01 -3.5782627207175D-02  1.3482162605638D+00
66  6.5000000000000D-01 -2.7567158166835D-02  1.3393303251659D+00
67  6.6000000000000D-01 -1.7316425281364D-02  1.3288702156090D+00
68  6.7000000000000D-01 -4.8700304724252D-03  1.3168061053164D+00
69  6.8000000000000D-01  9.9199346053756D-03  1.3031130967252D+00
70  6.9000000000000D-01  2.7186983293801D-02  1.2877717136986D+00
71  7.0000000000000D-01  4.7048423511674D-02  1.2707683647243D+00
72  7.1000000000000D-01  6.9603661204563D-02  1.2520957719095D+00
73  7.2000000000000D-01  9.4932635848103D-02  1.2317533610175D+00
74  7.3000000000000D-01  1.2309440516628D-01  1.2097476080685D+00
75  7.4000000000000D-01  1.5412589503052D-01  1.1860923383553D+00
76  7.5000000000000D-01  1.8804082914033D-01  1.1608089740921D+00
77  7.6000000000000D-01  2.2482885156241D-01  1.1339267273274D+00
78  7.7000000000000D-01  2.6445485354479D-01  1.1054827351962D+00
79  7.8000000000000D-01  3.0685851422833D-01  1.0755221350701D+00
80  7.9000000000000D-01  3.5195406297418D-01  1.0440980776716D+00
81  8.0000000000000D-01  3.9963026902569D-01  1.0112716767535D+00
82  8.1000000000000D-01  4.4975066214647D-01  9.7711189449896D-01
83  8.2000000000000D-01  5.0215398574165D-01  9.4169536236636D-01
84  8.3000000000000D-01  5.5665488179784D-01  9.0510613768089D-01
85  8.4000000000000D-01  6.1304480478691D-01  8.6743539685878D-01
86  8.5000000000000D-01  6.7109315949393D-01  8.2878106673019D-01
87  8.6000000000000D-01  7.3054865556850D-01  7.8924739600179D-01
88  8.7000000000000D-01  7.9114086948368D-01  7.4894446946266D-01
89  8.8000000000000D-01  8.5258200253901D-01  7.0798766808115D-01
90  8.9000000000000D-01  9.1456882158275D-01  6.6649707866220D-01
91  9.0000000000000D-01  9.7678476727449D-01  6.2459685722755D-01
92  9.1000000000000D-01  1.0389022129809D+00  5.8241455074176D-01
93  9.2000000000000D-01  1.1005848558121D+00  5.4008038222873D-01
94  9.3000000000000D-01  1.1614902198818D+00  4.9772650470403D-01
95  9.4000000000000D-01  1.2212722506241D+00  4.5548622968175D-01
96  9.5000000000000D-01  1.2795839779396D+00  4.1349323629945D-01
97  9.6000000000000D-01  1.3360802250836D+00  3.7188076733570D-01
98  9.7000000000000D-01  1.3904203395592D+00  3.3078081857090D-01
99  9.8000000000000D-01  1.4422709218461D+00  2.9032332806066D-01
100  9.9000000000000D-01  1.4913085275959D+00  2.5063537194951D-01
101  1.0000000000000D+00  1.5372223189428D+00  2.1184037345161D-01
102  1.0100000000000D+00  1.5797166408266D+00  1.7405733156609D-01
103  1.0200000000000D+00  1.6185134987166D+00  1.3740007596869D-01
104  1.0300000000000D+00  1.6533549148298D+00  1.0197655434210D-01
105  1.0400000000000D+00  1.6840051408578D+00  6.7888158167591D-02
106  1.0500000000000D+00  1.7102527063973D+00  3.5229092695893D-02
107  1.0600000000000D+00  1.7319122835799D+00  4.0857964748683D-03
108  1.0700000000000D+00  1.7488263499374D+00 -2.5463584588849D-02
109  1.0800000000000D+00  1.7608666333263D+00 -5.3349664125458D-02
110  1.0900000000000D+00  1.7679353245297D+00 -7.9512219115548D-02
111  1.1000000000000D+00  1.7699660453401D+00 -1.0390052715577D-01
112  1.1100000000000D+00  1.7669245618200D+00 -1.2647363420754D-01
113  1.1200000000000D+00  1.7588092349490D+00 -1.4720055052085D-01
114  1.1300000000000D+00  1.7456512031283D+00 -1.6606037302050D-01
115  1.1400000000000D+00  1.7275142935281D+00 -1.8304233310541D-01
116  1.1500000000000D+00  1.7044946614888D+00 -1.9814576940000D-01
117  1.1600000000000D+00  1.6767201598079D+00 -2.1138002568867D-01
118  1.1700000000000D+00  1.6443494423124D+00 -2.2276427494563D-01
119  1.1800000000000D+00  1.6075708086236D+00 -2.3232727103837D-01
120  1.1900000000000D+00  1.5666007987779D+00 -2.4010703014995D-01
121  1.2000000000000D+00  1.5216825495097D+00 -2.4615044480203D-01
122  1.2100000000000D+00  1.4730839258553D+00 -2.5051283385843D-01
123  1.2200000000000D+00  1.4210954437354D+00 -2.5325743242484D-01
124  1.2300000000000D+00  1.3660280009547D+00 -2.5445482603803D-01
125  1.2400000000000D+00  1.3082104364986D+00 -2.5418233419973D-01
126  1.2500000000000D+00  1.2479869391109D+00 -2.5252334861543D-01
127  1.2600000000000D+00  1.1857143271532D+00 -2.4956663177093D-01
128  1.2700000000000D+00  1.1217592240240D+00 -2.4540558211183D-01
129  1.2800000000000D+00  1.0564951535005D+00 -2.4013747212944D-01
130  1.2900000000000D+00  9.9029958014645D-01 -2.3386266586295D-01
131  1.3000000000000D+00  9.2355092111000D-01 -2.2668382268784D-01
132  1.3100000000000D+00  8.5662555493029D-01 -2.1870509408606D-01
133  1.3200000000000D+00  7.8989485386351D-01 -2.1003132033041D-01
134  1.3300000000000D+00  7.2372226540239D-01 -2.0076723385959D-01
135  1.3400000000000D+00  6.5846046801658D-01 -1.9101667594782D-01
136  1.3500000000000D+00  5.9444862668518D-01 -1.8088183343233D-01
137  1.3600000000000D+00  5.3200977053324D-01 -1.7046250147422D-01
138  1.3700000000000D+00  4.7144831592876D-01 -1.5985537857685D-01
139  1.3800000000000D+00  4.1304775644770D-01 -1.4915339962658D-01
140  1.3900000000000D+00  3.5706853666707D-01 -1.3844511160311D-01
141  1.4000000000000D+00  3.0374613133823D-01 -1.2781409776070D-01
142  1.4100000000000D+00  2.5328934166963D-01 -1.1733845362805D-01
143  1.4200000000000D+00  2.0587882391750D-01 -1.0709031903301D-01
144  1.4300000000000D+00  1.6166586308157D-01 -9.7135469770585D-02
145  1.4400000000000D+00  1.2077139546371D-01 -8.7532970232092D-02
146  1.4500000000000D+00  8.3285293961489D-02 -7.8334890886755D-02
147  1.4600000000000D+00  4.9265908284475D-02 -6.9586089396801D-02
148  1.4700000000000D+00  1.8739894647181D-02 -6.1324061858099D-02
149  1.4800000000000D+00 -8.2977785531848D-03 -5.3578845826742D-02
150  1.4900000000000D+00 -3.1883289350230D-02 -4.6373034668813D-02
151  1.5000000000000D+00 -5.2083664602771D-02 -3.9721772251353D-02
152  1.5100000000000D+00 -6.8996232379072D-02 -3.3632817149511D-02
153  1.5200000000000D+00 -8.2745560695932D-02 -2.8107024005449D-02
154  1.5300000000000D+00 -9.3480543443433D-02 -2.3138839915437D-02
155  1.5400000000000D+00 -1.0137074339961D-01 -1.8716975812611D-02
156  1.5500000000000D+00 -1.0660353921233D-01 -1.4824969863100D-02
157  1.5600000000000D+00 -1.0938252723426D-01 -1.1441580136664D-02
158  1.5700000000000D+00 -1.0992509844373D-01 -8.5413198842354D-03
159  1.5800000000000D+00 -1.0845997236786D-01 -6.0950120803562D-03
160  1.5900000000000D+00 -1.0522468430078D-01 -4.0703641484144D-03
161  1.6000000000000D+00 -1.0046299712159D-01 -2.4325632619777D-03
162  1.6100000000000D+00 -9.4422278913432D-02 -1.1448839880003D-03
163  1.6200000000000D+00 -8.7350865987413D-02 -1.6930253964311D-04
164  1.6300000000000D+00 -7.9495438926687D-02  5.3288911032367D-04
165  1.6400000000000D+00 -7.1098434774021D-02  1.0004751350170D-03
166  1.6500000000000D+00 -6.2395524837089D-02  1.2717211977442D-03
167  1.6600000000000D+00 -5.3613176104624D-02  1.3837978168956D-03
168  1.6700000000000D+00 -4.4966328329371D-02  1.3722298372003D-03
169  1.6800000000000D+00 -3.6656198944028D-02  1.2703751129067D-03
170  1.6900000000000D+00 -2.8868249511764D-02  1.1089409161602D-03
171  1.7000000000000D+00 -2.1772281460469D-02  9.1568984257626D-04
172  1.7100000000000D+00 -1.5517805844113D-02  7.1481592750381D-04
173  1.7200000000000D+00 -1.0207995939845D-02  5.2451240802621D-04
174  1.7300000000000D+00 -5.9502031594967D-03  3.6077196335623D-04
175  1.7400000000000D+00 -2.9503932387372D-03  2.4763213736526D-04
176  1.7500000000000D+00 -1.2558800290776D-03  1.9279158113104D-04
177  1.7600000000000D+00 -4.6752443937606D-04  1.4967043116242D-04
178  1.7700000000000D+00 -1.1881742309524D-04  7.4415477059300D-05
179  1.7800000000000D+00 -4.5518220812194D-06  5.0313265044683D-06
180  1.7900000000000D+00  8.0518908432923D-06 -1.4382662012317D-05
181  1.8000000000000D+00  9.9477469996493D-07 -3.7933698987634D-06
182  1.8100000000000D+00 -3.6137801468264D-06  3.1412727957110D-06
183  1.8200000000000D+00 -1.6627209203977D-06  1.6243070127950D-06
184  1.8300000000000D+00  1.1028203082759D-06 -3.4902533358071D-07
185  1.8400000000000D+00  9.5660258810908D-07 -3.0274971807594D-07
186  1.8500000000000D+00  0.0000000000000D+00  0.0000000000000D+00
187  1.8600000000000D+00  0.0000000000000D+00  0.0000000000000D+00
188  1.8700000000000D+00  0.0000000000000D+00  0.0000000000000D+00
189  1.8800000000000D+00  0.0000000000000D+00  0.0000000000000D+00
190  1.8900000000000D+00  0.0000000000000D+00  0.0000000000000D+00
191  1.9000000000000D+00  0.0000000000000D+00  0.0000000000000D+00
192  1.9100000000000D+00  0.0000000000000D+00  0.0000000000000D+00
193  1.9200000000000D+00  0.0000000000000D+00  0.0000000000000D+00
194  1.9300000000000D+00  0.0000000000000D+00  0.0000000000000D+00
195  1.9400000000000D+00  0.0000000000000D+00  0.0000000000000D+00
196  1.9500000000000D+00  0.0000000000000D+00  0.0000000000000D+00
197  1.9600000000000D+00  0.0000000000000D+00  0.0000000000000D+00
198  1.9700000000000D+00  0.0000000000000D+00  0.0000000000000D+00
199  1.9800000000000D+00  0.0000000000000D+00  0.0000000000000D+00
200  1.9900000000000D+00  0.0000000000000D+00  0.0000000000000D+00
201  2.0000000000000D+00  0.0000000000000D+00  0.0000000000000D+00
202  2.0100000000000D+00  0.0000000000000D+00  0.0000000000000D+00
203  2.0200000000000D+00  0.0000000000000D+00  0.0000000000000D+00
204  2.0300000000000D+00  0.0000000000000D+00  0.0000000000000D+00
205  2.0400000000000D+00  0.0000000000000D+00  0.0000000000000D+00
206  2.0500000000000D+00  0.0000000000000D+00  0.0000000000000D+00
207  2.0600000000000D+00  0.0000000000000D+00  0.0000000000000D+00
208  2.0700000000000D+00  0.0000000000000D+00  0.0000000000000D+00
209  2.0800000000000D+00  0.0000000000000D+00  0.0000000000000D+00
210  2.0900000000000D+00  0.0000000000000D+00  0.0000000000000D+00
211  2.1000000000000D+00  0.0000000000000D+00  0.0000000000000D+00
212  2.1100000000000D+00  0.0000000000000D+00  0.0000000000000D+00
213  2.1200000000000D+00  0.0000000000000D+00  0.0000000000000D+00
214  2.1300000000000D+00  0.0000000000000D+00  0.0000000000000D+00
215  2.1400000000000D+00  0.0000000000000D+00  0.0000000000000D+00
216  2.1500000000000D+00  0.0000000000000D+00  0.0000000000000D+00
217  2.1600000000000D+00  0.0000000000000D+00  0.0000000000000D+00
218  2.1700000000000D+00  0.0000000000000D+00  0.0000000000000D+00
219  2.1800000000000D+00  0.0000000000000D+00  0.0000000000000D+00
220  2.1900000000000D+00  0.0000000000000D+00  0.0000000000000D+00
221  2.2000000000000D+00  0.0000000000000D+00  0.0000000000000D+00
222  2.2100000000000D+00  0.0000000000000D+00  0.0000000000000D+00
223  2.2200000000000D+00  0.0000000000000D+00  0.0000000000000D+00
224  2.2300000000000D+00  0.0000000000000D+00  0.0000000000000D+00
225  2.2400000000000D+00  0.0000000000000D+00  0.0000000000000D+00
226  2.2500000000000D+00  0.0000000000000D+00  0.0000000000000D+00
227  2.2600000000000D+00  0.0000000000000D+00  0.0000000000000D+00
228  2.2700000000000D+00  0.0000000000000D+00  0.0000000000000D+00
229  2.2800000000000D+00  0.0000000000000D+00  0.0000000000000D+00
230  2.2900000000000D+00  0.0000000000000D+00  0.0000000000000D+00
231  2.3000000000000D+00  0.0000000000000D+00  0.0000000000000D+00
232  2.3100000000000D+00  0.0000000000000D+00  0.0000000000000D+00
233  2.3200000000000D+00  0.0000000000000D+00  0.0000000000000D+00
234  2.3300000000000D+00  0.0000000000000D+00  0.0000000000000D+00
235  2.3400000000000D+00  0.0000000000000D+00  0.0000000000000D+00
236  2.3500000000000D+00  0.0000000000000D+00  0.0000000000000D+00
237  2.3600000000000D+00  0.0000000000000D+00  0.0000000000000D+00
238  2.3700000000000D+00  0.0000000000000D+00  0.0000000000000D+00
239  2.3800000000000D+00  0.0000000000000D+00  0.0000000000000D+00
240  2.3900000000000D+00  0.0000000000000D+00  0.0000000000000D+00
241  2.4000000000000D+00  0.0000000000000D+00  0.0000000000000D+00
242  2.4100000000000D+00  0.0000000000000D+00  0.0000000000000D+00
243  2.4200000000000D+00  0.0000000000000D+00  0.0000000000000D+00
244  2.4300000000000D+00  0.0000000000000D+00  0.0000000000000D+00
245  2.4400000000000D+00  0.0000000000000D+00  0.0000000000000D+00
246  2.4500000000000D+00  0.0000000000000D+00  0.0000000000000D+00
247  2.4600000000000D+00  0.0000000000000D+00  0.0000000000000D+00
248  2.4700000000000D+00  0.0000000000000D+00  0.0000000000000D+00
249  2.4800000000000D+00  0.0000000000000D+00  0.0000000000000D+00
250  2.4900000000000D+00  0.0000000000000D+00  0.0000000000000D+00
251  2.5000000000000D+00  0.0000000000000D+00  0.0000000000000D+00
252  2.5100000000000D+00  0.0000000000000D+00  0.0000000000000D+00
253  2.5200000000000D+00  0.0000000000000D+00  0.0000000000000D+00
254  2.5300000000000D+00  0.0000000000000D+00  0.0000000000000D+00
255  2.5400000000000D+00  0.0000000000000D+00  0.0000000000000D+00
256  2.5500000000000D+00  0.0000000000000D+00  0.0000000000000D+00
257  2.5600000000000D+00  0.0000000000000D+00  0.0000000000000D+00
258  2.5700000000000D+00  0.0000000000000D+00  0.0000000000000D+00
259  2.5800000000000D+00  0.0000000000000D+00  0.0000000000000D+00
260  2.5900000000000D+00  0.0000000000000D+00  0.0000000000000D+00
261  2.6000000000000D+00  0.0000000000000D+00  0.0000000000000D+00
262  2.6100000000000D+00  0.0000000000000D+00  0.0000000000000D+00
263  2.6200000000000D+00  0.0000000000000D+00  0.0000000000000D+00
264  2.6300000000000D+00  0.0000000000000D+00  0.0000000000000D+00
265  2.6400000000000D+00  0.0000000000000D+00  0.0000000000000D+00
266  2.6500000000000D+00  0.0000000000000D+00  0.0000000000000D+00
267  2.6600000000000D+00  0.0000000000000D+00  0.0000000000000D+00
268  2.6700000000000D+00  0.0000000000000D+00  0.0000000000000D+00
269  2.6800000000000D+00  0.0000000000000D+00  0.0000000000000D+00
270  2.6900000000000D+00  0.0000000000000D+00  0.0000000000000D+00
271  2.7000000000000D+00  0.0000000000000D+00  0.0000000000000D+00
272  2.7100000000000D+00  0.0000000000000D+00  0.0000000000000D+00
273  2.7200000000000D+00  0.0000000000000D+00  0.0000000000000D+00
274  2.7300000000000D+00  0.0000000000000D+00  0.0000000000000D+00
275  2.7400000000000D+00  0.0000000000000D+00  0.0000000000000D+00
276  2.7500000000000D+00  0.0000000000000D+00  0.0000000000000D+00
277  2.7600000000000D+00  0.0000000000000D+00  0.0000000000000D+00
278  2.7700000000000D+00  0.0000000000000D+00  0.0000000000000D+00
279  2.7800000000000D+00  0.0000000000000D+00  0.0000000000000D+00
280  2.7900000000000D+00  0.0000000000000D+00  0.0000000000000D+00
281  2.8000000000000D+00  0.0000000000000D+00  0.0000000000000D+00
282  2.8100000000000D+00  0.0000000000000D+00  0.0000000000000D+00
283  2.8200000000000D+00  0.0000000000000D+00  0.0000000000000D+00
284  2.8300000000000D+00  0.0000000000000D+00  0.0000000000000D+00
285  2.8400000000000D+00  0.0000000000000D+00  0.0000000000000D+00
286  2.8500000000000D+00  0.0000000000000D+00  0.0000000000000D+00
287  2.8600000000000D+00  0.0000000000000D+00  0.0000000000000D+00
288  2.8700000000000D+00  0.0000000000000D+00  0.0000000000000D+00
289  2.8800000000000D+00  0.0000000000000D+00  0.0000000000000D+00
290  2.8900000000000D+00  0.0000000000000D+00  0.0000000000000D+00
291  2.9000000000000D+00  0.0000000000000D+00  0.0000000000000D+00
292  2.9100000000000D+00  0.0000000000000D+00  0.0000000000000D+00
293  2.9200000000000D+00  0.0000000000000D+00  0.0000000000000D+00
294  2.9300000000000D+00  0.0000000000000D+00  0.0000000000000D+00
295  2.9400000000000D+00  0.0000000000000D+00  0.0000000000000D+00
296  2.9500000000000D+00  0.0000000000000D+00  0.0000000000000D+00
297  2.9600000000000D+00  0.0000000000000D+00  0.0000000000000D+00
298  2.9700000000000D+00  0.0000000000000D+00  0.0000000000000D+00
299  2.9800000000000D+00  0.0000000000000D+00  0.0000000000000D+00
300  2.9900000000000D+00  0.0000000000000D+00  0.0000000000000D+00
301  3.0000000000000D+00  0.0000000000000D+00  0.0000000000000D+00
302  3.0100000000000D+00  0.0000000000000D+00  0.0000000000000D+00
303  3.0200000000000D+00  0.0000000000000D+00  0.0000000000000D+00
304  3.0300000000000D+00  0.0000000000000D+00  0.0000000000000D+00
305  3.0400000000000D+00  0.0000000000000D+00  0.0000000000000D+00
306  3.0500000000000D+00  0.0000000000000D+00  0.0000000000000D+00
307  3.0600000000000D+00  0.0000000000000D+00  0.0000000000000D+00
308  3.0700000000000D+00  0.0000000000000D+00  0.0000000000000D+00
309  3.0800000000000D+00  0.0000000000000D+00  0.0000000000000D+00
310  3.0900000000000D+00  0.0000000000000D+00  0.0000000000000D+00
311  3.1000000000000D+00  0.0000000000000D+00  0.0000000000000D+00
312  3.1100000000000D+00  0.0000000000000D+00  0.0000000000000D+00
313  3.1200000000000D+00  0.0000000000000D+00  0.0000000000000D+00
314  3.1300000000000D+00  0.0000000000000D+00  0.0000000000000D+00
315  3.1400000000000D+00  0.0000000000000D+00  0.0000000000000D+00
316  3.1500000000000D+00  0.0000000000000D+00  0.0000000000000D+00
317  3.1600000000000D+00  0.0000000000000D+00  0.0000000000000D+00
318  3.1700000000000D+00  0.0000000000000D+00  0.0000000000000D+00
319  3.1800000000000D+00  0.0000000000000D+00  0.0000000000000D+00
320  3.1900000000000D+00  0.0000000000000D+00  0.0000000000000D+00
321  3.2000000000000D+00  0.0000000000000D+00  0.0000000000000D+00
322  3.2100000000000D+00  0.0000000000000D+00  0.0000000000000D+00
323  3.2200000000000D+00  0.0000000000000D+00  0.0000000000000D+00
324  3.2300000000000D+00  0.0000000000000D+00  0.0000000000000D+00
325  3.2400000000000D+00  0.0000000000000D+00  0.0000000000000D+00
326  3.2500000000000D+00  0.0000000000000D+00  0.0000000000000D+00
327  3.2600000000000D+00  0.0000000000000D+00  0.0000000000000D+00
328  3.2700000000000D+00  0.0000000000000D+00  0.0000000000000D+00
329  3.2800000000000D+00  0.0000000000000D+00  0.0000000000000D+00
330  3.2900000000000D+00  0.0000000000000D+00  0.0000000000000D+00
331  3.3000000000000D+00  0.0000000000000D+00  0.0000000000000D+00
332  3.3100000000000D+00  0.0000000000000D+00  0.0000000000000D+00
333  3.3200000000000D+00  0.0000000000000D+00  0.0000000000000D+00
334  3.3300000000000D+00  0.0000000000000D+00  0.0000000000000D+00
335  3.3400000000000D+00  0.0000000000000D+00  0.0000000000000D+00
336  3.3500000000000D+00  0.0000000000000D+00  0.0000000000000D+00
337  3.3600000000000D+00  0.0000000000000D+00  0.0000000000000D+00
338  3.3700000000000D+00  0.0000000000000D+00  0.0000000000000D+00
339  3.3800000000000D+00  0.0000000000000D+00  0.0000000000000D+00
340  3.3900000000000D+00  0.0000000000000D+00  0.0000000000000D+00
341  3.4000000000000D+00  0.0000000000000D+00  0.0000000000000D+00
342  3.4100000000000D+00  0.0000000000000D+00  0.0000000000000D+00
343  3.4200000000000D+00  0.0000000000000D+00  0.0000000000000D+00
344  3.4300000000000D+00  0.0000000000000D+00  0.0000000000000D+00
345  3.4400000000000D+00  0.0000000000000D+00  0.0000000000000D+00
346  3.4500000000000D+00  0.0000000000000D+00  0.0000000000000D+00
347  3.4600000000000D+00  0.0000000000000D+00  0.0000000000000D+00
348  3.4700000000000D+00  0.0000000000000D+00  0.0000000000000D+00
349  3.4800000000000D+00  0.0000000000000D+00  0.0000000000000D+00
350  3.4900000000000D+00  0.0000000000000D+00  0.0000000000000D+00
351  3.5000000000000D+00  0.0000000000000D+00  0.0000000000000D+00
352  3.5100000000000D+00  0.0000000000000D+00  0.0000000000000D+00
353  3.5200000000000D+00  0.0000000000000D+00  0.0000000000000D+00
354  3.5300000000000D+00  0.0000000000000D+00  0.0000000000000D+00
355  3.5400000000000D+00  0.0000000000000D+00  0.0000000000000D+00
356  3.5500000000000D+00  0.0000000000000D+00  0.0000000000000D+00
357  3.5600000000000D+00  0.0000000000000D+00  0.0000000000000D+00
358  3.5700000000000D+00  0.0000000000000D+00  0.0000000000000D+00
359  3.5800000000000D+00  0.0000000000000D+00  0.0000000000000D+00
360  3.5900000000000D+00  0.0000000000000D+00  0.0000000000000D+00
361  3.6000000000000D+00  0.0000000000000D+00  0.0000000000000D+00
362  3.6100000000000D+00  0.0000000000000D+00  0.0000000000000D+00
363  3.6200000000000D+00  0.0000000000000D+00  0.0000000000000D+00
364  3.6300000000000D+00  0.0000000000000D+00  0.0000000000000D+00
365  3.6400000000000D+00  0.0000000000000D+00  0.0000000000000D+00
366  3.6500000000000D+00  0.0000000000000D+00  0.0000000000000D+00
367  3.6600000000000D+00  0.0000000000000D+00  0.0000000000000D+00
368  3.6700000000000D+00  0.0000000000000D+00  0.0000000000000D+00
369  3.6800000000000D+00  0.0000000000000D+00  0.0000000000000D+00
370  3.6900000000000D+00  0.0000000000000D+00  0.0000000000000D+00
371  3.7000000000000D+00  0.0000000000000D+00  0.0000000000000D+00
372  3.7100000000000D+00  0.0000000000000D+00  0.0000000000000D+00
373  3.7200000000000D+00  0.0000000000000D+00  0.0000000000000D+00
374  3.7300000000000D+00  0.0000000000000D+00  0.0000000000000D+00
375  3.7400000000000D+00  0.0000000000000D+00  0.0000000000000D+00
376  3.7500000000000D+00  0.0000000000000D+00  0.0000000000000D+00
377  3.7600000000000D+00  0.0000000000000D+00  0.0000000000000D+00
378  3.7700000000000D+00  0.0000000000000D+00  0.0000000000000D+00
379  3.7800000000000D+00  0.0000000000000D+00  0.0000000000000D+00
380  3.7900000000000D+00  0.0000000000000D+00  0.0000000000000D+00
381  3.8000000000000D+00  0.0000000000000D+00  0.0000000000000D+00
382  3.8100000000000D+00  0.0000000000000D+00  0.0000000000000D+00
383  3.8200000000000D+00  0.0000000000000D+00  0.0000000000000D+00
384  3.8300000000000D+00  0.0000000000000D+00  0.0000000000000D+00
385  3.8400000000000D+00  0.0000000000000D+00  0.0000000000000D+00
386  3.8500000000000D+00  0.0000000000000D+00  0.0000000000000D+00
387  3.8600000000000D+00  0.0000000000000D+00  0.0000000000000D+00
388  3.8700000000000D+00  0.0000000000000D+00  0.0000000000000D+00
389  3.8800000000000D+00  0.0000000000000D+00  0.0000000000000D+00
390  3.8900000000000D+00  0.0000000000000D+00  0.0000000000000D+00
391  3.9000000000000D+00  0.0000000000000D+00  0.0000000000000D+00
392  3.9100000000000D+00  0.0000000000000D+00  0.0000000000000D+00
393  3.9200000000000D+00  0.0000000000000D+00  0.0000000000000D+00
394  3.9300000000000D+00  0.0000000000000D+00  0.0000000000000D+00
395  3.9400000000000D+00  0.0000000000000D+00  0.0000000000000D+00
396  3.9500000000000D+00  0.0000000000000D+00  0.0000000000000D+00
397  3.9600000000000D+00  0.0000000000000D+00  0.0000000000000D+00
398  3.9700000000000D+00  0.0000000000000D+00  0.0000000000000D+00
399  3.9800000000000D+00  0.0000000000000D+00  0.0000000000000D+00
400  3.9900000000000D+00  0.0000000000000D+00  0.0000000000000D+00
401  4.0000000000000D+00  0.0000000000000D+00  0.0000000000000D+00
402  4.0100000000000D+00  0.0000000000000D+00  0.0000000000000D+00
403  4.0200000000000D+00  0.0000000000000D+00  0.0000000000000D+00
404  4.0300000000000D+00  0.0000000000000D+00  0.0000000000000D+00
405  4.0400000000000D+00  0.0000000000000D+00  0.0000000000000D+00
406  4.0500000000000D+00  0.0000000000000D+00  0.0000000000000D+00
407  4.0600000000000D+00  0.0000000000000D+00  0.0000000000000D+00
408  4.0700000000000D+00  0.0000000000000D+00  0.0000000000000D+00
409  4.0800000000000D+00  0.0000000000000D+00  0.0000000000000D+00
410  4.0900000000000D+00  0.0000000000000D+00  0.0000000000000D+00
411  4.1000000000000D+00  0.0000000000000D+00  0.0000000000000D+00
412  4.1100000000000D+00  0.0000000000000D+00  0.0000000000000D+00
413  4.1200000000000D+00  0.0000000000000D+00  0.0000000000000D+00
414  4.1300000000000D+00  0.0000000000000D+00  0.0000000000000D+00
415  4.1400000000000D+00  0.0000000000000D+00  0.0000000000000D+00
416  4.1500000000000D+00  0.0000000000000D+00  0.0000000000000D+00
417  4.1600000000000D+00  0.0000000000000D+00  0.0000000000000D+00
418  4.1700000000000D+00  0.0000000000000D+00  0.0000000000000D+00
419  4.1800000000000D+00  0.0000000000000D+00  0.0000000000000D+00
420  4.1900000000000D+00  0.0000000000000D+00  0.0000000000000D+00
421  4.2000000000000D+00  0.0000000000000D+00  0.0000000000000D+00
422  4.2100000000000D+00  0.0000000000000D+00  0.0000000000000D+00
423  4.2200000000000D+00  0.0000000000000D+00  0.0000000000000D+00
424  4.2300000000000D+00  0.0000000000000D+00  0.0000000000000D+00
425  4.2400000000000D+00  0.0000000000000D+00  0.0000000000000D+00
426  4.2500000000000D+00  0.0000000000000D+00  0.0000000000000D+00
427  4.2600000000000D+00  0.0000000000000D+00  0.0000000000000D+00
428  4.2700000000000D+00  0.0000000000000D+00  0.0000000000000D+00
429  4.2800000000000D+00  0.0000000000000D+00  0.0000000000000D+00
430  4.2900000000000D+00  0.0000000000000D+00  0.0000000000000D+00
431  4.3000000000000D+00  0.0000000000000D+00  0.0000000000000D+00
432  4.3100000000000D+00  0.0000000000000D+00  0.0000000000000D+00
433  4.3200000000000D+00  0.0000000000000D+00  0.0000000000000D+00
434  4.3300000000000D+00  0.0000000000000D+00  0.0000000000000D+00
435  4.3400000000000D+00  0.0000000000000D+00  0.0000000000000D+00
436  4.3500000000000D+00  0.0000000000000D+00  0.0000000000000D+00
437  4.3600000000000D+00  0.0000000000000D+00  0.0000000000000D+00
438  4.3700000000000D+00  0.0000000000000D+00  0.0000000000000D+00
439  4.3800000000000D+00  0.0000000000000D+00  0.0000000000000D+00
440  4.3900000000000D+00  0.0000000000000D+00  0.0000000000000D+00
441  4.4000000000000D+00  0.0000000000000D+00  0.0000000000000D+00
442  4.4100000000000D+00  0.0000000000000D+00  0.0000000000000D+00
443  4.4200000000000D+00  0.0000000000000D+00  0.0000000000000D+00