Co    ONCVPSP-3.2.3.1  r_core=   1.26190   1.32357   1.66026
27.0000     17.0000      170504    zatom,zion,pspd
8      11   2     4   600     0    pspcod,pspxc,lmax,lloc,mmax,r2well
5.99000000  6.00000000  0.00000000    rchrg fchrg qchrg
2     2     2     0     0    nproj
1     1           extension_switch
0                         6.2911464145863D+00 -6.7722452653202D-01
1  0.0000000000000D+00  4.9031778637243D-11  3.7838266409018D-09
2  1.0000000000000D-02  9.2557987036786D-02  3.1469038803343D-02
3  2.0000000000000D-02  1.8484373212641D-01  6.2974077262014D-02
4  3.0000000000000D-02  2.7658588688821D-01  9.4547343172443D-02
5  4.0000000000000D-02  3.6751488804086D-01  1.2621358951831D-01
6  5.0000000000000D-02  4.5736384485459D-01  1.5798652835048D-01
7  6.0000000000000D-02  5.4586942045035D-01  1.8986546748926D-01
8  7.0000000000000D-02  6.3277270483519D-01  2.2183221315700D-01
9  8.0000000000000D-02  7.1782007751442D-01  2.5384829786570D-01
10  9.0000000000000D-02  8.0076405746202D-01  2.8585258824339D-01
11  1.0000000000000D-01  8.8136413816382D-01  3.1775932204527D-01
12  1.1000000000000D-01  9.5938760537437D-01  3.4945661742760D-01
13  1.2000000000000D-01  1.0346103351505D+00  3.8080549074303D-01
14  1.3000000000000D-01  1.1068175696451D+00  4.1163941173172D-01
15  1.4000000000000D-01  1.1758046680635D+00  4.4176441712740D-01
16  1.5000000000000D-01  1.2413778301115D+00  4.7095979547200D-01
17  1.6000000000000D-01  1.3033547891893D+00  4.9897934744227D-01
18  1.7000000000000D-01  1.3615654725256D+00  5.2555321734817D-01
19  1.8000000000000D-01  1.4158526253957D+00  5.5039028277696D-01
20  1.9000000000000D-01  1.4660723965269D+00  5.7318108074507D-01
21  2.0000000000000D-01  1.5120948817773D+00  5.9360124029483D-01
22  2.1000000000000D-01  1.5538046231716D+00  6.1131538335063D-01
23  2.2000000000000D-01  1.5911010603978D+00  6.2598144793679D-01
24  2.3000000000000D-01  1.6238989319120D+00  6.3725538066794D-01
25  2.4000000000000D-01  1.6521286228716D+00  6.4479613884906D-01
26  2.5000000000000D-01  1.6757364572125D+00  6.4827093666621D-01
27  2.6000000000000D-01  1.6946849313136D+00  6.4736066489290D-01
28  2.7000000000000D-01  1.7089528868493D+00  6.4176540936189D-01
29  2.8000000000000D-01  1.7185356206192D+00  6.3120999022491D-01
30  2.9000000000000D-01  1.7234449293618D+00  6.1544944179959D-01
31  3.0000000000000D-01  1.7237090878121D+00  5.9427435162871D-01
32  3.1000000000000D-01  1.7193727585407D+00  5.6751597728549D-01
33  3.2000000000000D-01  1.7104968324252D+00  5.3505106046461D-01
34  3.3000000000000D-01  1.6971581989445D+00  4.9680626001284D-01
35  3.4000000000000D-01  1.6794494458488D+00  4.5276212876105D-01
36  3.5000000000000D-01  1.6574784881522D+00  4.0295656330074D-01
37  3.6000000000000D-01  1.6313681268043D+00  3.4748766116634D-01
38  3.7000000000000D-01  1.6012555378278D+00  2.8651592618510D-01
39  3.8000000000000D-01  1.5672916931572D+00  2.2026576997868D-01
40  3.9000000000000D-01  1.5296407148671D+00  1.4902626566324D-01
41  4.0000000000000D-01  1.4884791649476D+00  7.3151118612040D-02
42  4.1000000000000D-01  1.4439952732500D+00 -6.9421713890110D-03
43  4.2000000000000D-01  1.3963881066938D+00 -9.0773972253867D-02
44  4.3000000000000D-01  1.3458666832877D+00 -1.7780501121024D-01
45  4.4000000000000D-01  1.2926490349648D+00 -2.6743969042782D-01
46  4.5000000000000D-01  1.2369612236702D+00 -3.5903021029501D-01
47  4.6000000000000D-01  1.1790363155512D+00 -4.5188147307959D-01
48  4.7000000000000D-01  1.1191133184888D+00 -5.4525672893042D-01
49  4.8000000000000D-01  1.0574360885681D+00 -6.3838391566399D-01
50  4.9000000000000D-01  9.9425221141035D-01 -7.3046263366934D-01
51  5.0000000000000D-01  9.2981186457195D-01 -8.2067168769991D-01
52  5.1000000000000D-01  8.6436666745949D-01 -9.0817711843542D-01
53  5.2000000000000D-01  7.9816852540533D-01 -9.9214063861573D-01
54  5.3000000000000D-01  7.3146847469260D-01 -1.0717283813955D+00
55  5.4000000000000D-01  6.6451553541244D-01 -1.1461198624580D+00
56  5.5000000000000D-01  5.9755557907347D-01 -1.2145170524422D+00
57  5.6000000000000D-01  5.3083021786450D-01 -1.2761534524890D+00
58  5.7000000000000D-01  4.6457572239473D-01 -1.3303030632477D+00
59  5.8000000000000D-01  3.9902197459947D-01 -1.3762891365793D+00
60  5.9000000000000D-01  3.3439146230565D-01 -1.4134925994737D+00
61  6.0000000000000D-01  2.7089832169847D-01 -1.4413600413987D+00
62  6.1000000000000D-01  2.0874743362213D-01 -1.4594111594089D+00
63  6.2000000000000D-01  1.4813357928371D-01 -1.4672455598643D+00
64  6.3000000000000D-01  8.9240660512637D-02 -1.4645488215124D+00
65  6.4000000000000D-01  3.2240989265548D-02 -1.4510977318665D+00
66  6.5000000000000D-01 -2.2705349446421D-02 -1.4267646173217D+00
67  6.6000000000000D-01 -7.5451057579624D-02 -1.3915206970486D+00
68  6.7000000000000D-01 -1.2586210398713D-01 -1.3454384013883D+00
69  6.8000000000000D-01 -1.7381812183197D-01 -1.2886926071299D+00
70  6.9000000000000D-01 -2.1921272170217D-01 -1.2215607544834D+00
71  7.0000000000000D-01 -2.6195371930436D-01 -1.1444218236251D+00
72  7.1000000000000D-01 -3.0196327728725D-01 -1.0577541623395D+00
73  7.2000000000000D-01 -3.3917796142346D-01 -9.6213217019612D-01
74  7.3000000000000D-01 -3.7354871205427D-01 -8.5822185879510D-01
75  7.4000000000000D-01 -4.0504073237162D-01 -7.4677532171336D-01
76  7.5000000000000D-01 -4.3363329576248D-01 -6.2862416161518D-01
77  7.6000000000000D-01 -4.5931947507466D-01 -5.0467193553657D-01
78  7.7000000000000D-01 -4.8210579726468D-01 -3.7588569225244D-01
79  7.8000000000000D-01 -5.0201182745593D-01 -2.4328668782473D-01
80  7.9000000000000D-01 -5.1906968696313D-01 -1.0794037671155D-01
81  8.0000000000000D-01 -5.3332351031889D-01  2.9054213975675D-02
82  8.1000000000000D-01 -5.4482884676750D-01  1.6657561048961D-01
83  8.2000000000000D-01 -5.5365201206330D-01  3.0349139452196D-01
84  8.3000000000000D-01 -5.5986939672353D-01  4.3866995095056D-01
85  8.4000000000000D-01 -5.6356673713438D-01  5.7099232627472D-01
86  8.5000000000000D-01 -5.6483835609175D-01  6.9936405980864D-01
87  8.6000000000000D-01 -5.6378637947297D-01  8.2272684846962D-01
88  8.7000000000000D-01 -5.6051993578167D-01  9.4006990651635D-01
89  8.8000000000000D-01 -5.5515434528435D-01  1.0504408838784D+00
90  8.9000000000000D-01 -5.4781030536529D-01  1.1529562107663D+00
91  9.0000000000000D-01 -5.3861307856659D-01  1.2468107420287D+00
92  9.1000000000000D-01 -5.2769168955545D-01  1.3312865821808D+00
93  9.2000000000000D-01 -5.1517813697385D-01  1.4057609810819D+00
94  9.3000000000000D-01 -5.0120662577967D-01  1.4697132008006D+00
95  9.4000000000000D-01 -4.8591282528853D-01  1.5227302661473D+00
96  9.5000000000000D-01 -4.6943315767620D-01  1.5645115245352D+00
97  9.6000000000000D-01 -4.5190412120819D-01  1.5948719551070D+00
98  9.7000000000000D-01 -4.3346165193357D-01  1.6137441822185D+00
99  9.8000000000000D-01 -4.1424052701496D-01  1.6211791643762D+00
100  9.9000000000000D-01 -3.9437381228430D-01  1.6173455460544D+00
101  1.0000000000000D+00 -3.7399235601606D-01  1.6025276764566D+00
102  1.0100000000000D+00 -3.5322433028369D-01  1.5771223165028D+00
103  1.0200000000000D+00 -3.3219482066401D-01  1.5416340717161D+00
104  1.0300000000000D+00 -3.1102546444014D-01  1.4966696052302D+00
105  1.0400000000000D+00 -2.8983413685925D-01  1.4429307009687D+00
106  1.0500000000000D+00 -2.6873468441303D-01  1.3812062624367D+00
107  1.0600000000000D+00 -2.4783670360041D-01  1.3123633457086D+00
108  1.0700000000000D+00 -2.2724536305688D-01  1.2373373396785D+00
109  1.0800000000000D+00 -2.0706126650470D-01  1.1571214171261D+00
110  1.0900000000000D+00 -1.8738035352631D-01  1.0727553908515D+00
111  1.1000000000000D+00 -1.6829383478463D-01  9.8531411751239D-01
112  1.1100000000000D+00 -1.4988815800558D-01  8.9589559835347D-01
113  1.1200000000000D+00 -1.3224500072599D-01  8.0560893168957D-01
114  1.1300000000000D+00 -1.1544128563682D-01  7.1556227438001D-01
115  1.1400000000000D+00 -9.9549214192359D-02  6.2685097030749D-01
116  1.1500000000000D+00 -8.4636314070476D-02  5.4054600406052D-01
117  1.1600000000000D+00 -7.0765496033985D-02  4.5768293407219D-01
118  1.1700000000000D+00 -5.7995116145299D-02  3.7925146972237D-01
119  1.1800000000000D+00 -4.6379038348353D-02  3.0618582318143D-01
120  1.1900000000000D+00 -3.5966686029290D-02  2.3935552771838D-01
121  1.2000000000000D+00 -2.6803112819953D-02  1.7955870595837D-01
122  1.2100000000000D+00 -1.8929042736157D-02  1.2751524803206D-01
123  1.2200000000000D+00 -1.2382114336753D-02  8.3856256811523D-02
124  1.2300000000000D+00 -7.1903868345949D-03  4.9058946753600D-02
125  1.2400000000000D+00 -3.3583716017384D-03  2.3325746922205D-02
126  1.2500000000000D+00 -1.0066719951025D-03  7.6267801548155D-03
127  1.2600000000000D+00 -3.4371494468756D-05  1.1420437657957D-03
128  1.2700000000000D+00  8.8939048847718D-05 -1.8567278670149D-04
129  1.2800000000000D+00 -1.9403503221341D-05  6.2467055586023D-05
130  1.2900000000000D+00 -1.1640551483963D-05  4.2656576320095D-05
131  1.3000000000000D+00  5.3551339838402D-06 -1.5070347100197D-05
132  1.3100000000000D+00 -4.7069111625367D-08 -8.4385896276832D-07
133  1.3200000000000D+00 -6.2301960214968D-08 -1.1169547439919D-06
134  1.3300000000000D+00  0.0000000000000D+00  0.0000000000000D+00
135  1.3400000000000D+00  0.0000000000000D+00  0.0000000000000D+00
136  1.3500000000000D+00  0.0000000000000D+00  0.0000000000000D+00
137  1.3600000000000D+00  0.0000000000000D+00  0.0000000000000D+00
138  1.3700000000000D+00  0.0000000000000D+00  0.0000000000000D+00
139  1.3800000000000D+00  0.0000000000000D+00  0.0000000000000D+00
140  1.3900000000000D+00  0.0000000000000D+00  0.0000000000000D+00
141  1.4000000000000D+00  0.0000000000000D+00  0.0000000000000D+00
142  1.4100000000000D+00  0.0000000000000D+00  0.0000000000000D+00
143  1.4200000000000D+00  0.0000000000000D+00  0.0000000000000D+00
144  1.4300000000000D+00  0.0000000000000D+00  0.0000000000000D+00
145  1.4400000000000D+00  0.0000000000000D+00  0.0000000000000D+00
146  1.4500000000000D+00  0.0000000000000D+00  0.0000000000000D+00
147  1.4600000000000D+00  0.0000000000000D+00  0.0000000000000D+00
148  1.4700000000000D+00  0.0000000000000D+00  0.0000000000000D+00
149  1.4800000000000D+00  0.0000000000000D+00  0.0000000000000D+00
150  1.4900000000000D+00  0.0000000000000D+00  0.0000000000000D+00
151  1.5000000000000D+00  0.0000000000000D+00  0.0000000000000D+00
152  1.5100000000000D+00  0.0000000000000D+00  0.0000000000000D+00
153  1.5200000000000D+00  0.0000000000000D+00  0.0000000000000D+00
154  1.5300000000000D+00  0.0000000000000D+00  0.0000000000000D+00
155  1.5400000000000D+00  0.0000000000000D+00  0.0000000000000D+00
156  1.5500000000000D+00  0.0000000000000D+00  0.0000000000000D+00
157  1.5600000000000D+00  0.0000000000000D+00  0.0000000000000D+00
158  1.5700000000000D+00  0.0000000000000D+00  0.0000000000000D+00
159  1.5800000000000D+00  0.0000000000000D+00  0.0000000000000D+00
160  1.5900000000000D+00  0.0000000000000D+00  0.0000000000000D+00
161  1.6000000000000D+00  0.0000000000000D+00  0.0000000000000D+00
162  1.6100000000000D+00  0.0000000000000D+00  0.0000000000000D+00
163  1.6200000000000D+00  0.0000000000000D+00  0.0000000000000D+00
164  1.6300000000000D+00  0.0000000000000D+00  0.0000000000000D+00
165  1.6400000000000D+00  0.0000000000000D+00  0.0000000000000D+00
166  1.6500000000000D+00  0.0000000000000D+00  0.0000000000000D+00
167  1.6600000000000D+00  0.0000000000000D+00  0.0000000000000D+00
168  1.6700000000000D+00  0.0000000000000D+00  0.0000000000000D+00
169  1.6800000000000D+00  0.0000000000000D+00  0.0000000000000D+00
170  1.6900000000000D+00  0.0000000000000D+00  0.0000000000000D+00
171  1.7000000000000D+00  0.0000000000000D+00  0.0000000000000D+00
172  1.7100000000000D+00  0.0000000000000D+00  0.0000000000000D+00
173  1.7200000000000D+00  0.0000000000000D+00  0.0000000000000D+00
174  1.7300000000000D+00  0.0000000000000D+00  0.0000000000000D+00
175  1.7400000000000D+00  0.0000000000000D+00  0.0000000000000D+00
176  1.7500000000000D+00  0.0000000000000D+00  0.0000000000000D+00
177  1.7600000000000D+00  0.0000000000000D+00  0.0000000000000D+00
178  1.7700000000000D+00  0.0000000000000D+00  0.0000000000000D+00
179  1.7800000000000D+00  0.0000000000000D+00  0.0000000000000D+00
180  1.7900000000000D+00  0.0000000000000D+00  0.0000000000000D+00
181  1.8000000000000D+00  0.0000000000000D+00  0.0000000000000D+00
182  1.8100000000000D+00  0.0000000000000D+00  0.0000000000000D+00
183  1.8200000000000D+00  0.0000000000000D+00  0.0000000000000D+00
184  1.8300000000000D+00  0.0000000000000D+00  0.0000000000000D+00
185  1.8400000000000D+00  0.0000000000000D+00  0.0000000000000D+00
186  1.8500000000000D+00  0.0000000000000D+00  0.0000000000000D+00
187  1.8600000000000D+00  0.0000000000000D+00  0.0000000000000D+00
188  1.8700000000000D+00  0.0000000000000D+00  0.0000000000000D+00
189  1.8800000000000D+00  0.0000000000000D+00  0.0000000000000D+00
190  1.8900000000000D+00  0.0000000000000D+00  0.0000000000000D+00
191  1.9000000000000D+00  0.0000000000000D+00  0.0000000000000D+00
192  1.9100000000000D+00  0.0000000000000D+00  0.0000000000000D+00
193  1.9200000000000D+00  0.0000000000000D+00  0.0000000000000D+00
194  1.9300000000000D+00  0.0000000000000D+00  0.0000000000000D+00
195  1.9400000000000D+00  0.0000000000000D+00  0.0000000000000D+00
196  1.9500000000000D+00  0.0000000000000D+00  0.0000000000000D+00
197  1.9600000000000D+00  0.0000000000000D+00  0.0000000000000D+00
198  1.9700000000000D+00  0.0000000000000D+00  0.0000000000000D+00
199  1.9800000000000D+00  0.0000000000000D+00  0.0000000000000D+00
200  1.9900000000000D+00  0.0000000000000D+00  0.0000000000000D+00
201  2.0000000000000D+00  0.0000000000000D+00  0.0000000000000D+00
202  2.0100000000000D+00  0.0000000000000D+00  0.0000000000000D+00
203  2.0200000000000D+00  0.0000000000000D+00  0.0000000000000D+00
204  2.0300000000000D+00  0.0000000000000D+00  0.0000000000000D+00
205  2.0400000000000D+00  0.0000000000000D+00  0.0000000000000D+00
206  2.0500000000000D+00  0.0000000000000D+00  0.0000000000000D+00
207  2.0600000000000D+00  0.0000000000000D+00  0.0000000000000D+00
208  2.0700000000000D+00  0.0000000000000D+00  0.0000000000000D+00
209  2.0800000000000D+00  0.0000000000000D+00  0.0000000000000D+00
210  2.0900000000000D+00  0.0000000000000D+00  0.0000000000000D+00
211  2.1000000000000D+00  0.0000000000000D+00  0.0000000000000D+00
212  2.1100000000000D+00  0.0000000000000D+00  0.0000000000000D+00
213  2.1200000000000D+00  0.0000000000000D+00  0.0000000000000D+00
214  2.1300000000000D+00  0.0000000000000D+00  0.0000000000000D+00
215  2.1400000000000D+00  0.0000000000000D+00  0.0000000000000D+00
216  2.1500000000000D+00  0.0000000000000D+00  0.0000000000000D+00
217  2.1600000000000D+00  0.0000000000000D+00  0.0000000000000D+00
218  2.1700000000000D+00  0.0000000000000D+00  0.0000000000000D+00
219  2.1800000000000D+00  0.0000000000000D+00  0.0000000000000D+00
220  2.1900000000000D+00  0.0000000000000D+00  0.0000000000000D+00
221  2.2000000000000D+00  0.0000000000000D+00  0.0000000000000D+00
222  2.2100000000000D+00  0.0000000000000D+00  0.0000000000000D+00
223  2.2200000000000D+00  0.0000000000000D+00  0.0000000000000D+00
224  2.2300000000000D+00  0.0000000000000D+00  0.0000000000000D+00
225  2.2400000000000D+00  0.0000000000000D+00  0.0000000000000D+00
226  2.2500000000000D+00  0.0000000000000D+00  0.0000000000000D+00
227  2.2600000000000D+00  0.0000000000000D+00  0.0000000000000D+00
228  2.2700000000000D+00  0.0000000000000D+00  0.0000000000000D+00
229  2.2800000000000D+00  0.0000000000000D+00  0.0000000000000D+00
230  2.2900000000000D+00  0.0000000000000D+00  0.0000000000000D+00
231  2.3000000000000D+00  0.0000000000000D+00  0.0000000000000D+00
232  2.3100000000000D+00  0.0000000000000D+00  0.0000000000000D+00
233  2.3200000000000D+00  0.0000000000000D+00  0.0000000000000D+00
234  2.3300000000000D+00  0.0000000000000D+00  0.0000000000000D+00
235  2.3400000000000D+00  0.0000000000000D+00  0.0000000000000D+00
236  2.3500000000000D+00  0.0000000000000D+00  0.0000000000000D+00
237  2.3600000000000D+00  0.0000000000000D+00  0.0000000000000D+00
238  2.3700000000000D+00  0.0000000000000D+00  0.0000000000000D+00
239  2.3800000000000D+00  0.0000000000000D+00  0.0000000000000D+00
240  2.3900000000000D+00  0.0000000000000D+00  0.0000000000000D+00
241  2.4000000000000D+00  0.0000000000000D+00  0.0000000000000D+00
242  2.4100000000000D+00  0.0000000000000D+00  0.0000000000000D+00
243  2.4200000000000D+00  0.0000000000000D+00  0.0000000000000D+00
244  2.4300000000000D+00  0.0000000000000D+00  0.0000000000000D+00
245  2.4400000000000D+00  0.0000000000000D+00  0.0000000000000D+00
246  2.4500000000000D+00  0.0000000000000D+00  0.0000000000000D+00
247  2.4600000000000D+00  0.0000000000000D+00  0.0000000000000D+00
248  2.4700000000000D+00  0.0000000000000D+00  0.0000000000000D+00
249  2.4800000000000D+00  0.0000000000000D+00  0.0000000000000D+00
250  2.4900000000000D+00  0.0000000000000D+00  0.0000000000000D+00
251  2.5000000000000D+00  0.0000000000000D+00  0.0000000000000D+00
252  2.5100000000000D+00  0.0000000000000D+00  0.0000000000000D+00
253  2.5200000000000D+00  0.0000000000000D+00  0.0000000000000D+00
254  2.5300000000000D+00  0.0000000000000D+00  0.0000000000000D+00
255  2.5400000000000D+00  0.0000000000000D+00  0.0000000000000D+00
256  2.5500000000000D+00  0.0000000000000D+00  0.0000000000000D+00
257  2.5600000000000D+00  0.0000000000000D+00  0.0000000000000D+00
258  2.5700000000000D+00  0.0000000000000D+00  0.0000000000000D+00
259  2.5800000000000D+00  0.0000000000000D+00  0.0000000000000D+00
260  2.5900000000000D+00  0.0000000000000D+00  0.0000000000000D+00
261  2.6000000000000D+00  0.0000000000000D+00  0.0000000000000D+00
262  2.6100000000000D+00  0.0000000000000D+00  0.0000000000000D+00
263  2.6200000000000D+00  0.0000000000000D+00  0.0000000000000D+00
264  2.6300000000000D+00  0.0000000000000D+00  0.0000000000000D+00
265  2.6400000000000D+00  0.0000000000000D+00  0.0000000000000D+00
266  2.6500000000000D+00  0.0000000000000D+00  0.0000000000000D+00
267  2.6600000000000D+00  0.0000000000000D+00  0.0000000000000D+00
268  2.6700000000000D+00  0.0000000000000D+00  0.0000000000000D+00
269  2.6800000000000D+00  0.0000000000000D+00  0.0000000000000D+00
270  2.6900000000000D+00  0.0000000000000D+00  0.0000000000000D+00
271  2.7000000000000D+00  0.0000000000000D+00  0.0000000000000D+00
272  2.7100000000000D+00  0.0000000000000D+00  0.0000000000000D+00
273  2.7200000000000D+00  0.0000000000000D+00  0.0000000000000D+00
274  2.7300000000000D+00  0.0000000000000D+00  0.0000000000000D+00
275  2.7400000000000D+00  0.0000000000000D+00  0.0000000000000D+00
276  2.7500000000000D+00  0.0000000000000D+00  0.0000000000000D+00
277  2.7600000000000D+00  0.0000000000000D+00  0.0000000000000D+00
278  2.7700000000000D+00  0.0000000000000D+00  0.0000000000000D+00
279  2.7800000000000D+00  0.0000000000000D+00  0.0000000000000D+00
280  2.7900000000000D+00  0.0000000000000D+00  0.0000000000000D+00
281  2.8000000000000D+00  0.0000000000000D+00  0.0000000000000D+00
282  2.8100000000000D+00  0.0000000000000D+00  0.0000000000000D+00
283  2.8200000000000D+00  0.0000000000000D+00  0.0000000000000D+00
284  2.8300000000000D+00  0.0000000000000D+00  0.0000000000000D+00
285  2.8400000000000D+00  0.0000000000000D+00  0.0000000000000D+00
286  2.8500000000000D+00  0.0000000000000D+00  0.0000000000000D+00
287  2.8600000000000D+00  0.0000000000000D+00  0.0000000000000D+00
288  2.8700000000000D+00  0.0000000000000D+00  0.0000000000000D+00
289  2.8800000000000D+00  0.0000000000000D+00  0.0000000000000D+00
290  2.8900000000000D+00  0.0000000000000D+00  0.0000000000000D+00
291  2.9000000000000D+00  0.0000000000000D+00  0.0000000000000D+00
292  2.9100000000000D+00  0.0000000000000D+00  0.0000000000000D+00
293  2.9200000000000D+00  0.0000000000000D+00  0.0000000000000D+00
294  2.9300000000000D+00  0.0000000000000D+00  0.0000000000000D+00
295  2.9400000000000D+00  0.0000000000000D+00  0.0000000000000D+00
296  2.9500000000000D+00  0.0000000000000D+00  0.0000000000000D+00
297  2.9600000000000D+00  0.0000000000000D+00  0.0000000000000D+00
298  2.9700000000000D+00  0.0000000000000D+00  0.0000000000000D+00
299  2.9800000000000D+00  0.0000000000000D+00  0.0000000000000D+00
300  2.9900000000000D+00  0.0000000000000D+00  0.0000000000000D+00
301  3.0000000000000D+00  0.0000000000000D+00  0.0000000000000D+00
302  3.0100000000000D+00  0.0000000000000D+00  0.0000000000000D+00
303  3.0200000000000D+00  0.0000000000000D+00  0.0000000000000D+00
304  3.0300000000000D+00  0.0000000000000D+00  0.0000000000000D+00
305  3.0400000000000D+00  0.0000000000000D+00  0.0000000000000D+00
306  3.0500000000000D+00  0.0000000000000D+00  0.0000000000000D+00
307  3.0600000000000D+00  0.0000000000000D+00  0.0000000000000D+00
308  3.0700000000000D+00  0.0000000000000D+00  0.0000000000000D+00
309  3.0800000000000D+00  0.0000000000000D+00  0.0000000000000D+00
310  3.0900000000000D+00  0.0000000000000D+00  0.0000000000000D+00
311  3.1000000000000D+00  0.0000000000000D+00  0.0000000000000D+00
312  3.1100000000000D+00  0.0000000000000D+00  0.0000000000000D+00
313  3.1200000000000D+00  0.0000000000000D+00  0.0000000000000D+00
314  3.1300000000000D+00  0.0000000000000D+00  0.0000000000000D+00
315  3.1400000000000D+00  0.0000000000000D+00  0.0000000000000D+00
316  3.1500000000000D+00  0.0000000000000D+00  0.0000000000000D+00
317  3.1600000000000D+00  0.0000000000000D+00  0.0000000000000D+00
318  3.1700000000000D+00  0.0000000000000D+00  0.0000000000000D+00
319  3.1800000000000D+00  0.0000000000000D+00  0.0000000000000D+00
320  3.1900000000000D+00  0.0000000000000D+00  0.0000000000000D+00
321  3.2000000000000D+00  0.0000000000000D+00  0.0000000000000D+00
322  3.2100000000000D+00  0.0000000000000D+00  0.0000000000000D+00
323  3.2200000000000D+00  0.0000000000000D+00  0.0000000000000D+00
324  3.2300000000000D+00  0.0000000000000D+00  0.0000000000000D+00
325  3.2400000000000D+00  0.0000000000000D+00  0.0000000000000D+00
326  3.2500000000000D+00  0.0000000000000D+00  0.0000000000000D+00
327  3.2600000000000D+00  0.0000000000000D+00  0.0000000000000D+00
328  3.2700000000000D+00  0.0000000000000D+00  0.0000000000000D+00
329  3.2800000000000D+00  0.0000000000000D+00  0.0000000000000D+00
330  3.2900000000000D+00  0.0000000000000D+00  0.0000000000000D+00
331  3.3000000000000D+00  0.0000000000000D+00  0.0000000000000D+00
332  3.3100000000000D+00  0.0000000000000D+00  0.0000000000000D+00
333  3.3200000000000D+00  0.0000000000000D+00  0.0000000000000D+00
334  3.3300000000000D+00  0.0000000000000D+00  0.0000000000000D+00
335  3.3400000000000D+00  0.0000000000000D+00  0.0000000000000D+00
336  3.3500000000000D+00  0.0000000000000D+00  0.0000000000000D+00
337  3.3600000000000D+00  0.0000000000000D+00  0.0000000000000D+00
338  3.3700000000000D+00  0.0000000000000D+00  0.0000000000000D+00
339  3.3800000000000D+00  0.0000000000000D+00  0.0000000000000D+00
340  3.3900000000000D+00  0.0000000000000D+00  0.0000000000000D+00
341  3.4000000000000D+00  0.0000000000000D+00  0.0000000000000D+00
342  3.4100000000000D+00  0.0000000000000D+00  0.0000000000000D+00
343  3.4200000000000D+00  0.0000000000000D+00  0.0000000000000D+00
344  3.4300000000000D+00  0.0000000000000D+00  0.0000000000000D+00
345  3.4400000000000D+00  0.0000000000000D+00  0.0000000000000D+00
346  3.4500000000000D+00  0.0000000000000D+00  0.0000000000000D+00
347  3.4600000000000D+00  0.0000000000000D+00  0.0000000000000D+00
348  3.4700000000000D+00  0.0000000000000D+00  0.0000000000000D+00
349  3.4800000000000D+00  0.0000000000000D+00  0.0000000000000D+00
350  3.4900000000000D+00  0.0000000000000D+00  0.0000000000000D+00
351  3.5000000000000D+00  0.0000000000000D+00  0.0000000000000D+00
352  3.5100000000000D+00  0.0000000000000D+00  0.0000000000000D+00
353  3.5200000000000D+00  0.0000000000000D+00  0.0000000000000D+00
354  3.5300000000000D+00  0.0000000000000D+00  0.0000000000000D+00
355  3.5400000000000D+00  0.0000000000000D+00  0.0000000000000D+00
356  3.5500000000000D+00  0.0000000000000D+00  0.0000000000000D+00
357  3.5600000000000D+00  0.0000000000000D+00  0.0000000000000D+00
358  3.5700000000000D+00  0.0000000000000D+00  0.0000000000000D+00
359  3.5800000000000D+00  0.0000000000000D+00  0.0000000000000D+00
360  3.5900000000000D+00  0.0000000000000D+00  0.0000000000000D+00
361  3.6000000000000D+00  0.0000000000000D+00  0.0000000000000D+00
362  3.6100000000000D+00  0.0000000000000D+00  0.0000000000000D+00
363  3.6200000000000D+00  0.0000000000000D+00  0.0000000000000D+00
364  3.6300000000000D+00  0.0000000000000D+00  0.0000000000000D+00
365  3.6400000000000D+00  0.0000000000000D+00  0.0000000000000D+00
366  3.6500000000000D+00  0.0000000000000D+00  0.0000000000000D+00
367  3.6600000000000D+00  0.0000000000000D+00  0.0000000000000D+00
368  3.6700000000000D+00  0.0000000000000D+00  0.0000000000000D+00
369  3.6800000000000D+00  0.0000000000000D+00  0.0000000000000D+00
370  3.6900000000000D+00  0.0000000000000D+00  0.0000000000000D+00
371  3.7000000000000D+00  0.0000000000000D+00  0.0000000000000D+00
372  3.7100000000000D+00  0.0000000000000D+00  0.0000000000000D+00
373  3.7200000000000D+00  0.0000000000000D+00  0.0000000000000D+00
374  3.7300000000000D+00  0.0000000000000D+00  0.0000000000000D+00
375  3.7400000000000D+00  0.0000000000000D+00  0.0000000000000D+00
376  3.7500000000000D+00  0.0000000000000D+00  0.0000000000000D+00
377  3.7600000000000D+00  0.0000000000000D+00  0.0000000000000D+00
378  3.7700000000000D+00  0.0000000000000D+00  0.0000000000000D+00
379  3.7800000000000D+00  0.0000000000000D+00  0.0000000000000D+00
380  3.7900000000000D+00  0.0000000000000D+00  0.0000000000000D+00
381  3.8000000000000D+00  0.0000000000000D+00  0.0000000000000D+00
382  3.8100000000000D+00  0.0000000000000D+00  0.0000000000000D+00
383  3.8200000000000D+00  0.0000000000000D+00  0.0000000000000D+00
384  3.8300000000000D+00  0.0000000000000D+00  0.0000000000000D+00
385  3.8400000000000D+00  0.0000000000000D+00  0.0000000000000D+00
386  3.8500000000000D+00  0.0000000000000D+00  0.0000000000000D+00
387  3.8600000000000D+00  0.0000000000000D+00  0.0000000000000D+00
388  3.8700000000000D+00  0.0000000000000D+00  0.0000000000000D+00
389  3.8800000000000D+00  0.0000000000000D+00  0.0000000000000D+00
390  3.8900000000000D+00  0.0000000000000D+00  0.0000000000000D+00
391  3.9000000000000D+00  0.0000000000000D+00  0.0000000000000D+00
392  3.9100000000000D+00  0.0000000000000D+00  0.0000000000000D+00
393  3.9200000000000D+00  0.0000000000000D+00  0.0000000000000D+00
394  3.9300000000000D+00  0.0000000000000D+00  0.0000000000000D+00
395  3.9400000000000D+00  0.0000000000000D+00  0.0000000000000D+00
396  3.9500000000000D+00  0.0000000000000D+00  0.0000000000000D+00
397  3.9600000000000D+00  0.0000000000000D+00  0.0000000000000D+00
398  3.9700000000000D+00  0.0000000000000D+00  0.0000000000000D+00
399  3.9800000000000D+00  0.0000000000000D+00  0.0000000000000D+00
400  3.9900000000000D+00  0.0000000000000D+00  0.0000000000000D+00
401  4.0000000000000D+00  0.0000000000000D+00  0.0000000000000D+00
402  4.0100000000000D+00  0.0000000000000D+00  0.0000000000000D+00
403  4.0200000000000D+00  0.0000000000000D+00  0.0000000000000D+00
404  4.0300000000000D+00  0.0000000000000D+00  0.0000000000000D+00
405  4.0400000000000D+00  0.0000000000000D+00  0.0000000000000D+00
406  4.0500000000000D+00  0.0000000000000D+00  0.0000000000000D+00
407  4.0600000000000D+00  0.0000000000000D+00  0.0000000000000D+00
408  4.0700000000000D+00  0.0000000000000D+00  0.0000000000000D+00
409  4.0800000000000D+00  0.0000000000000D+00  0.0000000000000D+00
410  4.0900000000000D+00  0.0000000000000D+00  0.0000000000000D+00
411  4.1000000000000D+00  0.0000000000000D+00  0.0000000000000D+00
412  4.1100000000000D+00  0.0000000000000D+00  0.0000000000000D+00
413  4.1200000000000D+00  0.0000000000000D+00  0.0000000000000D+00
414  4.1300000000000D+00  0.0000000000000D+00  0.0000000000000D+00
415  4.1400000000000D+00  0.0000000000000D+00  0.0000000000000D+00
416  4.1500000000000D+00  0.0000000000000D+00  0.0000000000000D+00
417  4.1600000000000D+00  0.0000000000000D+00  0.0000000000000D+00
418  4.1700000000000D+00  0.0000000000000D+00  0.0000000000000D+00
419  4.1800000000000D+00  0.0000000000000D+00  0.0000000000000D+00
420  4.1900000000000D+00  0.0000000000000D+00  0.0000000000000D+00
421  4.2000000000000D+00  0.0000000000000D+00  0.0000000000000D+00
422  4.2100000000000D+00  0.0000000000000D+00  0.0000000000000D+00
423  4.2200000000000D+00  0.0000000000000D+00  0.0000000000000D+00
424  4.2300000000000D+00  0.0000000000000D+00  0.0000000000000D+00
425  4.2400000000000D+00  0.0000000000000D+00  0.0000000000000D+00
426  4.2500000000000D+00  0.0000000000000D+00  0.0000000000000D+00
427  4.2600000000000D+00  0.0000000000000D+00  0.0000000000000D+00
428  4.2700000000000D+00  0.0000000000000D+00  0.0000000000000D+00
429  4.2800000000000D+00  0.0000000000000D+00  0.0000000000000D+00
430  4.2900000000000D+00  0.0000000000000D+00  0.0000000000000D+00
431  4.3000000000000D+00  0.0000000000000D+00  0.0000000000000D+00
432  4.3100000000000D+00  0.0000000000000D+00  0.0000000000000D+00
433  4.3200000000000D+00  0.0000000000000D+00  0.0000000000000D+00
434  4.3300000000000D+00  0.0000000000000D+00  0.0000000000000D+00
435  4.3400000000000D+00  0.0000000000000D+00  0.0000000000000D+00
436  4.3500000000000D+00  0.0000000000000D+00  0.0000000000000D+00
437  4.3600000000000D+00  0.0000000000000D+00  0.0000000000000D+00
438  4.3700000000000D+00  0.0000000000000D+00  0.0000000000000D+00
439  4.3800000000000D+00  0.0000000000000D+00  0.0000000000000D+00
440  4.3900000000000D+00  0.0000000000000D+00  0.0000000000000D+00
441  4.4000000000000D+00  0.0000000000000D+00  0.0000000000000D+00
442  4.4100000000000D+00  0.0000000000000D+00  0.0000000000000D+00
443  4.4200000000000D+00  0.0000000000000D+00  0.0000000000000D+00