S     ONCVPSP-3.3.0  r_core=   1.45376   1.45376   1.61851
16.0000      6.0000      180112    zatom,zion,pspd
8 -116133   2     4   600     0    pspcod,pspxc,lmax,lloc,mmax,r2well
5.99000000  6.00000000  0.00000000    rchrg fchrg qchrg
2     2     2     0     0    nproj
1     1           extension_switch
0                         6.8345318147130D+00  5.7945329943386D-01
1  0.0000000000000D+00 -8.0527866042068D-09  3.3043470404337D-08
2  1.0000000000000D-02  4.9937792912766D-02 -4.9267750699370D-02
3  2.0000000000000D-02  9.9616108070323D-02 -9.7584059188548D-02
4  3.0000000000000D-02  1.4878038165420D-01 -1.4401765494547D-01
5  4.0000000000000D-02  1.9718577475471D-01 -1.8767718769035D-01
6  5.0000000000000D-02  2.4460178053259D-01 -2.2773013836653D-01
7  6.0000000000000D-02  2.9081653091977D-01 -2.6342049532258D-01
8  7.0000000000000D-02  3.3564071239517D-01 -2.9408482385512D-01
9  8.0000000000000D-02  3.7891100842449D-01 -3.1916639031526D-01
10  9.0000000000000D-02  4.2049299590864D-01 -3.3822704201548D-01
11  1.0000000000000D-01  4.6028343424791D-01 -3.5095659038783D-01
12  1.1000000000000D-01  4.9821189816839D-01 -3.5717949630481D-01
13  1.2000000000000D-01  5.3424171902083D-01 -3.5685871213709D-01
14  1.3000000000000D-01  5.6837021357387D-01 -3.5009659386113D-01
15  1.4000000000000D-01  6.0062819409373D-01 -3.3713285715156D-01
16  1.5000000000000D-01  6.3107876842953D-01 -3.1833961266671D-01
17  1.6000000000000D-01  6.5981545360458D-01 -2.9421357641471D-01
18  1.7000000000000D-01  6.8695964074711D-01 -2.6536560993488D-01
19  1.8000000000000D-01  7.1265746278554D-01 -2.3250780084216D-01
20  1.9000000000000D-01  7.3707612890589D-01 -1.9643834591895D-01
21  2.0000000000000D-01  7.6039980106220D-01 -1.5802454533665D-01
22  2.1000000000000D-01  7.8282509761268D-01 -1.1818425679026D-01
23  2.2000000000000D-01  8.0455631722007D-01 -7.7866191499427D-02
24  2.3000000000000D-01  8.2580048233605D-01 -3.8029459471626D-02
25  2.4000000000000D-01  8.4676230575333D-01  3.7721140268599D-04
26  2.5000000000000D-01  8.6763918576531D-01  3.6436149323487D-02
27  2.6000000000000D-01  8.8861633537171D-01  6.9280872840947D-02
28  2.7000000000000D-01  9.0986214870374D-01  9.8115261808200D-02
29  2.8000000000000D-01  9.3152390345252D-01  1.2223135934001D-01
30  2.9000000000000D-01  9.5372389164994D-01  1.4102542538327D-01
31  3.0000000000000D-01  9.7655606279507D-01  1.5401189668339D-01
32  3.1000000000000D-01  1.0000832532023D+00  1.6083494933280D-01
33  3.2000000000000D-01  1.0243350637689D+00  1.6127740790352D-01
34  3.3000000000000D-01  1.0493064353478D+00  1.5526679845155D-01
35  3.4000000000000D-01  1.0749569568264D+00  1.4287840038204D-01
36  3.5000000000000D-01  1.1012109261330D+00  1.2433521312753D-01
37  3.6000000000000D-01  1.1279581690175D+00  1.0000481660041D-01
38  3.7000000000000D-01  1.1550556048904D+00  7.0393168161722D-02
39  3.8000000000000D-01  1.1823295335740D+00  3.6135442121816D-02
40  3.9000000000000D-01  1.2095786018234D+00 -2.0159207435909D-03
41  4.0000000000000D-01  1.2365773942347D+00 -4.3205727754242D-02
42  4.1000000000000D-01  1.2630805799476D+00 -8.6492832888331D-02
43  4.2000000000000D-01  1.2888275346624D+00 -1.3086889047447D-01
44  4.3000000000000D-01  1.3135473471570D+00 -1.7527869272927D-01
45  4.4000000000000D-01  1.3369641109359D+00 -2.1864168473018D-01
46  4.5000000000000D-01  1.3588023950556D+00 -2.5987422332067D-01
47  4.6000000000000D-01  1.3787927836834D+00 -2.9791212798355D-01
48  4.7000000000000D-01  1.3966773716758D+00 -3.3173306231160D-01
49  4.8000000000000D-01  1.4122151034587D+00 -3.6037828460060D-01
50  4.9000000000000D-01  1.4251868447713D+00 -3.8297331534549D-01
51  5.0000000000000D-01  1.4354000813723D+00 -3.9874708791720D-01
52  5.1000000000000D-01  1.4426931455164D+00 -4.0704917610634D-01
53  5.2000000000000D-01  1.4469388797739D+00 -4.0736472806079D-01
54  5.3000000000000D-01  1.4480476584296D+00 -3.9932677976398D-01
55  5.4000000000000D-01  1.4459696990439D+00 -3.8272567172687D-01
56  5.5000000000000D-01  1.4406966105602D+00 -3.5751534906594D-01
57  5.6000000000000D-01  1.4322621393529D+00 -3.2381638659605D-01
58  5.7000000000000D-01  1.4207420904579D+00 -2.8191564547239D-01
59  5.8000000000000D-01  1.4062534177525D+00 -2.3226253559582D-01
60  5.9000000000000D-01  1.3889524935022D+00 -1.7546192621458D-01
61  6.0000000000000D-01  1.3690325844171D+00 -1.1226381568379D-01
62  6.1000000000000D-01  1.3467205775079D+00 -4.3549937512877D-02
63  6.2000000000000D-01  1.3222730146000D+00  2.9682456354004D-02
64  6.3000000000000D-01  1.2959715087431D+00  1.0633933513689D-01
65  6.4000000000000D-01  1.2681176288566D+00  1.8525079808248D-01
66  6.5000000000000D-01  1.2390273504205D+00  2.6519375193200D-01
67  6.6000000000000D-01  1.2090251795798D+00  3.4491591712319D-01
68  6.7000000000000D-01  1.1784380655780D+00  4.2316069186451D-01
69  6.8000000000000D-01  1.1475892217058D+00  4.9869238157424D-01
70  6.9000000000000D-01  1.1167919778625D+00  5.7032128916601D-01
71  7.0000000000000D-01  1.0863437883307D+00  6.3692815956360D-01
72  7.1000000000000D-01  1.0565205163645D+00  6.9748747993027D-01
73  7.2000000000000D-01  1.0275711127798D+00  7.5108915515004D-01
74  7.3000000000000D-01  9.9971279891078D-01  7.9695810597320D-01
75  7.4000000000000D-01  9.7312685526453D-01  8.3447137423272D-01
76  7.5000000000000D-01  9.4795510602890D-01  8.6317236527453D-01
77  7.6000000000000D-01  9.2429717652827D-01  8.8278191124391D-01
78  7.7000000000000D-01  9.0220858604053D-01  8.9320589900904D-01
79  7.8000000000000D-01  8.8169972231029D-01  8.9453927238100D-01
80  7.9000000000000D-01  8.6273572696491D-01  8.8706628848831D-01
81  8.0000000000000D-01  8.4523730317811D-01  8.7125698137957D-01
82  8.1000000000000D-01  8.2908243868217D-01  8.4775986072845D-01
83  8.2000000000000D-01  8.1410901896019D-01  8.1739094843578D-01
84  8.3000000000000D-01  8.0011828751822D-01  7.8111932947891D-01
85  8.4000000000000D-01  7.8687909288872D-01  7.4004946412879D-01
86  8.5000000000000D-01  7.7413284583845D-01  6.9540057506063D-01
87  8.6000000000000D-01  7.6159909538817D-01  6.4848348392329D-01
88  8.7000000000000D-01  7.4898161911057D-01  6.0067532592406D-01
89  8.8000000000000D-01  7.3597491194733D-01  5.5339261713627D-01
90  8.9000000000000D-01  7.2227094874807D-01  5.0806318644323D-01
91  9.0000000000000D-01  7.0756608905964D-01  4.6609751155650D-01
92  9.1000000000000D-01  6.9156798856321D-01  4.2886001566144D-01
93  9.2000000000000D-01  6.7400238003811D-01  3.9764088765697D-01
94  9.3000000000000D-01  6.5461958789439D-01  3.7362898438443D-01
95  9.4000000000000D-01  6.3320064415421D-01  3.5788635771027D-01
96  9.5000000000000D-01  6.0956288022024D-01  3.5132492305391D-01
97  9.6000000000000D-01  5.8356487774386D-01  3.5468574936648D-01
98  9.7000000000000D-01  5.5511067323845D-01  3.6852140430470D-01
99  9.8000000000000D-01  5.2415312454448D-01  3.9318173335165D-01
100  9.9000000000000D-01  4.9069636277367D-01  4.2880338818699D-01
101  1.0000000000000D+00  4.5479727025538D-01  4.7530335050999D-01
102  1.0100000000000D+00  4.1656594316860D-01  5.3237662321315D-01
103  1.0200000000000D+00  3.7616511731711D-01  5.9949817986977D-01
104  1.0300000000000D+00  3.3380855492095D-01  6.7592918399712D-01
105  1.0400000000000D+00  2.8975841052334D-01  7.6072740671658D-01
106  1.0500000000000D+00  2.4432161423659D-01  8.5276168897097D-01
107  1.0600000000000D+00  1.9784532949414D-01  9.5073021680719D-01
108  1.0700000000000D+00  1.5071156074240D-01  1.0531823033308D+00
109  1.0800000000000D+00  1.0333100445504D-01  1.1585432972888D+00
110  1.0900000000000D+00  5.6136251300518D-02  1.2651421789156D+00
111  1.1000000000000D+00  9.5744614981677D-03  1.3712413453047D+00
112  1.1100000000000D+00 -3.5900354366944D-02  1.4750680454533D+00
113  1.1200000000000D+00 -7.9835306856674D-02  1.5748468841556D+00
114  1.1300000000000D+00 -1.2178670367794D-01  1.6688327906006D+00
115  1.1400000000000D+00 -1.6132807928635D-01  1.7553438348011D+00
116  1.1500000000000D+00 -1.9805802671836D-01  1.8327932726588D+00
117  1.1600000000000D+00 -2.3160768166986D-01  1.8997202058669D+00
118  1.1700000000000D+00 -2.6164771514535D-01  1.9548182683167D+00
119  1.1800000000000D+00 -2.8789470023563D-01  1.9969617881472D+00
120  1.1900000000000D+00 -3.1011672564032D-01  2.0252289032216D+00
121  1.2000000000000D+00 -3.2813814454942D-01  2.0389211728882D+00
122  1.2100000000000D+00 -3.4184336326193D-01  2.0375792931256D+00
123  1.2200000000000D+00 -3.5117959094838D-01  2.0209945915850D+00
124  1.2300000000000D+00 -3.5615848510094D-01  1.9892160325793D+00
125  1.2400000000000D+00 -3.5685665711524D-01  1.9425525840645D+00
126  1.2500000000000D+00 -3.5341502136361D-01  1.8815708759012D+00
127  1.2600000000000D+00 -3.4603697869604D-01  1.8070881095653D+00
128  1.2700000000000D+00 -3.3498546835477D-01  1.7201603552789D+00
129  1.2800000000000D+00 -3.2057893440523D-01  1.6220664220830D+00
130  1.2900000000000D+00 -3.0318625915908D-01  1.5142875123553D+00
131  1.3000000000000D+00 -2.8322076148079D-01  1.3984830578822D+00
132  1.3100000000000D+00 -2.6113336046894D-01  1.2764631452993D+00
133  1.3200000000000D+00 -2.3740501274431D-01  1.1501579702820D+00
134  1.3300000000000D+00 -2.1253856931711D-01  1.0215849142842D+00
135  1.3400000000000D+00 -1.8705018739529D-01  8.9281379430281D-01
136  1.3500000000000D+00 -1.6146044998905D-01  7.6593090762126D-01
137  1.3600000000000D+00 -1.3628535527046D-01  6.4300252826870D-01
138  1.3700000000000D+00 -1.1202733342689D-01  5.2603851518502D-01
139  1.3800000000000D+00 -8.9166450257190D-02  4.1695661572297D-01
140  1.3900000000000D+00 -6.8151982647168D-02  3.1754845995865D-01
141  1.4000000000000D+00 -4.9394409585664D-02  2.2944667712800D-01
142  1.4100000000000D+00 -3.3269207749774D-02  1.5414683145181D-01
143  1.4200000000000D+00 -2.0049658936514D-02  9.2702873545411D-02
144  1.4300000000000D+00 -9.9694619890441D-03  4.6020069192595D-02
145  1.4400000000000D+00 -3.5184453388838D-03  1.6220407663064D-02
146  1.4500000000000D+00 -4.9895818365173D-04  2.2987758364845D-03
147  1.4600000000000D+00  2.5018487795698D-04 -1.1500965557668D-03
148  1.4700000000000D+00  3.7139913466118D-05 -1.7067563309093D-04
149  1.4800000000000D+00 -7.9740635876948D-05  3.6690082621265D-04
150  1.4900000000000D+00  3.3801511996174D-06 -1.5580831544403D-05
151  1.5000000000000D+00  1.2926258675976D-05 -5.9586093085500D-05
152  1.5100000000000D+00  4.3430808562443D-08 -2.0251701539888D-07
153  1.5200000000000D+00  5.1056041080151D-08 -2.3807332628332D-07
154  1.5300000000000D+00  0.0000000000000D+00  0.0000000000000D+00
155  1.5400000000000D+00  0.0000000000000D+00  0.0000000000000D+00
156  1.5500000000000D+00  0.0000000000000D+00  0.0000000000000D+00
157  1.5600000000000D+00  0.0000000000000D+00  0.0000000000000D+00
158  1.5700000000000D+00  0.0000000000000D+00  0.0000000000000D+00
159  1.5800000000000D+00  0.0000000000000D+00  0.0000000000000D+00
160  1.5900000000000D+00  0.0000000000000D+00  0.0000000000000D+00
161  1.6000000000000D+00  0.0000000000000D+00  0.0000000000000D+00
162  1.6100000000000D+00  0.0000000000000D+00  0.0000000000000D+00
163  1.6200000000000D+00  0.0000000000000D+00  0.0000000000000D+00
164  1.6300000000000D+00  0.0000000000000D+00  0.0000000000000D+00
165  1.6400000000000D+00  0.0000000000000D+00  0.0000000000000D+00
166  1.6500000000000D+00  0.0000000000000D+00  0.0000000000000D+00
167  1.6600000000000D+00  0.0000000000000D+00  0.0000000000000D+00
168  1.6700000000000D+00  0.0000000000000D+00  0.0000000000000D+00
169  1.6800000000000D+00  0.0000000000000D+00  0.0000000000000D+00
170  1.6900000000000D+00  0.0000000000000D+00  0.0000000000000D+00
171  1.7000000000000D+00  0.0000000000000D+00  0.0000000000000D+00
172  1.7100000000000D+00  0.0000000000000D+00  0.0000000000000D+00
173  1.7200000000000D+00  0.0000000000000D+00  0.0000000000000D+00
174  1.7300000000000D+00  0.0000000000000D+00  0.0000000000000D+00
175  1.7400000000000D+00  0.0000000000000D+00  0.0000000000000D+00
176  1.7500000000000D+00  0.0000000000000D+00  0.0000000000000D+00
177  1.7600000000000D+00  0.0000000000000D+00  0.0000000000000D+00
178  1.7700000000000D+00  0.0000000000000D+00  0.0000000000000D+00
179  1.7800000000000D+00  0.0000000000000D+00  0.0000000000000D+00
180  1.7900000000000D+00  0.0000000000000D+00  0.0000000000000D+00
181  1.8000000000000D+00  0.0000000000000D+00  0.0000000000000D+00
182  1.8100000000000D+00  0.0000000000000D+00  0.0000000000000D+00
183  1.8200000000000D+00  0.0000000000000D+00  0.0000000000000D+00
184  1.8300000000000D+00  0.0000000000000D+00  0.0000000000000D+00
185  1.8400000000000D+00  0.0000000000000D+00  0.0000000000000D+00
186  1.8500000000000D+00  0.0000000000000D+00  0.0000000000000D+00
187  1.8600000000000D+00  0.0000000000000D+00  0.0000000000000D+00
188  1.8700000000000D+00  0.0000000000000D+00  0.0000000000000D+00
189  1.8800000000000D+00  0.0000000000000D+00  0.0000000000000D+00
190  1.8900000000000D+00  0.0000000000000D+00  0.0000000000000D+00
191  1.9000000000000D+00  0.0000000000000D+00  0.0000000000000D+00
192  1.9100000000000D+00  0.0000000000000D+00  0.0000000000000D+00
193  1.9200000000000D+00  0.0000000000000D+00  0.0000000000000D+00
194  1.9300000000000D+00  0.0000000000000D+00  0.0000000000000D+00
195  1.9400000000000D+00  0.0000000000000D+00  0.0000000000000D+00
196  1.9500000000000D+00  0.0000000000000D+00  0.0000000000000D+00
197  1.9600000000000D+00  0.0000000000000D+00  0.0000000000000D+00
198  1.9700000000000D+00  0.0000000000000D+00  0.0000000000000D+00
199  1.9800000000000D+00  0.0000000000000D+00  0.0000000000000D+00
200  1.9900000000000D+00  0.0000000000000D+00  0.0000000000000D+00
201  2.0000000000000D+00  0.0000000000000D+00  0.0000000000000D+00
202  2.0100000000000D+00  0.0000000000000D+00  0.0000000000000D+00
203  2.0200000000000D+00  0.0000000000000D+00  0.0000000000000D+00
204  2.0300000000000D+00  0.0000000000000D+00  0.0000000000000D+00
205  2.0400000000000D+00  0.0000000000000D+00  0.0000000000000D+00
206  2.0500000000000D+00  0.0000000000000D+00  0.0000000000000D+00
207  2.0600000000000D+00  0.0000000000000D+00  0.0000000000000D+00
208  2.0700000000000D+00  0.0000000000000D+00  0.0000000000000D+00
209  2.0800000000000D+00  0.0000000000000D+00  0.0000000000000D+00
210  2.0900000000000D+00  0.0000000000000D+00  0.0000000000000D+00
211  2.1000000000000D+00  0.0000000000000D+00  0.0000000000000D+00
212  2.1100000000000D+00  0.0000000000000D+00  0.0000000000000D+00
213  2.1200000000000D+00  0.0000000000000D+00  0.0000000000000D+00
214  2.1300000000000D+00  0.0000000000000D+00  0.0000000000000D+00
215  2.1400000000000D+00  0.0000000000000D+00  0.0000000000000D+00
216  2.1500000000000D+00  0.0000000000000D+00  0.0000000000000D+00
217  2.1600000000000D+00  0.0000000000000D+00  0.0000000000000D+00
218  2.1700000000000D+00  0.0000000000000D+00  0.0000000000000D+00
219  2.1800000000000D+00  0.0000000000000D+00  0.0000000000000D+00
220  2.1900000000000D+00  0.0000000000000D+00  0.0000000000000D+00
221  2.2000000000000D+00  0.0000000000000D+00  0.0000000000000D+00
222  2.2100000000000D+00  0.0000000000000D+00  0.0000000000000D+00
223  2.2200000000000D+00  0.0000000000000D+00  0.0000000000000D+00
224  2.2300000000000D+00  0.0000000000000D+00  0.0000000000000D+00
225  2.2400000000000D+00  0.0000000000000D+00  0.0000000000000D+00
226  2.2500000000000D+00  0.0000000000000D+00  0.0000000000000D+00
227  2.2600000000000D+00  0.0000000000000D+00  0.0000000000000D+00
228  2.2700000000000D+00  0.0000000000000D+00  0.0000000000000D+00
229  2.2800000000000D+00  0.0000000000000D+00  0.0000000000000D+00
230  2.2900000000000D+00  0.0000000000000D+00  0.0000000000000D+00
231  2.3000000000000D+00  0.0000000000000D+00  0.0000000000000D+00
232  2.3100000000000D+00  0.0000000000000D+00  0.0000000000000D+00
233  2.3200000000000D+00  0.0000000000000D+00  0.0000000000000D+00
234  2.3300000000000D+00  0.0000000000000D+00  0.0000000000000D+00
235  2.3400000000000D+00  0.0000000000000D+00  0.0000000000000D+00
236  2.3500000000000D+00  0.0000000000000D+00  0.0000000000000D+00
237  2.3600000000000D+00  0.0000000000000D+00  0.0000000000000D+00
238  2.3700000000000D+00  0.0000000000000D+00  0.0000000000000D+00
239  2.3800000000000D+00  0.0000000000000D+00  0.0000000000000D+00
240  2.3900000000000D+00  0.0000000000000D+00  0.0000000000000D+00
241  2.4000000000000D+00  0.0000000000000D+00  0.0000000000000D+00
242  2.4100000000000D+00  0.0000000000000D+00  0.0000000000000D+00
243  2.4200000000000D+00  0.0000000000000D+00  0.0000000000000D+00
244  2.4300000000000D+00  0.0000000000000D+00  0.0000000000000D+00
245  2.4400000000000D+00  0.0000000000000D+00  0.0000000000000D+00
246  2.4500000000000D+00  0.0000000000000D+00  0.0000000000000D+00
247  2.4600000000000D+00  0.0000000000000D+00  0.0000000000000D+00
248  2.4700000000000D+00  0.0000000000000D+00  0.0000000000000D+00
249  2.4800000000000D+00  0.0000000000000D+00  0.0000000000000D+00
250  2.4900000000000D+00  0.0000000000000D+00  0.0000000000000D+00
251  2.5000000000000D+00  0.0000000000000D+00  0.0000000000000D+00
252  2.5100000000000D+00  0.0000000000000D+00  0.0000000000000D+00
253  2.5200000000000D+00  0.0000000000000D+00  0.0000000000000D+00
254  2.5300000000000D+00  0.0000000000000D+00  0.0000000000000D+00
255  2.5400000000000D+00  0.0000000000000D+00  0.0000000000000D+00
256  2.5500000000000D+00  0.0000000000000D+00  0.0000000000000D+00
257  2.5600000000000D+00  0.0000000000000D+00  0.0000000000000D+00
258  2.5700000000000D+00  0.0000000000000D+00  0.0000000000000D+00
259  2.5800000000000D+00  0.0000000000000D+00  0.0000000000000D+00
260  2.5900000000000D+00  0.0000000000000D+00  0.0000000000000D+00
261  2.6000000000000D+00  0.0000000000000D+00  0.0000000000000D+00
262  2.6100000000000D+00  0.0000000000000D+00  0.0000000000000D+00
263  2.6200000000000D+00  0.0000000000000D+00  0.0000000000000D+00
264  2.6300000000000D+00  0.0000000000000D+00  0.0000000000000D+00
265  2.6400000000000D+00  0.0000000000000D+00  0.0000000000000D+00
266  2.6500000000000D+00  0.0000000000000D+00  0.0000000000000D+00
267  2.6600000000000D+00  0.0000000000000D+00  0.0000000000000D+00
268  2.6700000000000D+00  0.0000000000000D+00  0.0000000000000D+00
269  2.6800000000000D+00  0.0000000000000D+00  0.0000000000000D+00
270  2.6900000000000D+00  0.0000000000000D+00  0.0000000000000D+00
271  2.7000000000000D+00  0.0000000000000D+00  0.0000000000000D+00
272  2.7100000000000D+00  0.0000000000000D+00  0.0000000000000D+00
273  2.7200000000000D+00  0.0000000000000D+00  0.0000000000000D+00
274  2.7300000000000D+00  0.0000000000000D+00  0.0000000000000D+00
275  2.7400000000000D+00  0.0000000000000D+00  0.0000000000000D+00
276  2.7500000000000D+00  0.0000000000000D+00  0.0000000000000D+00
277  2.7600000000000D+00  0.0000000000000D+00  0.0000000000000D+00
278  2.7700000000000D+00  0.0000000000000D+00  0.0000000000000D+00
279  2.7800000000000D+00  0.0000000000000D+00  0.0000000000000D+00
280  2.7900000000000D+00  0.0000000000000D+00  0.0000000000000D+00
281  2.8000000000000D+00  0.0000000000000D+00  0.0000000000000D+00
282  2.8100000000000D+00  0.0000000000000D+00  0.0000000000000D+00
283  2.8200000000000D+00  0.0000000000000D+00  0.0000000000000D+00
284  2.8300000000000D+00  0.0000000000000D+00  0.0000000000000D+00
285  2.8400000000000D+00  0.0000000000000D+00  0.0000000000000D+00
286  2.8500000000000D+00  0.0000000000000D+00  0.0000000000000D+00
287  2.8600000000000D+00  0.0000000000000D+00  0.0000000000000D+00
288  2.8700000000000D+00  0.0000000000000D+00  0.0000000000000D+00
289  2.8800000000000D+00  0.0000000000000D+00  0.0000000000000D+00
290  2.8900000000000D+00  0.0000000000000D+00  0.0000000000000D+00
291  2.9000000000000D+00  0.0000000000000D+00  0.0000000000000D+00
292  2.9100000000000D+00  0.0000000000000D+00  0.0000000000000D+00
293  2.9200000000000D+00  0.0000000000000D+00  0.0000000000000D+00
294  2.9300000000000D+00  0.0000000000000D+00  0.0000000000000D+00
295  2.9400000000000D+00  0.0000000000000D+00  0.0000000000000D+00
296  2.9500000000000D+00  0.0000000000000D+00  0.0000000000000D+00
297  2.9600000000000D+00  0.0000000000000D+00  0.0000000000000D+00
298  2.9700000000000D+00  0.0000000000000D+00  0.0000000000000D+00
299  2.9800000000000D+00  0.0000000000000D+00  0.0000000000000D+00
300  2.9900000000000D+00  0.0000000000000D+00  0.0000000000000D+00
301  3.0000000000000D+00  0.0000000000000D+00  0.0000000000000D+00
302  3.0100000000000D+00  0.0000000000000D+00  0.0000000000000D+00
303  3.0200000000000D+00  0.0000000000000D+00  0.0000000000000D+00
304  3.0300000000000D+00  0.0000000000000D+00  0.0000000000000D+00
305  3.0400000000000D+00  0.0000000000000D+00  0.0000000000000D+00
306  3.0500000000000D+00  0.0000000000000D+00  0.0000000000000D+00
307  3.0600000000000D+00  0.0000000000000D+00  0.0000000000000D+00
308  3.0700000000000D+00  0.0000000000000D+00  0.0000000000000D+00
309  3.0800000000000D+00  0.0000000000000D+00  0.0000000000000D+00
310  3.0900000000000D+00  0.0000000000000D+00  0.0000000000000D+00
311  3.1000000000000D+00  0.0000000000000D+00  0.0000000000000D+00
312  3.1100000000000D+00  0.0000000000000D+00  0.0000000000000D+00
313  3.1200000000000D+00  0.0000000000000D+00  0.0000000000000D+00
314  3.1300000000000D+00  0.0000000000000D+00  0.0000000000000D+00
315  3.1400000000000D+00  0.0000000000000D+00  0.0000000000000D+00
316  3.1500000000000D+00  0.0000000000000D+00  0.0000000000000D+00
317  3.1600000000000D+00  0.0000000000000D+00  0.0000000000000D+00
318  3.1700000000000D+00  0.0000000000000D+00  0.0000000000000D+00
319  3.1800000000000D+00  0.0000000000000D+00  0.0000000000000D+00
320  3.1900000000000D+00  0.0000000000000D+00  0.0000000000000D+00
321  3.2000000000000D+00  0.0000000000000D+00  0.0000000000000D+00
322  3.2100000000000D+00  0.0000000000000D+00  0.0000000000000D+00
323  3.2200000000000D+00  0.0000000000000D+00  0.0000000000000D+00
324  3.2300000000000D+00  0.0000000000000D+00  0.0000000000000D+00
325  3.2400000000000D+00  0.0000000000000D+00  0.0000000000000D+00
326  3.2500000000000D+00  0.0000000000000D+00  0.0000000000000D+00
327  3.2600000000000D+00  0.0000000000000D+00  0.0000000000000D+00
328  3.2700000000000D+00  0.0000000000000D+00  0.0000000000000D+00
329  3.2800000000000D+00  0.0000000000000D+00  0.0000000000000D+00
330  3.2900000000000D+00  0.0000000000000D+00  0.0000000000000D+00
331  3.3000000000000D+00  0.0000000000000D+00  0.0000000000000D+00
332  3.3100000000000D+00  0.0000000000000D+00  0.0000000000000D+00
333  3.3200000000000D+00  0.0000000000000D+00  0.0000000000000D+00
334  3.3300000000000D+00  0.0000000000000D+00  0.0000000000000D+00
335  3.3400000000000D+00  0.0000000000000D+00  0.0000000000000D+00
336  3.3500000000000D+00  0.0000000000000D+00  0.0000000000000D+00
337  3.3600000000000D+00  0.0000000000000D+00  0.0000000000000D+00
338  3.3700000000000D+00  0.0000000000000D+00  0.0000000000000D+00
339  3.3800000000000D+00  0.0000000000000D+00  0.0000000000000D+00
340  3.3900000000000D+00  0.0000000000000D+00  0.0000000000000D+00
341  3.4000000000000D+00  0.0000000000000D+00  0.0000000000000D+00
342  3.4100000000000D+00  0.0000000000000D+00  0.0000000000000D+00
343  3.4200000000000D+00  0.0000000000000D+00  0.0000000000000D+00
344  3.4300000000000D+00  0.0000000000000D+00  0.0000000000000D+00
345  3.4400000000000D+00  0.0000000000000D+00  0.0000000000000D+00
346  3.4500000000000D+00  0.0000000000000D+00  0.0000000000000D+00
347  3.4600000000000D+00  0.0000000000000D+00  0.0000000000000D+00
348  3.4700000000000D+00  0.0000000000000D+00  0.0000000000000D+00
349  3.4800000000000D+00  0.0000000000000D+00  0.0000000000000D+00
350  3.4900000000000D+00  0.0000000000000D+00  0.0000000000000D+00
351  3.5000000000000D+00  0.0000000000000D+00  0.0000000000000D+00
352  3.5100000000000D+00  0.0000000000000D+00  0.0000000000000D+00
353  3.5200000000000D+00  0.0000000000000D+00  0.0000000000000D+00
354  3.5300000000000D+00  0.0000000000000D+00  0.0000000000000D+00
355  3.5400000000000D+00  0.0000000000000D+00  0.0000000000000D+00
356  3.5500000000000D+00  0.0000000000000D+00  0.0000000000000D+00
357  3.5600000000000D+00  0.0000000000000D+00  0.0000000000000D+00
358  3.5700000000000D+00  0.0000000000000D+00  0.0000000000000D+00
359  3.5800000000000D+00  0.0000000000000D+00  0.0000000000000D+00
360  3.5900000000000D+00  0.0000000000000D+00  0.0000000000000D+00
361  3.6000000000000D+00  0.0000000000000D+00  0.0000000000000D+00
362  3.6100000000000D+00  0.0000000000000D+00  0.0000000000000D+00
363  3.6200000000000D+00  0.0000000000000D+00  0.0000000000000D+00
364  3.6300000000000D+00  0.0000000000000D+00  0.0000000000000D+00
365  3.6400000000000D+00  0.0000000000000D+00  0.0000000000000D+00
366  3.6500000000000D+00  0.0000000000000D+00  0.0000000000000D+00
367  3.6600000000000D+00  0.0000000000000D+00  0.0000000000000D+00
368  3.6700000000000D+00  0.0000000000000D+00  0.0000000000000D+00
369  3.6800000000000D+00  0.0000000000000D+00  0.0000000000000D+00
370  3.6900000000000D+00  0.0000000000000D+00  0.0000000000000D+00
371  3.7000000000000D+00  0.0000000000000D+00  0.0000000000000D+00
372  3.7100000000000D+00  0.0000000000000D+00  0.0000000000000D+00
373  3.7200000000000D+00  0.0000000000000D+00  0.0000000000000D+00
374  3.7300000000000D+00  0.0000000000000D+00  0.0000000000000D+00
375  3.7400000000000D+00  0.0000000000000D+00  0.0000000000000D+00
376  3.7500000000000D+00  0.0000000000000D+00  0.0000000000000D+00
377  3.7600000000000D+00  0.0000000000000D+00  0.0000000000000D+00
378  3.7700000000000D+00  0.0000000000000D+00  0.0000000000000D+00
379  3.7800000000000D+00  0.0000000000000D+00  0.0000000000000D+00
380  3.7900000000000D+00  0.0000000000000D+00  0.0000000000000D+00
381  3.8000000000000D+00  0.0000000000000D+00  0.0000000000000D+00
382  3.8100000000000D+00  0.0000000000000D+00  0.0000000000000D+00
383  3.8200000000000D+00  0.0000000000000D+00  0.0000000000000D+00
384  3.8300000000000D+00  0.0000000000000D+00  0.0000000000000D+00
385  3.8400000000000D+00  0.0000000000000D+00  0.0000000000000D+00
386  3.8500000000000D+00  0.0000000000000D+00  0.0000000000000D+00
387  3.8600000000000D+00  0.0000000000000D+00  0.0000000000000D+00
388  3.8700000000000D+00  0.0000000000000D+00  0.0000000000000D+00
389  3.8800000000000D+00  0.0000000000000D+00  0.0000000000000D+00
390  3.8900000000000D+00  0.0000000000000D+00  0.0000000000000D+00
391  3.9000000000000D+00  0.0000000000000D+00  0.0000000000000D+00
392  3.9100000000000D+00  0.0000000000000D+00  0.0000000000000D+00
393  3.9200000000000D+00  0.0000000000000D+00  0.0000000000000D+00
394  3.9300000000000D+00  0.0000000000000D+00  0.0000000000000D+00
395  3.9400000000000D+00  0.0000000000000D+00  0.0000000000000D+00
396  3.9500000000000D+00  0.0000000000000D+00  0.0000000000000D+00
397  3.9600000000000D+00  0.0000000000000D+00  0.0000000000000D+00
398  3.9700000000000D+00  0.0000000000000D+00  0.0000000000000D+00
399  3.9800000000000D+00  0.0000000000000D+00  0.0000000000000D+00
400  3.9900000000000D+00  0.0000000000000D+00  0.0000000000000D+00
401  4.0000000000000D+00  0.0000000000000D+00  0.0000000000000D+00
402  4.0100000000000D+00  0.0000000000000D+00  0.0000000000000D+00
403  4.0200000000000D+00  0.0000000000000D+00  0.0000000000000D+00
404  4.0300000000000D+00  0.0000000000000D+00  0.0000000000000D+00
405  4.0400000000000D+00  0.0000000000000D+00  0.0000000000000D+00
406  4.0500000000000D+00  0.0000000000000D+00  0.0000000000000D+00
407  4.0600000000000D+00  0.0000000000000D+00  0.0000000000000D+00
408  4.0700000000000D+00  0.0000000000000D+00  0.0000000000000D+00
409  4.0800000000000D+00  0.0000000000000D+00  0.0000000000000D+00
410  4.0900000000000D+00  0.0000000000000D+00  0.0000000000000D+00
411  4.1000000000000D+00  0.0000000000000D+00  0.0000000000000D+00
412  4.1100000000000D+00  0.0000000000000D+00  0.0000000000000D+00
413  4.1200000000000D+00  0.0000000000000D+00  0.0000000000000D+00
414  4.1300000000000D+00  0.0000000000000D+00  0.0000000000000D+00
415  4.1400000000000D+00  0.0000000000000D+00  0.0000000000000D+00
416  4.1500000000000D+00  0.0000000000000D+00  0.0000000000000D+00
417  4.1600000000000D+00  0.0000000000000D+00  0.0000000000000D+00
418  4.1700000000000D+00  0.0000000000000D+00  0.0000000000000D+00
419  4.1800000000000D+00  0.0000000000000D+00  0.0000000000000D+00
420  4.1900000000000D+00  0.0000000000000D+00  0.0000000000000D+00
421  4.2000000000000D+00  0.0000000000000D+00  0.0000000000000D+00
422  4.2100000000000D+00  0.0000000000000D+00  0.0000000000000D+00
423  4.2200000000000D+00  0.0000000000000D+00  0.0000000000000D+00
424  4.2300000000000D+00  0.0000000000000D+00  0.0000000000000D+00
425  4.2400000000000D+00  0.0000000000000D+00  0.0000000000000D+00
426  4.2500000000000D+00  0.0000000000000D+00  0.0000000000000D+00
427  4.2600000000000D+00  0.0000000000000D+00  0.0000000000000D+00
428  4.2700000000000D+00  0.0000000000000D+00  0.0000000000000D+00
429  4.2800000000000D+00  0.0000000000000D+00  0.0000000000000D+00
430  4.2900000000000D+00  0.0000000000000D+00  0.0000000000000D+00
431  4.3000000000000D+00  0.0000000000000D+00  0.0000000000000D+00
432  4.3100000000000D+00  0.0000000000000D+00  0.0000000000000D+00
433  4.3200000000000D+00  0.0000000000000D+00  0.0000000000000D+00
434  4.3300000000000D+00  0.0000000000000D+00  0.0000000000000D+00
435  4.3400000000000D+00  0.0000000000000D+00  0.0000000000000D+00
436  4.3500000000000D+00  0.0000000000000D+00  0.0000000000000D+00
437  4.3600000000000D+00  0.0000000000000D+00  0.0000000000000D+00
438  4.3700000000000D+00  0.0000000000000D+00  0.0000000000000D+00
439  4.3800000000000D+00  0.0000000000000D+00  0.0000000000000D+00
440  4.3900000000000D+00  0.0000000000000D+00  0.0000000000000D+00
441  4.4000000000000D+00  0.0000000000000D+00  0.0000000000000D+00
442  4.4100000000000D+00  0.0000000000000D+00  0.0000000000000D+00
443  4.4200000000000D+00  0.0000000000000D+00  0.0000000000000D+00