Rn    ONCVPSP  r_core=  2.43  2.10  2.87
86.0000      8.0000      150812    zatom,zion,pspd
8      11   2     4   600     0    pspcod,pspxc,lmax,lloc,mmax,r2well
5.99000000  8.00000000  0.00000000    rchrg fchrg qchrg
2     2     2     0     0    nproj
1                 extension_switch
0                         5.7539537525612D+00  6.4419622093364D-01
1  0.0000000000000D+00  2.2216117834262D-12 -5.6150570304503D-12
2  1.0000000000000D-02  1.9540829160426D-02  6.4976991643699D-03
3  2.0000000000000D-02  3.9090223157538D-02  1.2955186476398D-02
4  3.0000000000000D-02  5.8656684140906D-02  1.9332412311513D-02
5  4.0000000000000D-02  7.8248589090911D-02  2.5589650982281D-02
6  5.0000000000000D-02  9.7874127746192D-02  3.1687661412390D-02
7  6.0000000000000D-02  1.1754124114398D-01  3.7587846261095D-02
8  7.0000000000000D-02  1.3725756097496D-01  4.3252408988237D-02
9  8.0000000000000D-02  1.5703034995223D-01  4.8644508355555D-02
10  9.0000000000000D-02  1.7686644339079D-01  5.3728409867082D-02
11  1.0000000000000D-01  1.9677219219123D-01  5.8469633659824D-02
12  1.1000000000000D-01  2.1675340741676D-01  6.2835098365651D-02
13  1.2000000000000D-01  2.3681530664897D-01  6.6793260476487D-02
14  1.3000000000000D-01  2.5696246230231D-01  7.0314248757278D-02
15  1.4000000000000D-01  2.7719875207216D-01  7.3369993264922D-02
16  1.5000000000000D-01  2.9752731168541D-01  7.5934348546318D-02
17  1.6000000000000D-01  3.1795049011593D-01  7.7983210604901D-02
18  1.7000000000000D-01  3.3846980742064D-01  7.9494627242378D-02
19  1.8000000000000D-01  3.5908591534454D-01  8.0448901400960D-02
20  1.9000000000000D-01  3.7979856083522D-01  8.0828687151034D-02
21  2.0000000000000D-01  4.0060655259929D-01  8.0619077989885D-02
22  2.1000000000000D-01  4.2150773082473D-01  7.9807687138934D-02
23  2.2000000000000D-01  4.4249894018391D-01  7.8384719549597D-02
24  2.3000000000000D-01  4.6357600622312D-01  7.6343035351528D-02
25  2.4000000000000D-01  4.8473371523452D-01  7.3678204501597D-02
26  2.5000000000000D-01  5.0596579769663D-01  7.0388552417174D-02
27  2.6000000000000D-01  5.2726491535928D-01  6.6475196403494D-02
28  2.7000000000000D-01  5.4862265203826D-01  6.1942072711541D-02
29  2.8000000000000D-01  5.7002950817441D-01  5.6795954090391D-02
30  2.9000000000000D-01  5.9147489920087D-01  5.1046457725829D-02
31  3.0000000000000D-01  6.1294715775093D-01  4.4706043485562D-02
32  3.1000000000000D-01  6.3443353972786D-01  3.7790002420215D-02
33  3.2000000000000D-01  6.5592023424667D-01  3.0316435498467D-02
34  3.3000000000000D-01  6.7739237744597D-01  2.2306222584241D-02
35  3.4000000000000D-01  6.9883407015694D-01  1.3782981693478D-02
36  3.5000000000000D-01  7.2022839940451D-01  4.7730185978096D-03
37  3.6000000000000D-01  7.4155746370427D-01 -4.6947331275730D-03
38  3.7000000000000D-01  7.6280240210723D-01 -1.4588781485123D-02
39  3.8000000000000D-01  7.8394342693279D-01 -2.4875154708371D-02
40  3.9000000000000D-01  8.0495986011894D-01 -3.5517489001749D-02
41  4.0000000000000D-01  8.2583017310746D-01 -4.6477125151582D-02
42  4.1000000000000D-01  8.4653203017055D-01 -5.7713213764321D-02
43  4.2000000000000D-01  8.6704233507456D-01 -6.9182828859890D-02
44  4.3000000000000D-01  8.8733728096553D-01 -8.0841089520225D-02
45  4.4000000000000D-01  9.0739240335091D-01 -9.2641289266020D-02
46  4.5000000000000D-01  9.2718263604153D-01 -1.0453503280840D-01
47  4.6000000000000D-01  9.4668236990798D-01 -1.1647237979672D-01
48  4.7000000000000D-01  9.6586551429607D-01 -1.2840199515883D-01
49  4.8000000000000D-01  9.8470556093679D-01 -1.4027130560689D-01
50  4.9000000000000D-01  1.0031756501775D+00 -1.5202666185883D-01
51  5.0000000000000D-01  1.0212486393528D+00 -1.6361350610441D-01
52  5.1000000000000D-01  1.0388971731052D+00 -1.7497654422430D-01
53  5.2000000000000D-01  1.0560937554593D+00 -1.8605992225195D-01
54  5.3000000000000D-01  1.0728108234455D+00 -1.9680740655033D-01
55  5.4000000000000D-01  1.0890208220627D+00 -2.0716256715942D-01
56  5.5000000000000D-01  1.1046962803658D+00 -2.1706896375572D-01
57  5.6000000000000D-01  1.1198098884551D+00 -2.2647033365225D-01
58  5.7000000000000D-01  1.1343345751437D+00 -2.3531078125567D-01
59  5.8000000000000D-01  1.1482435860734D+00 -2.4353496838770D-01
60  5.9000000000000D-01  1.1615105620458D+00 -2.5108830487002D-01
61  6.0000000000000D-01  1.1741096173349D+00 -2.5791713876539D-01
62  6.1000000000000D-01  1.1860154177431D+00 -2.6396894566362D-01
63  6.2000000000000D-01  1.1972032581630D+00 -2.6919251639826D-01
64  6.3000000000000D-01  1.2076491394065D+00 -2.7353814257954D-01
65  6.4000000000000D-01  1.2173298440633D+00 -2.7695779932991D-01
66  6.5000000000000D-01  1.2262230111503D+00 -2.7940532461249D-01
67  6.6000000000000D-01  1.2343072093180D+00 -2.8083659454723D-01
68  6.7000000000000D-01  1.2415620083790D+00 -2.8120969411706D-01
69  6.8000000000000D-01  1.2479680489307D+00 -2.8048508267584D-01
70  6.9000000000000D-01  1.2535071098442D+00 -2.7862575368022D-01
71  7.0000000000000D-01  1.2581621733990D+00 -2.7559738808133D-01
72  7.1000000000000D-01  1.2619174878481D+00 -2.7136850082692D-01
73  7.2000000000000D-01  1.2647586272026D+00 -2.6591057994153D-01
74  7.3000000000000D-01  1.2666725480323D+00 -2.5919821767109D-01
75  7.4000000000000D-01  1.2676476430889D+00 -2.5120923319924D-01
76  7.5000000000000D-01  1.2676737915612D+00 -2.4192478646483D-01
77  7.6000000000000D-01  1.2667424057862D+00 -2.3132948263449D-01
78  7.7000000000000D-01  1.2648464742455D+00 -2.1941146681020D-01
79  7.8000000000000D-01  1.2619806006876D+00 -2.0616250857911D-01
80  7.9000000000000D-01  1.2581410392283D+00 -1.9157807604230D-01
81  8.0000000000000D-01  1.2533257252913D+00 -1.7565739898956D-01
82  8.1000000000000D-01  1.2475343022630D+00 -1.5840352091951D-01
83  8.2000000000000D-01  1.2407681437481D+00 -1.3982333963759D-01
84  8.3000000000000D-01  1.2330303713251D+00 -1.1992763619910D-01
85  8.4000000000000D-01  1.2243258677138D+00 -9.8731092000312D-02
86  8.5000000000000D-01  1.2146612852807D+00 -7.6252293856866D-02
87  8.6000000000000D-01  1.2040450498201D+00 -5.2513726947059D-02
88  8.7000000000000D-01  1.1924873595667D+00 -2.7541755535395D-02
89  8.8000000000000D-01  1.1800001794060D+00 -1.3665914309650D-03
90  8.9000000000000D-01  1.1665972302642D+00  2.5977749824962D-02
91  9.0000000000000D-01  1.1522939736769D+00  5.4453505007884D-02
92  9.1000000000000D-01  1.1371075915462D+00  8.4019231421189D-02
93  9.2000000000000D-01  1.1210569611142D+00  1.1462988715433D-01
94  9.3000000000000D-01  1.1041626251949D+00  1.4623692323277D-01
95  9.4000000000000D-01  1.0864467577204D+00  1.7878838746395D-01
96  9.5000000000000D-01  1.0679331246735D+00  2.1222903974357D-01
97  9.6000000000000D-01  1.0486470404927D+00  2.4650047854695D-01
98  9.7000000000000D-01  1.0286153200510D+00  2.8154127829087D-01
99  9.8000000000000D-01  1.0078662263223D+00  3.1728713721341D-01
100  9.9000000000000D-01  9.8642941386691D-01  3.5367103538117D-01
101  1.0000000000000D+00  9.6433586827623D-01  3.9062340239728D-01
102  1.0100000000000D+00  9.4161784173536D-01  4.2807229434809D-01
103  1.0200000000000D+00  9.1830878487138D-01  4.6594357949174D-01
104  1.0300000000000D+00  8.9444327506949D-01  5.0416113215953D-01
105  1.0400000000000D+00  8.7005694145062D-01  5.4264703430975D-01
106  1.0500000000000D+00  8.4518638671544D-01  5.8132178414324D-01
107  1.0600000000000D+00  8.1986910607064D-01  6.2010451116321D-01
108  1.0700000000000D+00  7.9414340346320D-01  6.5891319703527D-01
109  1.0800000000000D+00  7.6804830535843D-01  6.9766490157902D-01
110  1.0900000000000D+00  7.4162347230558D-01  7.3627599320161D-01
111  1.1000000000000D+00  7.1490910854369D-01  7.7466238306274D-01
112  1.1100000000000D+00  6.8794586990632D-01  8.1273976224508D-01
113  1.1200000000000D+00  6.6077477029148D-01  8.5042384118660D-01
114  1.1300000000000D+00  6.3343708696787D-01  8.8763059062006D-01
115  1.1400000000000D+00  6.0597426499353D-01  9.2427648325407D-01
116  1.1500000000000D+00  5.7842782102644D-01  9.6027873542349D-01
117  1.1600000000000D+00  5.5083924680988D-01  9.9555554793067D-01
118  1.1700000000000D+00  5.2324991261722D-01  1.0300263452969D+00
119  1.1800000000000D+00  4.9570097094161D-01  1.0636120126452D+00
120  1.1900000000000D+00  4.6823326071635D-01  1.0962351294365D+00
121  1.2000000000000D+00  4.4088721235086D-01  1.1278201992880D+00
122  1.2100000000000D+00  4.1370275386521D-01  1.1582938751109D+00
123  1.2200000000000D+00  3.8671921840279D-01  1.1875851788182D+00
124  1.2300000000000D+00  3.5997525339911D-01  1.2156257148596D+00
125  1.2400000000000D+00  3.3350873167749D-01  1.2423498768659D+00
126  1.2500000000000D+00  3.0735666473644D-01  1.2676950467047D+00
127  1.2600000000000D+00  2.8155511849230D-01  1.2916017852552D+00
128  1.2700000000000D+00  2.5613913172674D-01  1.3140140142547D+00
129  1.2800000000000D+00  2.3114263748064D-01  1.3348791885938D+00
130  1.2900000000000D+00  2.0659838763672D-01  1.3541484584377D+00
131  1.3000000000000D+00  1.8253788090962D-01  1.3717768206231D+00
132  1.3100000000000D+00  1.5899129445621D-01  1.3877232587990D+00
133  1.3200000000000D+00  1.3598741931859D-01  1.4019508717821D+00
134  1.3300000000000D+00  1.1355359988005D-01  1.4144269896951D+00
135  1.3400000000000D+00  9.1715677513851D-02  1.4251232774572D+00
136  1.3500000000000D+00  7.0497938598487D-02  1.4340158252159D+00
137  1.3600000000000D+00  4.9923067033845D-02  1.4410852254279D+00
138  1.3700000000000D+00  3.0012101406693D-02  1.4463166362539D+00
139  1.3800000000000D+00  1.0784396926224D-02  1.4496998310152D+00
140  1.3900000000000D+00 -7.7424077835355D-03  1.4512292335618D+00
141  1.4000000000000D+00 -2.5552418913232D-02  1.4509039392986D+00
142  1.4100000000000D+00 -4.2631510677810D-02  1.4487277218528D+00
143  1.4200000000000D+00 -5.8967343434707D-02  1.4447090252752D+00
144  1.4300000000000D+00 -7.4549376660936D-02  1.4388609417357D+00
145  1.4400000000000D+00 -8.9368876800204D-02  1.4312011748483D+00
146  1.4500000000000D+00 -1.0341891992358D-01  1.4217519885645D+00
147  1.4600000000000D+00 -1.1669438926387D-01  1.4105401419151D+00
148  1.4700000000000D+00 -1.2919196761880D-01  1.3975968096877D+00
149  1.4800000000000D+00 -1.4091012467297D-01  1.3829574892890D+00
150  1.4900000000000D+00 -1.5184909932230D-01  1.3666618941361D+00
151  1.5000000000000D+00 -1.6201087702909D-01  1.3487538337621D+00
152  1.5100000000000D+00 -1.7139916236814D-01  1.3292810811978D+00
153  1.5200000000000D+00 -1.8001934679899D-01  1.3082952278361D+00
154  1.5300000000000D+00 -1.8787847185535D-01  1.2858515264258D+00
155  1.5400000000000D+00 -1.9498518784143D-01  1.2620087225547D+00
156  1.5500000000000D+00 -2.0134970821536D-01  1.2368288752377D+00
157  1.5600000000000D+00 -2.0698375982298D-01  1.2103771671740D+00
158  1.5700000000000D+00 -2.1190052914429D-01  1.1827217052394D+00
159  1.5800000000000D+00 -2.1611460478323D-01  1.1539333119591D+00
160  1.5900000000000D+00 -2.1964191634986D-01  1.1240853084953D+00
161  1.6000000000000D+00 -2.2249967002031D-01  1.0932532900342D+00
162  1.6100000000000D+00 -2.2470628092021D-01  1.0615148941040D+00
163  1.6200000000000D+00 -2.2628130265135D-01  1.0289495627905D+00
164  1.6300000000000D+00 -2.2724535412178D-01  9.9563829942510D-01
165  1.6400000000000D+00 -2.2762004400764D-01  9.6166342072382D-01
166  1.6500000000000D+00 -2.2742789303707D-01  9.2710830503448D-01
167  1.6600000000000D+00 -2.2669225441676D-01  8.9205713763852D-01
168  1.6700000000000D+00 -2.2543723262286D-01  8.5659465384835D-01
169  1.6800000000000D+00 -2.2368760086537D-01  8.2080588080278D-01
170  1.6900000000000D+00 -2.2146871747326D-01  7.8477587876850D-01
171  1.7000000000000D+00 -2.1880644149548D-01  7.4858948279648D-01
172  1.7100000000000D+00 -2.1572704778652D-01  7.1233104559889D-01
173  1.7200000000000D+00 -2.1225714185176D-01  6.7608418241966D-01
174  1.7300000000000D+00 -2.0842357474320D-01  6.3993151882754D-01
175  1.7400000000000D+00 -2.0425335824941D-01  6.0395444208984D-01
176  1.7500000000000D+00 -1.9977358069872D-01  5.6823285714417D-01
177  1.7600000000000D+00 -1.9501132357039D-01  5.3284494765153D-01
178  1.7700000000000D+00 -1.8999357927481D-01  4.9786694328421D-01
179  1.7800000000000D+00 -1.8474717022427D-01  4.6337289347927D-01
180  1.7900000000000D+00 -1.7929866961092D-01  4.2943444898904D-01
181  1.8000000000000D+00 -1.7367432393387D-01  3.9612065119602D-01
182  1.8100000000000D+00 -1.6789997772457D-01  3.6349773061343D-01
183  1.8200000000000D+00 -1.6200100046873D-01  3.3162891440879D-01
184  1.8300000000000D+00 -1.5600221615287D-01  3.0057424427633D-01
185  1.8400000000000D+00 -1.4992783544280D-01  2.7039040454534D-01
186  1.8500000000000D+00 -1.4380139083846D-01  2.4113056155007D-01
187  1.8600000000000D+00 -1.3764567488393D-01  2.1284421440000D-01
188  1.8700000000000D+00 -1.3148268161946D-01  1.8557705764254D-01
189  1.8800000000000D+00 -1.2533355150049D-01  1.5937085644371D-01
190  1.8900000000000D+00 -1.1921851973235D-01  1.3426333399675D-01
191  1.9000000000000D+00 -1.1315686846094D-01  1.1028807248072D-01
192  1.9100000000000D+00 -1.0716688248692D-01  8.7474426376269D-02
193  1.9200000000000D+00 -1.0126580912237D-01  6.5847450023695D-02
194  1.9300000000000D+00 -9.5469821745971D-02  4.5427837886831D-02
195  1.9400000000000D+00 -8.9793987549504D-02  2.6231878987449D-02
196  1.9500000000000D+00 -8.4252239256512D-02  8.2714247054461D-03
197  1.9600000000000D+00 -7.8857350916054D-02 -8.4461298394143D-03
198  1.9700000000000D+00 -7.3620917947335D-02 -2.3917850377169D-02
199  1.9800000000000D+00 -6.8553341049809D-02 -3.8145255364828D-02
200  1.9900000000000D+00 -6.3663814538562D-02 -5.1134293512992D-02
201  2.0000000000000D+00 -5.8960318449008D-02 -6.2895309105707D-02
202  2.0100000000000D+00 -5.4449614910763D-02 -7.3442993679651D-02
203  2.0200000000000D+00 -5.0137248405457D-02 -8.2796325353739D-02
204  2.0300000000000D+00 -4.6027549893320D-02 -9.0978495967116D-02
205  2.0400000000000D+00 -4.2123643681855D-02 -9.8016831498673D-02
206  2.0500000000000D+00 -3.8427464510201D-02 -1.0394267103163D-01
207  2.0600000000000D+00 -3.4939759441024D-02 -1.0879131970778D-01
208  2.0700000000000D+00 -3.1660128750070D-02 -1.1260183326227D-01
209  2.0800000000000D+00 -2.8587042941233D-02 -1.1541691225123D-01
210  2.0900000000000D+00 -2.5717860058802D-02 -1.1728279472686D-01
211  2.1000000000000D+00 -2.3048764222448D-02 -1.1824953016529D-01
212  2.1100000000000D+00 -2.0574981403023D-02 -1.1836998064156D-01
213  2.1200000000000D+00 -1.8290876920720D-02 -1.1769936002433D-01
214  2.1300000000000D+00 -1.6190093031299D-02 -1.1629463009324D-01
215  2.1400000000000D+00 -1.4265663682390D-02 -1.1421403138264D-01
216  2.1500000000000D+00 -1.2510261636142D-02 -1.1151600624307D-01
217  2.1600000000000D+00 -1.0916156931710D-02 -1.0825944195990D-01
218  2.1700000000000D+00 -9.4752825607249D-03 -1.0450344224644D-01
219  2.1800000000000D+00 -8.1792864567849D-03 -1.0030715686358D-01
220  2.1900000000000D+00 -7.0196199504060D-03 -9.5729434792841D-02
221  2.2000000000000D+00 -5.9875854504100D-03 -9.0828674795625D-02
222  2.2100000000000D+00 -5.0744032654495D-03 -8.5662585008606D-02
223  2.2200000000000D+00 -4.2712724453705D-03 -8.0287970545363D-02
224  2.2300000000000D+00 -3.5694308442237D-03 -7.4760524320664D-02
225  2.2400000000000D+00 -2.9602140027351D-03 -6.9134622352091D-02
226  2.2500000000000D+00 -2.4351128723333D-03 -6.3463123690082D-02
227  2.2600000000000D+00 -1.9858295831224D-03 -5.7797177749956D-02
228  2.2700000000000D+00 -1.6043313208557D-03 -5.2186038645750D-02
229  2.2800000000000D+00 -1.2829020761831D-03 -4.6676887687366D-02
230  2.2900000000000D+00 -1.0141923464267D-03 -4.1314662760222D-02
231  2.3000000000000D+00 -7.9126634994529D-04 -3.6141896921996D-02
232  2.3100000000000D+00 -6.0764712164424D-04 -3.1198564383280D-02
233  2.3200000000000D+00 -4.5735724901038D-04 -2.6521942454082D-02
234  2.3300000000000D+00 -3.3495736926145D-04 -2.2146481385191D-02
235  2.3400000000000D+00 -2.3558165582326D-04 -1.8103684532016D-02
236  2.3500000000000D+00 -1.5490515234218D-04 -1.4425139230184D-02
237  2.3600000000000D+00 -8.9401914787825D-05 -1.1131409410517D-02
238  2.3700000000000D+00 -3.6189476642107D-05 -8.2406560902431D-03
239  2.3800000000000D+00  6.0846986818136D-06 -5.7559860285974D-03
240  2.3900000000000D+00  4.0929778880564D-05 -3.7327496521121D-03
241  2.4000000000000D+00  7.0146414195640D-05 -2.2037122429834D-03
242  2.4100000000000D+00  9.6801328453193D-05 -1.1945031537261D-03
243  2.4200000000000D+00  1.0991883454185D-04 -5.8645729712483D-04
244  2.4300000000000D+00  1.0214672522255D-04 -2.6131473053774D-04
245  2.4400000000000D+00  6.7871705044395D-05 -8.9390329909183D-05
246  2.4500000000000D+00  2.6754679155475D-05 -1.8490736888423D-05
247  2.4600000000000D+00 -4.3106438385069D-06  1.8362734833391D-06
248  2.4700000000000D+00 -1.1868624806508D-05  1.7391977277771D-06
249  2.4800000000000D+00 -6.8374780346124D-06 -3.5047345066867D-07
250  2.4900000000000D+00  9.7700114552780D-07 -7.3949609967164D-07
251  2.5000000000000D+00  2.6294593206398D-06 -1.7152328241563D-06
252  2.5100000000000D+00  1.6106769100645D-06 -9.1190963093737D-07
253  2.5200000000000D+00 -1.0937048975396D-07  3.1131487926987D-07
254  2.5300000000000D+00 -2.9802537710985D-07  8.4830683763989D-07
255  2.5400000000000D+00 -1.9244242649670D-07  5.4777290387922D-07
256  2.5500000000000D+00  0.0000000000000D+00  0.0000000000000D+00
257  2.5600000000000D+00  0.0000000000000D+00  0.0000000000000D+00
258  2.5700000000000D+00  0.0000000000000D+00  0.0000000000000D+00
259  2.5800000000000D+00  0.0000000000000D+00  0.0000000000000D+00
260  2.5900000000000D+00  0.0000000000000D+00  0.0000000000000D+00
261  2.6000000000000D+00  0.0000000000000D+00  0.0000000000000D+00
262  2.6100000000000D+00  0.0000000000000D+00  0.0000000000000D+00
263  2.6200000000000D+00  0.0000000000000D+00  0.0000000000000D+00
264  2.6300000000000D+00  0.0000000000000D+00  0.0000000000000D+00
265  2.6400000000000D+00  0.0000000000000D+00  0.0000000000000D+00
266  2.6500000000000D+00  0.0000000000000D+00  0.0000000000000D+00
267  2.6600000000000D+00  0.0000000000000D+00  0.0000000000000D+00
268  2.6700000000000D+00  0.0000000000000D+00  0.0000000000000D+00
269  2.6800000000000D+00  0.0000000000000D+00  0.0000000000000D+00
270  2.6900000000000D+00  0.0000000000000D+00  0.0000000000000D+00
271  2.7000000000000D+00  0.0000000000000D+00  0.0000000000000D+00
272  2.7100000000000D+00  0.0000000000000D+00  0.0000000000000D+00
273  2.7200000000000D+00  0.0000000000000D+00  0.0000000000000D+00
274  2.7300000000000D+00  0.0000000000000D+00  0.0000000000000D+00
275  2.7400000000000D+00  0.0000000000000D+00  0.0000000000000D+00
276  2.7500000000000D+00  0.0000000000000D+00  0.0000000000000D+00
277  2.7600000000000D+00  0.0000000000000D+00  0.0000000000000D+00
278  2.7700000000000D+00  0.0000000000000D+00  0.0000000000000D+00
279  2.7800000000000D+00  0.0000000000000D+00  0.0000000000000D+00
280  2.7900000000000D+00  0.0000000000000D+00  0.0000000000000D+00
281  2.8000000000000D+00  0.0000000000000D+00  0.0000000000000D+00
282  2.8100000000000D+00  0.0000000000000D+00  0.0000000000000D+00
283  2.8200000000000D+00  0.0000000000000D+00  0.0000000000000D+00
284  2.8300000000000D+00  0.0000000000000D+00  0.0000000000000D+00
285  2.8400000000000D+00  0.0000000000000D+00  0.0000000000000D+00
286  2.8500000000000D+00  0.0000000000000D+00  0.0000000000000D+00
287  2.8600000000000D+00  0.0000000000000D+00  0.0000000000000D+00
288  2.8700000000000D+00  0.0000000000000D+00  0.0000000000000D+00
289  2.8800000000000D+00  0.0000000000000D+00  0.0000000000000D+00
290  2.8900000000000D+00  0.0000000000000D+00  0.0000000000000D+00
291  2.9000000000000D+00  0.0000000000000D+00  0.0000000000000D+00
292  2.9100000000000D+00  0.0000000000000D+00  0.0000000000000D+00
293  2.9200000000000D+00  0.0000000000000D+00  0.0000000000000D+00
294  2.9300000000000D+00  0.0000000000000D+00  0.0000000000000D+00
295  2.9400000000000D+00  0.0000000000000D+00  0.0000000000000D+00
296  2.9500000000000D+00  0.0000000000000D+00  0.0000000000000D+00
297  2.9600000000000D+00  0.0000000000000D+00  0.0000000000000D+00
298  2.9700000000000D+00  0.0000000000000D+00  0.0000000000000D+00
299  2.9800000000000D+00  0.0000000000000D+00  0.0000000000000D+00
300  2.9900000000000D+00  0.0000000000000D+00  0.0000000000000D+00
301  3.0000000000000D+00  0.0000000000000D+00  0.0000000000000D+00
302  3.0100000000000D+00  0.0000000000000D+00  0.0000000000000D+00
303  3.0200000000000D+00  0.0000000000000D+00  0.0000000000000D+00
304  3.0300000000000D+00  0.0000000000000D+00  0.0000000000000D+00
305  3.0400000000000D+00  0.0000000000000D+00  0.0000000000000D+00
306  3.0500000000000D+00  0.0000000000000D+00  0.0000000000000D+00
307  3.0600000000000D+00  0.0000000000000D+00  0.0000000000000D+00
308  3.0700000000000D+00  0.0000000000000D+00  0.0000000000000D+00
309  3.0800000000000D+00  0.0000000000000D+00  0.0000000000000D+00
310  3.0900000000000D+00  0.0000000000000D+00  0.0000000000000D+00
311  3.1000000000000D+00  0.0000000000000D+00  0.0000000000000D+00
312  3.1100000000000D+00  0.0000000000000D+00  0.0000000000000D+00
313  3.1200000000000D+00  0.0000000000000D+00  0.0000000000000D+00
314  3.1300000000000D+00  0.0000000000000D+00  0.0000000000000D+00
315  3.1400000000000D+00  0.0000000000000D+00  0.0000000000000D+00
316  3.1500000000000D+00  0.0000000000000D+00  0.0000000000000D+00
317  3.1600000000000D+00  0.0000000000000D+00  0.0000000000000D+00
318  3.1700000000000D+00  0.0000000000000D+00  0.0000000000000D+00
319  3.1800000000000D+00  0.0000000000000D+00  0.0000000000000D+00
320  3.1900000000000D+00  0.0000000000000D+00  0.0000000000000D+00
321  3.2000000000000D+00  0.0000000000000D+00  0.0000000000000D+00
322  3.2100000000000D+00  0.0000000000000D+00  0.0000000000000D+00
323  3.2200000000000D+00  0.0000000000000D+00  0.0000000000000D+00
324  3.2300000000000D+00  0.0000000000000D+00  0.0000000000000D+00
325  3.2400000000000D+00  0.0000000000000D+00  0.0000000000000D+00
326  3.2500000000000D+00  0.0000000000000D+00  0.0000000000000D+00
327  3.2600000000000D+00  0.0000000000000D+00  0.0000000000000D+00
328  3.2700000000000D+00  0.0000000000000D+00  0.0000000000000D+00
329  3.2800000000000D+00  0.0000000000000D+00  0.0000000000000D+00
330  3.2900000000000D+00  0.0000000000000D+00  0.0000000000000D+00
331  3.3000000000000D+00  0.0000000000000D+00  0.0000000000000D+00
332  3.3100000000000D+00  0.0000000000000D+00  0.0000000000000D+00
333  3.3200000000000D+00  0.0000000000000D+00  0.0000000000000D+00
334  3.3300000000000D+00  0.0000000000000D+00  0.0000000000000D+00
335  3.3400000000000D+00  0.0000000000000D+00  0.0000000000000D+00
336  3.3500000000000D+00  0.0000000000000D+00  0.0000000000000D+00
337  3.3600000000000D+00  0.0000000000000D+00  0.0000000000000D+00
338  3.3700000000000D+00  0.0000000000000D+00  0.0000000000000D+00
339  3.3800000000000D+00  0.0000000000000D+00  0.0000000000000D+00
340  3.3900000000000D+00  0.0000000000000D+00  0.0000000000000D+00
341  3.4000000000000D+00  0.0000000000000D+00  0.0000000000000D+00
342  3.4100000000000D+00  0.0000000000000D+00  0.0000000000000D+00
343  3.4200000000000D+00  0.0000000000000D+00  0.0000000000000D+00
344  3.4300000000000D+00  0.0000000000000D+00  0.0000000000000D+00
345  3.4400000000000D+00  0.0000000000000D+00  0.0000000000000D+00
346  3.4500000000000D+00  0.0000000000000D+00  0.0000000000000D+00
347  3.4600000000000D+00  0.0000000000000D+00  0.0000000000000D+00
348  3.4700000000000D+00  0.0000000000000D+00  0.0000000000000D+00
349  3.4800000000000D+00  0.0000000000000D+00  0.0000000000000D+00
350  3.4900000000000D+00  0.0000000000000D+00  0.0000000000000D+00
351  3.5000000000000D+00  0.0000000000000D+00  0.0000000000000D+00
352  3.5100000000000D+00  0.0000000000000D+00  0.0000000000000D+00
353  3.5200000000000D+00  0.0000000000000D+00  0.0000000000000D+00
354  3.5300000000000D+00  0.0000000000000D+00  0.0000000000000D+00
355  3.5400000000000D+00  0.0000000000000D+00  0.0000000000000D+00
356  3.5500000000000D+00  0.0000000000000D+00  0.0000000000000D+00
357  3.5600000000000D+00  0.0000000000000D+00  0.0000000000000D+00
358  3.5700000000000D+00  0.0000000000000D+00  0.0000000000000D+00
359  3.5800000000000D+00  0.0000000000000D+00  0.0000000000000D+00
360  3.5900000000000D+00  0.0000000000000D+00  0.0000000000000D+00
361  3.6000000000000D+00  0.0000000000000D+00  0.0000000000000D+00
362  3.6100000000000D+00  0.0000000000000D+00  0.0000000000000D+00
363  3.6200000000000D+00  0.0000000000000D+00  0.0000000000000D+00
364  3.6300000000000D+00  0.0000000000000D+00  0.0000000000000D+00
365  3.6400000000000D+00  0.0000000000000D+00  0.0000000000000D+00
366  3.6500000000000D+00  0.0000000000000D+00  0.0000000000000D+00
367  3.6600000000000D+00  0.0000000000000D+00  0.0000000000000D+00
368  3.6700000000000D+00  0.0000000000000D+00  0.0000000000000D+00
369  3.6800000000000D+00  0.0000000000000D+00  0.0000000000000D+00
370  3.6900000000000D+00  0.0000000000000D+00  0.0000000000000D+00
371  3.7000000000000D+00  0.0000000000000D+00  0.0000000000000D+00
372  3.7100000000000D+00  0.0000000000000D+00  0.0000000000000D+00
373  3.7200000000000D+00  0.0000000000000D+00  0.0000000000000D+00
374  3.7300000000000D+00  0.0000000000000D+00  0.0000000000000D+00
375  3.7400000000000D+00  0.0000000000000D+00  0.0000000000000D+00
376  3.7500000000000D+00  0.0000000000000D+00  0.0000000000000D+00
377  3.7600000000000D+00  0.0000000000000D+00  0.0000000000000D+00
378  3.7700000000000D+00  0.0000000000000D+00  0.0000000000000D+00
379  3.7800000000000D+00  0.0000000000000D+00  0.0000000000000D+00
380  3.7900000000000D+00  0.0000000000000D+00  0.0000000000000D+00
381  3.8000000000000D+00  0.0000000000000D+00  0.0000000000000D+00
382  3.8100000000000D+00  0.0000000000000D+00  0.0000000000000D+00
383  3.8200000000000D+00  0.0000000000000D+00  0.0000000000000D+00
384  3.8300000000000D+00  0.0000000000000D+00  0.0000000000000D+00
385  3.8400000000000D+00  0.0000000000000D+00  0.0000000000000D+00
386  3.8500000000000D+00  0.0000000000000D+00  0.0000000000000D+00
387  3.8600000000000D+00  0.0000000000000D+00  0.0000000000000D+00
388  3.8700000000000D+00  0.0000000000000D+00  0.0000000000000D+00
389  3.8800000000000D+00  0.0000000000000D+00  0.0000000000000D+00
390  3.8900000000000D+00  0.0000000000000D+00  0.0000000000000D+00
391  3.9000000000000D+00  0.0000000000000D+00  0.0000000000000D+00
392  3.9100000000000D+00  0.0000000000000D+00  0.0000000000000D+00
393  3.9200000000000D+00  0.0000000000000D+00  0.0000000000000D+00
394  3.9300000000000D+00  0.0000000000000D+00  0.0000000000000D+00
395  3.9400000000000D+00  0.0000000000000D+00  0.0000000000000D+00
396  3.9500000000000D+00  0.0000000000000D+00  0.0000000000000D+00
397  3.9600000000000D+00  0.0000000000000D+00  0.0000000000000D+00
398  3.9700000000000D+00  0.0000000000000D+00  0.0000000000000D+00
399  3.9800000000000D+00  0.0000000000000D+00  0.0000000000000D+00
400  3.9900000000000D+00  0.0000000000000D+00  0.0000000000000D+00
401  4.0000000000000D+00  0.0000000000000D+00  0.0000000000000D+00
402  4.0100000000000D+00  0.0000000000000D+00  0.0000000000000D+00
403  4.0200000000000D+00  0.0000000000000D+00  0.0000000000000D+00
404  4.0300000000000D+00  0.0000000000000D+00  0.0000000000000D+00
405  4.0400000000000D+00  0.0000000000000D+00  0.0000000000000D+00
406  4.0500000000000D+00  0.0000000000000D+00  0.0000000000000D+00
407  4.0600000000000D+00  0.0000000000000D+00  0.0000000000000D+00
408  4.0700000000000D+00  0.0000000000000D+00  0.0000000000000D+00
409  4.0800000000000D+00  0.0000000000000D+00  0.0000000000000D+00
410  4.0900000000000D+00  0.0000000000000D+00  0.0000000000000D+00
411  4.1000000000000D+00  0.0000000000000D+00  0.0000000000000D+00
412  4.1100000000000D+00  0.0000000000000D+00  0.0000000000000D+00
413  4.1200000000000D+00  0.0000000000000D+00  0.0000000000000D+00
414  4.1300000000000D+00  0.0000000000000D+00  0.0000000000000D+00
415  4.1400000000000D+00  0.0000000000000D+00  0.0000000000000D+00
416  4.1500000000000D+00  0.0000000000000D+00  0.0000000000000D+00
417  4.1600000000000D+00  0.0000000000000D+00  0.0000000000000D+00
418  4.1700000000000D+00  0.0000000000000D+00  0.0000000000000D+00
419  4.1800000000000D+00  0.0000000000000D+00  0.0000000000000D+00
420  4.1900000000000D+00  0.0000000000000D+00  0.0000000000000D+00
421  4.2000000000000D+00  0.0000000000000D+00  0.0000000000000D+00
422  4.2100000000000D+00  0.0000000000000D+00  0.0000000000000D+00
423  4.2200000000000D+00  0.0000000000000D+00  0.0000000000000D+00
424  4.2300000000000D+00  0.0000000000000D+00  0.0000000000000D+00
425  4.2400000000000D+00  0.0000000000000D+00  0.0000000000000D+00
426  4.2500000000000D+00  0.0000000000000D+00  0.0000000000000D+00
427  4.2600000000000D+00  0.0000000000000D+00  0.0000000000000D+00
428  4.2700000000000D+00  0.0000000000000D+00  0.0000000000000D+00
429  4.2800000000000D+00  0.0000000000000D+00  0.0000000000000D+00
430  4.2900000000000D+00  0.0000000000000D+00  0.0000000000000D+00
431  4.3000000000000D+00  0.0000000000000D+00  0.0000000000000D+00
432  4.3100000000000D+00  0.0000000000000D+00  0.0000000000000D+00
433  4.3200000000000D+00  0.0000000000000D+00  0.0000000000000D+00
434  4.3300000000000D+00  0.0000000000000D+00  0.0000000000000D+00
435  4.3400000000000D+00  0.0000000000000D+00  0.0000000000000D+00
436  4.3500000000000D+00  0.0000000000000D+00  0.0000000000000D+00
437  4.3600000000000D+00  0.0000000000000D+00  0.0000000000000D+00
438  4.3700000000000D+00  0.0000000000000D+00  0.0000000000000D+00
439  4.3800000000000D+00  0.0000000000000D+00  0.0000000000000D+00
440  4.3900000000000D+00  0.0000000000000D+00  0.0000000000000D+00
441  4.4000000000000D+00  0.0000000000000D+00  0.0000000000000D+00
442  4.4100000000000D+00  0.0000000000000D+00  0.0000000000000D+00
443  4.4200000000000D+00  0.0000000000000D+00  0.0000000000000D+00
444  4.4300000000000D+00  0.0000000000000D+00  0.0000000000000D+00