Ta    ONCVPSP  r_core=  2.57  2.07  2.07
73.0000     11.0000      140906    zatom,zion,pspd
8    11     2     4   601     0    pspcod,pspxc,lmax,lloc,mmax,r2well
6.00000000  0.90000000  0.00000000    rchrg fchrg qchrg
2     2     2     0     0    nproj
0                 extension_switch
0                         5.3016739797606D+00  7.0084770907692D-01
1  0.0000000000000D+00 -0.0000000000000D+00 -0.0000000000000D+00
2  1.0000000000000D-02 -2.2705787430007D-02 -2.8540950502524D-02
3  2.0000000000000D-02 -4.5384230863025D-02 -5.7023079291347D-02
4  3.0000000000000D-02 -6.8008046587228D-02 -8.5387689196055D-02
5  4.0000000000000D-02 -9.0550071362468D-02 -1.1357633193537D-01
6  5.0000000000000D-02 -1.1298332240936D-01 -1.4153093206789D-01
7  6.0000000000000D-02 -1.3528105710192D-01 -1.6919391034972D-01
8  7.0000000000000D-02 -1.5741683226410D-01 -1.9650830629972D-01
9  8.0000000000000D-02 -1.7936456297041D-01 -2.2341789977322D-01
10  9.0000000000000D-02 -2.0109858075009D-01 -2.4986733134348D-01
11  1.0000000000000D-01 -2.2259369109193D-01 -2.7580222128603D-01
12  1.1000000000000D-01 -2.4382523015102D-01 -3.0116928696946D-01
13  1.2000000000000D-01 -2.6476912054903D-01 -3.2591645843732D-01
14  1.3000000000000D-01 -2.8540192616799D-01 -3.4999299198285D-01
15  1.4000000000000D-01 -3.0570090583233D-01 -3.7334958150827D-01
16  1.5000000000000D-01 -3.2564406576513D-01 -3.9593846744262D-01
17  1.6000000000000D-01 -3.4521021073010D-01 -4.1771354304553D-01
18  1.7000000000000D-01 -3.6437899372652D-01 -4.3863045783276D-01
19  1.8000000000000D-01 -3.8313096415118D-01 -4.5864671795770D-01
20  1.9000000000000D-01 -4.0144761427853D-01 -4.7772178325167D-01
21  2.0000000000000D-01 -4.1931142405315D-01 -4.9581716092517D-01
22  2.1000000000000D-01 -4.3670590387271D-01 -5.1289649527373D-01
23  2.2000000000000D-01 -4.5361563554317D-01 -5.2892565378195D-01
24  2.3000000000000D-01 -4.7002631100309D-01 -5.4387280880042D-01
25  2.4000000000000D-01 -4.8592476897522D-01 -5.5770851514280D-01
26  2.5000000000000D-01 -5.0129902910590D-01 -5.7040578269812D-01
27  2.6000000000000D-01 -5.1613832392711D-01 -5.8194014478019D-01
28  2.7000000000000D-01 -5.3043312796571D-01 -5.9228972080944D-01
29  2.8000000000000D-01 -5.4417518460757D-01 -6.0143527463065D-01
30  2.9000000000000D-01 -5.5735752987132D-01 -6.0936026669814D-01
31  3.0000000000000D-01 -5.6997451345326D-01 -6.1605090091022D-01
32  3.1000000000000D-01 -5.8202181681256D-01 -6.2149616562334D-01
33  3.2000000000000D-01 -5.9349646841542D-01 -6.2568786913307D-01
34  3.3000000000000D-01 -6.0439685543850D-01 -6.2862066812313D-01
35  3.4000000000000D-01 -6.1472273233625D-01 -6.3029208995548D-01
36  3.5000000000000D-01 -6.2447522678527D-01 -6.3070255003135D-01
37  3.6000000000000D-01 -6.3365684093365D-01 -6.2985535955392D-01
38  3.7000000000000D-01 -6.4227145052369D-01 -6.2775672954662D-01
39  3.8000000000000D-01 -6.5032429965880D-01 -6.2441576607855D-01
40  3.9000000000000D-01 -6.5782199217402D-01 -6.1984445886735D-01
41  4.0000000000000D-01 -6.6477247951519D-01 -6.1405766309767D-01
42  4.1000000000000D-01 -6.7118504490206D-01 -6.0707307402739D-01
43  4.2000000000000D-01 -6.7707028365099D-01 -5.9891119396617D-01
44  4.3000000000000D-01 -6.8244007985555D-01 -5.8959529213616D-01
45  4.4000000000000D-01 -6.8730757931419D-01 -5.7915135723138D-01
46  4.5000000000000D-01 -6.9168715878840D-01 -5.6760804272709D-01
47  4.6000000000000D-01 -6.9559439140605D-01 -5.5499660472033D-01
48  4.7000000000000D-01 -6.9904600806165D-01 -5.4135083195866D-01
49  4.8000000000000D-01 -7.0205985557185D-01 -5.2670696932395D-01
50  4.9000000000000D-01 -7.0465485091947D-01 -5.1110363376197D-01
51  5.0000000000000D-01 -7.0685093344683D-01 -4.9458172585369D-01
52  5.1000000000000D-01 -7.0866900900127D-01 -4.7718432655874D-01
53  5.2000000000000D-01 -7.1013089463258D-01 -4.5895659396699D-01
54  5.3000000000000D-01 -7.1125926382999D-01 -4.3994566067686D-01
55  5.4000000000000D-01 -7.1207757343984D-01 -4.2020049760436D-01
56  5.5000000000000D-01 -7.1261000785129D-01 -3.9977180821915D-01
57  5.6000000000000D-01 -7.1288140390853D-01 -3.7871188758325D-01
58  5.7000000000000D-01 -7.1291717993895D-01 -3.5707448811896D-01
59  5.8000000000000D-01 -7.1274326264696D-01 -3.3491468118933D-01
60  5.9000000000000D-01 -7.1238600919170D-01 -3.1228870926634D-01
61  6.0000000000000D-01 -7.1187212156504D-01 -2.8925382343128D-01
62  6.1000000000000D-01 -7.1122858464586D-01 -2.6586816453103D-01
63  6.2000000000000D-01 -7.1048254675148D-01 -2.4219053671404D-01
64  6.3000000000000D-01 -7.0966127337397D-01 -2.1828031725131D-01
65  6.4000000000000D-01 -7.0879203836139D-01 -1.9419724906405D-01
66  6.5000000000000D-01 -7.0790202729784D-01 -1.7000125542896D-01
67  6.6000000000000D-01 -7.0701827260336D-01 -1.4575231415431D-01
68  6.7000000000000D-01 -7.0616755982849D-01 -1.2151027727551D-01
69  6.8000000000000D-01 -7.0537630225458D-01 -9.7334630021411D-02
70  6.9000000000000D-01 -7.0467048936348D-01 -7.3284389362417D-02
71  7.0000000000000D-01 -7.0407558405066D-01 -4.9417905132183D-02
72  7.1000000000000D-01 -7.0361644669226D-01 -2.5792711829982D-02
73  7.2000000000000D-01 -7.0331720010233D-01 -2.4652669704083D-03
74  7.3000000000000D-01 -7.0320118118842D-01  2.0509145485103D-02
75  7.4000000000000D-01 -7.0329084502707D-01  4.3076602908863D-02
76  7.5000000000000D-01 -7.0360767705235D-01  6.5184716844595D-02
77  7.6000000000000D-01 -7.0417210888072D-01  8.6782799415772D-02
78  7.7000000000000D-01 -7.0500343639217D-01  1.0782202595515D-01
79  7.8000000000000D-01 -7.0611974809630D-01  1.2825557828132D-01
80  7.9000000000000D-01 -7.0753782876379D-01  1.4803883659656D-01
81  8.0000000000000D-01 -7.0927309806167D-01  1.6712950430198D-01
82  8.1000000000000D-01 -7.1133954541469D-01  1.8548774063060D-01
83  8.2000000000000D-01 -7.1374965955573D-01  2.0307630434874D-01
84  8.3000000000000D-01 -7.1651436636235D-01  2.1986068211996D-01
85  8.4000000000000D-01 -7.1964297099801D-01  2.3580920926849D-01
86  8.5000000000000D-01 -7.2314310462465D-01  2.5089318244260D-01
87  8.6000000000000D-01 -7.2702067594442D-01  2.6508696369374D-01
88  8.7000000000000D-01 -7.3127982781770D-01  2.7836807550698D-01
89  8.8000000000000D-01 -7.3592289919340D-01  2.9071728633706D-01
90  8.9000000000000D-01 -7.4095039257432D-01  3.0211868622790D-01
91  9.0000000000000D-01 -7.4636094722510D-01  3.1255975212002D-01
92  9.1000000000000D-01 -7.5215132436868D-01  3.2203139005295D-01
93  9.2000000000000D-01 -7.5831638771438D-01  3.3052798799964D-01
94  9.3000000000000D-01 -7.6484907329385D-01  3.3804749313831D-01
95  9.4000000000000D-01 -7.7174041806611D-01  3.4459136976152D-01
96  9.5000000000000D-01 -7.7897955292375D-01  3.5016463149945D-01
97  9.6000000000000D-01 -7.8655371360431D-01  3.5477583854138D-01
98  9.7000000000000D-01 -7.9444825827829D-01  3.5843708270539D-01
99  9.8000000000000D-01 -8.0264669181244D-01  3.6116396032662D-01
100  9.9000000000000D-01 -8.1113069664613D-01  3.6297553304193D-01
101  1.0000000000000D+00 -8.1988018989115D-01  3.6389422913066D-01
102  1.0100000000000D+00 -8.2887330562023D-01  3.6394592295282D-01
103  1.0200000000000D+00 -8.3808649583453D-01  3.6315974885866D-01
104  1.0300000000000D+00 -8.4749458686673D-01  3.6156801326516D-01
105  1.0400000000000D+00 -8.5707083575021D-01  3.5920611207566D-01
106  1.0500000000000D+00 -8.6678700039958D-01  3.5611241538111D-01
107  1.0600000000000D+00 -8.7661340613058D-01  3.5232815065437D-01
108  1.0700000000000D+00 -8.8651902182015D-01  3.4789734206975D-01
109  1.0800000000000D+00 -8.9647157675900D-01  3.4286654937812D-01
110  1.0900000000000D+00 -9.0643763861418D-01  3.3728476122044D-01
111  1.1000000000000D+00 -9.1638268320792D-01  3.3120326169885D-01
112  1.1100000000000D+00 -9.2627122614442D-01  3.2467545446854D-01
113  1.1200000000000D+00 -9.3606696752802D-01  3.1775661112272D-01
114  1.1300000000000D+00 -9.4573285339254D-01  3.1050373520869D-01
115  1.1400000000000D+00 -9.5523113594212D-01  3.0297545565423D-01
116  1.1500000000000D+00 -9.6452358864447D-01  2.9523170833703D-01
117  1.1600000000000D+00 -9.7357169500611D-01  2.8733341193615D-01
118  1.1700000000000D+00 -9.8233662914324D-01  2.7934245582174D-01
119  1.1800000000000D+00 -9.9077922961639D-01  2.7132172852357D-01
120  1.1900000000000D+00 -9.9886064427445D-01  2.6333412640215D-01
121  1.2000000000000D+00 -1.0065420980639D+00  2.5544285136891D-01
122  1.2100000000000D+00 -1.0137848741476D+00  2.4771143286145D-01
123  1.2200000000000D+00 -1.0205507238706D+00  2.4020307766454D-01
124  1.2300000000000D+00 -1.0268022171792D+00  2.3298007753093D-01
125  1.2400000000000D+00 -1.0325022762863D+00  2.2610452871910D-01
126  1.2500000000000D+00 -1.0376144649822D+00  2.1963787046032D-01
127  1.2600000000000D+00 -1.0421039078688D+00  2.1363937163858D-01
128  1.2700000000000D+00 -1.0459363063285D+00  2.0816770093073D-01
129  1.2800000000000D+00 -1.0490783086650D+00  2.0328033081351D-01
130  1.2900000000000D+00 -1.0514987371248D+00  1.9903149866209D-01
131  1.3000000000000D+00 -1.0531671131624D+00  1.9547461227943D-01
132  1.3100000000000D+00 -1.0540544802059D+00  1.9266089843777D-01
133  1.3200000000000D+00 -1.0541343804291D+00  1.9063775350227D-01
134  1.3300000000000D+00 -1.0533810633742D+00  1.8945171407477D-01
135  1.3400000000000D+00 -1.0517712890239D+00  1.8914544971172D-01
136  1.3500000000000D+00 -1.0492841561710D+00  1.8975801911082D-01
137  1.3600000000000D+00 -1.0458994215231D+00  1.9132769761870D-01
138  1.3700000000000D+00 -1.0416008198087D+00  1.9388637855029D-01
139  1.3800000000000D+00 -1.0363732846329D+00  1.9746423676994D-01
140  1.3900000000000D+00 -1.0302037684789D+00  2.0208835558868D-01
141  1.4000000000000D+00 -1.0230830266669D+00  2.0777967673183D-01
142  1.4100000000000D+00 -1.0150023230696D+00  2.1455859465295D-01
143  1.4200000000000D+00 -1.0059572197415D+00  2.2243850225012D-01
144  1.4300000000000D+00 -9.9594492820239D-01  2.3143028459550D-01
145  1.4400000000000D+00 -9.8496487941073D-01  2.4154135831077D-01
146  1.4500000000000D+00 -9.7302061345980D-01  2.5277240572685D-01
147  1.4600000000000D+00 -9.6011593370273D-01  2.6512398445309D-01
148  1.4700000000000D+00 -9.4625994204867D-01  2.7858785048160D-01
149  1.4800000000000D+00 -9.3146229370355D-01  2.9315512338005D-01
150  1.4900000000000D+00 -9.1573637215346D-01  3.0881080907553D-01
151  1.5000000000000D+00 -8.9909804288541D-01  3.2553592482691D-01
152  1.5100000000000D+00 -8.8156499750440D-01  3.4330865915147D-01
153  1.5200000000000D+00 -8.6315905508133D-01  3.6210031744894D-01
154  1.5300000000000D+00 -8.4390228050337D-01  3.8188213342877D-01
155  1.5400000000000D+00 -8.2382184088565D-01  4.0261670277728D-01
156  1.5500000000000D+00 -8.0294481467834D-01  4.2426713682162D-01
157  1.5600000000000D+00 -7.8130266071769D-01  4.4678912943823D-01
158  1.5700000000000D+00 -7.5892752772127D-01  4.7013750406331D-01
159  1.5800000000000D+00 -7.3585482692693D-01  4.9426160757801D-01
160  1.5900000000000D+00 -7.1212134509686D-01  5.1910865962402D-01
161  1.6000000000000D+00 -6.8776623051972D-01  5.4462198969499D-01
162  1.6100000000000D+00 -6.6283034293890D-01  5.7074212616227D-01
163  1.6200000000000D+00 -6.3735630339819D-01  5.9740678823103D-01
164  1.6300000000000D+00 -6.1138842725975D-01  6.2455081300205D-01
165  1.6400000000000D+00 -5.8497247865233D-01  6.5210682127103D-01
166  1.6500000000000D+00 -5.5815558425290D-01  6.8000500241996D-01
167  1.6600000000000D+00 -5.3098624645908D-01  7.0817351112454D-01
168  1.6700000000000D+00 -5.0351375356062D-01  7.3653893905704D-01
169  1.6800000000000D+00 -4.7578886072990D-01  7.6502573538831D-01
170  1.6900000000000D+00 -4.4786238272083D-01  7.9355791669859D-01
171  1.7000000000000D+00 -4.1978675774630D-01  8.2205711949792D-01
172  1.7100000000000D+00 -3.9161372653141D-01  8.5044574711504D-01
173  1.7200000000000D+00 -3.6339675327779D-01  8.7864365076043D-01
174  1.7300000000000D+00 -3.3518795973027D-01  9.0657248771609D-01
175  1.7400000000000D+00 -3.0704108902090D-01  9.3415148654294D-01
176  1.7500000000000D+00 -2.7900817514389D-01  9.6130229851484D-01
177  1.7600000000000D+00 -2.5114240256818D-01  9.8794482379354D-01
178  1.7700000000000D+00 -2.2349534227308D-01  1.0140012943931D+00
179  1.7800000000000D+00 -1.9611869744214D-01  1.0393936935176D+00
180  1.7900000000000D+00 -1.6906330311947D-01  1.0640452559833D+00
181  1.8000000000000D+00 -1.4237839093498D-01  1.0878815423652D+00
182  1.8100000000000D+00 -1.1611388285638D-01  1.1108270617374D+00
183  1.8200000000000D+00 -9.0315517488133D-02  1.1328124642721D+00
184  1.8300000000000D+00 -6.5032192634503D-02  1.1537637050833D+00
185  1.8400000000000D+00 -4.0305175090470D-02  1.1736179321268D+00
186  1.8500000000000D+00 -1.6182197403023D-02  1.1923027103467D+00
187  1.8600000000000D+00  7.2998649736743D-03  1.2097616487977D+00
188  1.8700000000000D+00  3.0097373001059D-02  1.2259277755582D+00
189  1.8800000000000D+00  5.2175515050218D-02  1.2407487938591D+00
190  1.8900000000000D+00  7.3496538142184D-02  1.2541671810828D+00
191  1.9000000000000D+00  9.4027324411236D-02  1.2661341720500D+00
192  1.9100000000000D+00  1.1373709975232D-01  1.2766054078077D+00
193  1.9200000000000D+00  1.3259410840269D-01  1.2855348887833D+00
194  1.9300000000000D+00  1.5057554531778D-01  1.2928931704687D+00
195  1.9400000000000D+00  1.6765089712319D-01  1.2986368499533D+00
196  1.9500000000000D+00  1.8380417491966D-01  1.3027491865072D+00
197  1.9600000000000D+00  1.9901151732894D-01  1.3051992351950D+00
198  1.9700000000000D+00  2.1325849623151D-01  1.3059733377731D+00
199  1.9800000000000D+00  2.2653068325020D-01  1.3050579942003D+00
200  1.9900000000000D+00  2.3881447234659D-01  1.3024413166701D+00
201  2.0000000000000D+00  2.5010541955893D-01  1.2981281257667D+00
202  2.0100000000000D+00  2.6039116777311D-01  1.2921091251805D+00
203  2.0200000000000D+00  2.6967455383734D-01  1.2844024707837D+00
204  2.0300000000000D+00  2.7795153902882D-01  1.2750141433093D+00
205  2.0400000000000D+00  2.8522526776402D-01  1.2639630858433D+00
206  2.0500000000000D+00  2.9150265366500D-01  1.2512751265245D+00
207  2.0600000000000D+00  2.9678691355266D-01  1.2369696725714D+00
208  2.0700000000000D+00  3.0109380453435D-01  1.2210884606149D+00
209  2.0800000000000D+00  3.0443231511185D-01  1.2036614777505D+00
210  2.0900000000000D+00  3.0682023761278D-01  1.1847342636372D+00
211  2.1000000000000D+00  3.0827661838048D-01  1.1643547389409D+00
212  2.1100000000000D+00  3.0881886328469D-01  1.1425681396922D+00
213  2.1200000000000D+00  3.0847439272220D-01  1.1194371133056D+00
214  2.1300000000000D+00  3.0726545977722D-01  1.0950156978090D+00
215  2.1400000000000D+00  3.0522138077986D-01  1.0693700153635D+00
216  2.1500000000000D+00  3.0237304720076D-01  1.0425690717137D+00
217  2.1600000000000D+00  2.9874956680888D-01  1.0146791618884D+00
218  2.1700000000000D+00  2.9438807226442D-01  9.8577983216583D-01
219  2.1800000000000D+00  2.8932275097126D-01  9.5594626298439D-01
220  2.1900000000000D+00  2.8359127727669D-01  9.2525922898440D-01
221  2.2000000000000D+00  2.7723397114074D-01  8.9380383412799D-01
222  2.2100000000000D+00  2.7028984646857D-01  8.6166391928776D-01
223  2.2200000000000D+00  2.6280210128833D-01  8.2892895226968D-01
224  2.2300000000000D+00  2.5481385361182D-01  7.9568916360596D-01
225  2.2400000000000D+00  2.4636907826725D-01  7.6203626551844D-01
226  2.2500000000000D+00  2.3751300427327D-01  7.2806279597603D-01
227  2.2600000000000D+00  2.2829221870075D-01  6.9386504308131D-01
228  2.2700000000000D+00  2.1875281578357D-01  6.5953705478711D-01
229  2.2800000000000D+00  2.0894131297370D-01  6.2517322861819D-01
230  2.2900000000000D+00  1.9890742603016D-01  5.9087510473344D-01
231  2.3000000000000D+00  1.8869625790545D-01  5.5673329131020D-01
232  2.3100000000000D+00  1.7835590000269D-01  5.2284474835997D-01
233  2.3200000000000D+00  1.6793628578295D-01  4.8931014631390D-01
234  2.3300000000000D+00  1.5748086852695D-01  4.5621609676504D-01
235  2.3400000000000D+00  1.4703879946299D-01  4.2366095464668D-01
236  2.3500000000000D+00  1.3665698684499D-01  3.9173827671719D-01
237  2.3600000000000D+00  1.2637707431901D-01  3.6053060609137D-01
238  2.3700000000000D+00  1.1624820752147D-01  3.3013556137850D-01
239  2.3800000000000D+00  1.0631190373759D-01  3.0063525139661D-01
240  2.3900000000000D+00  9.6607268537683D-02  2.7210677704581D-01
241  2.4000000000000D+00  8.7182342732635D-02  2.4464490870301D-01
242  2.4100000000000D+00  7.8071390486032D-02  2.1831693986639D-01
243  2.4200000000000D+00  6.9310145095880D-02  1.9319294515445D-01
244  2.4300000000000D+00  6.0944295910764D-02  1.6936247298818D-01
245  2.4400000000000D+00  5.2999554940714D-02  1.4687569226471D-01
246  2.4500000000000D+00  4.5507394003858D-02  1.2579396508608D-01
247  2.4600000000000D+00  3.8509658441377D-02  1.0619878840650D-01
248  2.4700000000000D+00  3.2022946307700D-02  8.8122276514260D-02
249  2.4800000000000D+00  2.6074016909947D-02  7.1616245504137D-02
250  2.4900000000000D+00  2.0697628754339D-02  5.6747925244895D-02
251  2.5000000000000D+00  1.5902988183849D-02  4.3534825973668D-02
252  2.5100000000000D+00  1.1710102565991D-02  3.2015303591272D-02
253  2.5200000000000D+00  8.1463691581643D-03  2.2241896843448D-02
254  2.5300000000000D+00  5.2129038476993D-03  1.4216185725711D-02
255  2.5400000000000D+00  2.9347123360661D-03  7.9960529396518D-03
256  2.5500000000000D+00  1.4478076794193D-03  3.9355102482510D-03
257  2.5600000000000D+00  5.0265790024833D-04  1.3593887361354D-03
258  2.5700000000000D+00 -7.0536069611784D-06 -2.5543251531622D-05
259  2.5800000000000D+00 -1.9532884348972D-04 -5.3701394418146D-04
260  2.5900000000000D+00 -1.6047645765162D-04 -4.3975122803967D-04
261  2.6000000000000D+00 -8.9423556658214D-06 -2.4477416672972D-05
262  2.6100000000000D+00 -2.4430648225846D-07 -2.7003526795152D-07
263  2.6200000000000D+00 -2.2082406385195D-07 -2.4407983243489D-07
264  2.6300000000000D+00 -3.7850612655577D-08 -4.1836795471373D-08
265  2.6400000000000D+00  0.0000000000000D+00  0.0000000000000D+00
266  2.6500000000000D+00  0.0000000000000D+00  0.0000000000000D+00
267  2.6600000000000D+00  0.0000000000000D+00  0.0000000000000D+00
268  2.6700000000000D+00  0.0000000000000D+00  0.0000000000000D+00
269  2.6800000000000D+00  0.0000000000000D+00  0.0000000000000D+00
270  2.6900000000000D+00  0.0000000000000D+00  0.0000000000000D+00
271  2.7000000000000D+00  0.0000000000000D+00  0.0000000000000D+00
272  2.7100000000000D+00  0.0000000000000D+00  0.0000000000000D+00
273  2.7200000000000D+00  0.0000000000000D+00  0.0000000000000D+00
274  2.7300000000000D+00  0.0000000000000D+00  0.0000000000000D+00
275  2.7400000000000D+00  0.0000000000000D+00  0.0000000000000D+00
276  2.7500000000000D+00  0.0000000000000D+00  0.0000000000000D+00
277  2.7600000000000D+00  0.0000000000000D+00  0.0000000000000D+00
278  2.7700000000000D+00  0.0000000000000D+00  0.0000000000000D+00
279  2.7800000000000D+00  0.0000000000000D+00  0.0000000000000D+00
280  2.7900000000000D+00  0.0000000000000D+00  0.0000000000000D+00
281  2.8000000000000D+00  0.0000000000000D+00  0.0000000000000D+00
282  2.8100000000000D+00  0.0000000000000D+00  0.0000000000000D+00
283  2.8200000000000D+00  0.0000000000000D+00  0.0000000000000D+00
284  2.8300000000000D+00  0.0000000000000D+00  0.0000000000000D+00
285  2.8400000000000D+00  0.0000000000000D+00  0.0000000000000D+00
286  2.8500000000000D+00  0.0000000000000D+00  0.0000000000000D+00
287  2.8600000000000D+00  0.0000000000000D+00  0.0000000000000D+00
288  2.8700000000000D+00  0.0000000000000D+00  0.0000000000000D+00
289  2.8800000000000D+00  0.0000000000000D+00  0.0000000000000D+00
290  2.8900000000000D+00  0.0000000000000D+00  0.0000000000000D+00
291  2.9000000000000D+00  0.0000000000000D+00  0.0000000000000D+00
292  2.9100000000000D+00  0.0000000000000D+00  0.0000000000000D+00
293  2.9200000000000D+00  0.0000000000000D+00  0.0000000000000D+00
294  2.9300000000000D+00  0.0000000000000D+00  0.0000000000000D+00
295  2.9400000000000D+00  0.0000000000000D+00  0.0000000000000D+00
296  2.9500000000000D+00  0.0000000000000D+00  0.0000000000000D+00
297  2.9600000000000D+00  0.0000000000000D+00  0.0000000000000D+00
298  2.9700000000000D+00  0.0000000000000D+00  0.0000000000000D+00
299  2.9800000000000D+00  0.0000000000000D+00  0.0000000000000D+00
300  2.9900000000000D+00  0.0000000000000D+00  0.0000000000000D+00
301  3.0000000000000D+00  0.0000000000000D+00  0.0000000000000D+00
302  3.0100000000000D+00  0.0000000000000D+00  0.0000000000000D+00
303  3.0200000000000D+00  0.0000000000000D+00  0.0000000000000D+00
304  3.0300000000000D+00  0.0000000000000D+00  0.0000000000000D+00
305  3.0400000000000D+00  0.0000000000000D+00  0.0000000000000D+00
306  3.0500000000000D+00  0.0000000000000D+00  0.0000000000000D+00
307  3.0600000000000D+00  0.0000000000000D+00  0.0000000000000D+00
308  3.0700000000000D+00  0.0000000000000D+00  0.0000000000000D+00
309  3.0800000000000D+00  0.0000000000000D+00  0.0000000000000D+00
310  3.0900000000000D+00  0.0000000000000D+00  0.0000000000000D+00
311  3.1000000000000D+00  0.0000000000000D+00  0.0000000000000D+00
312  3.1100000000000D+00  0.0000000000000D+00  0.0000000000000D+00
313  3.1200000000000D+00  0.0000000000000D+00  0.0000000000000D+00
314  3.1300000000000D+00  0.0000000000000D+00  0.0000000000000D+00
315  3.1400000000000D+00  0.0000000000000D+00  0.0000000000000D+00
316  3.1500000000000D+00  0.0000000000000D+00  0.0000000000000D+00
317  3.1600000000000D+00  0.0000000000000D+00  0.0000000000000D+00
318  3.1700000000000D+00  0.0000000000000D+00  0.0000000000000D+00
319  3.1800000000000D+00  0.0000000000000D+00  0.0000000000000D+00
320  3.1900000000000D+00  0.0000000000000D+00  0.0000000000000D+00
321  3.2000000000000D+00  0.0000000000000D+00  0.0000000000000D+00
322  3.2100000000000D+00  0.0000000000000D+00  0.0000000000000D+00
323  3.2200000000000D+00  0.0000000000000D+00  0.0000000000000D+00
324  3.2300000000000D+00  0.0000000000000D+00  0.0000000000000D+00
325  3.2400000000000D+00  0.0000000000000D+00  0.0000000000000D+00
326  3.2500000000000D+00  0.0000000000000D+00  0.0000000000000D+00
327  3.2600000000000D+00  0.0000000000000D+00  0.0000000000000D+00
328  3.2700000000000D+00  0.0000000000000D+00  0.0000000000000D+00
329  3.2800000000000D+00  0.0000000000000D+00  0.0000000000000D+00
330  3.2900000000000D+00  0.0000000000000D+00  0.0000000000000D+00
331  3.3000000000000D+00  0.0000000000000D+00  0.0000000000000D+00
332  3.3100000000000D+00  0.0000000000000D+00  0.0000000000000D+00
333  3.3200000000000D+00  0.0000000000000D+00  0.0000000000000D+00
334  3.3300000000000D+00  0.0000000000000D+00  0.0000000000000D+00
335  3.3400000000000D+00  0.0000000000000D+00  0.0000000000000D+00
336  3.3500000000000D+00  0.0000000000000D+00  0.0000000000000D+00
337  3.3600000000000D+00  0.0000000000000D+00  0.0000000000000D+00
338  3.3700000000000D+00  0.0000000000000D+00  0.0000000000000D+00
339  3.3800000000000D+00  0.0000000000000D+00  0.0000000000000D+00
340  3.3900000000000D+00  0.0000000000000D+00  0.0000000000000D+00
341  3.4000000000000D+00  0.0000000000000D+00  0.0000000000000D+00
342  3.4100000000000D+00  0.0000000000000D+00  0.0000000000000D+00
343  3.4200000000000D+00  0.0000000000000D+00  0.0000000000000D+00
344  3.4300000000000D+00  0.0000000000000D+00  0.0000000000000D+00
345  3.4400000000000D+00  0.0000000000000D+00  0.0000000000000D+00
346  3.4500000000000D+00  0.0000000000000D+00  0.0000000000000D+00
347  3.4600000000000D+00  0.0000000000000D+00  0.0000000000000D+00
348  3.4700000000000D+00  0.0000000000000D+00  0.0000000000000D+00
349  3.4800000000000D+00  0.0000000000000D+00  0.0000000000000D+00
350  3.4900000000000D+00  0.0000000000000D+00  0.0000000000000D+00
351  3.5000000000000D+00  0.0000000000000D+00  0.0000000000000D+00
352  3.5100000000000D+00  0.0000000000000D+00  0.0000000000000D+00
353  3.5200000000000D+00  0.0000000000000D+00  0.0000000000000D+00
354  3.5300000000000D+00  0.0000000000000D+00  0.0000000000000D+00
355  3.5400000000000D+00  0.0000000000000D+00  0.0000000000000D+00
356  3.5500000000000D+00  0.0000000000000D+00  0.0000000000000D+00
357  3.5600000000000D+00  0.0000000000000D+00  0.0000000000000D+00
358  3.5700000000000D+00  0.0000000000000D+00  0.0000000000000D+00
359  3.5800000000000D+00  0.0000000000000D+00  0.0000000000000D+00
360  3.5900000000000D+00  0.0000000000000D+00  0.0000000000000D+00
361  3.6000000000000D+00  0.0000000000000D+00  0.0000000000000D+00
362  3.6100000000000D+00  0.0000000000000D+00  0.0000000000000D+00
363  3.6200000000000D+00  0.0000000000000D+00  0.0000000000000D+00
364  3.6300000000000D+00  0.0000000000000D+00  0.0000000000000D+00
365  3.6400000000000D+00  0.0000000000000D+00  0.0000000000000D+00
366  3.6500000000000D+00  0.0000000000000D+00  0.0000000000000D+00
367  3.6600000000000D+00  0.0000000000000D+00  0.0000000000000D+00
368  3.6700000000000D+00  0.0000000000000D+00  0.0000000000000D+00
369  3.6800000000000D+00  0.0000000000000D+00  0.0000000000000D+00
370  3.6900000000000D+00  0.0000000000000D+00  0.0000000000000D+00
371  3.7000000000000D+00  0.0000000000000D+00  0.0000000000000D+00
372  3.7100000000000D+00  0.0000000000000D+00  0.0000000000000D+00
373  3.7200000000000D+00  0.0000000000000D+00  0.0000000000000D+00
374  3.7300000000000D+00  0.0000000000000D+00  0.0000000000000D+00
375  3.7400000000000D+00  0.0000000000000D+00  0.0000000000000D+00
376  3.7500000000000D+00  0.0000000000000D+00  0.0000000000000D+00
377  3.7600000000000D+00  0.0000000000000D+00  0.0000000000000D+00
378  3.7700000000000D+00  0.0000000000000D+00  0.0000000000000D+00
379  3.7800000000000D+00  0.0000000000000D+00  0.0000000000000D+00
380  3.7900000000000D+00  0.0000000000000D+00  0.0000000000000D+00
381  3.8000000000000D+00  0.0000000000000D+00  0.0000000000000D+00
382  3.8100000000000D+00  0.0000000000000D+00  0.0000000000000D+00
383  3.8200000000000D+00  0.0000000000000D+00  0.0000000000000D+00
384  3.8300000000000D+00  0.0000000000000D+00  0.0000000000000D+00
385  3.8400000000000D+00  0.0000000000000D+00  0.0000000000000D+00
386  3.8500000000000D+00  0.0000000000000D+00  0.0000000000000D+00
387  3.8600000000000D+00  0.0000000000000D+00  0.0000000000000D+00
388  3.8700000000000D+00  0.0000000000000D+00  0.0000000000000D+00
389  3.8800000000000D+00  0.0000000000000D+00  0.0000000000000D+00
390  3.8900000000000D+00  0.0000000000000D+00  0.0000000000000D+00
391  3.9000000000000D+00  0.0000000000000D+00  0.0000000000000D+00
392  3.9100000000000D+00  0.0000000000000D+00  0.0000000000000D+00
393  3.9200000000000D+00  0.0000000000000D+00  0.0000000000000D+00
394  3.9300000000000D+00  0.0000000000000D+00  0.0000000000000D+00
395  3.9400000000000D+00  0.0000000000000D+00  0.0000000000000D+00
396  3.9500000000000D+00  0.0000000000000D+00  0.0000000000000D+00
397  3.9600000000000D+00  0.0000000000000D+00  0.0000000000000D+00
398  3.9700000000000D+00  0.0000000000000D+00  0.0000000000000D+00
399  3.9800000000000D+00  0.0000000000000D+00  0.0000000000000D+00
400  3.9900000000000D+00  0.0000000000000D+00  0.0000000000000D+00
401  4.0000000000000D+00  0.0000000000000D+00  0.0000000000000D+00
402  4.0100000000000D+00  0.0000000000000D+00  0.0000000000000D+00
403  4.0200000000000D+00  0.0000000000000D+00  0.0000000000000D+00
404  4.0300000000000D+00  0.0000000000000D+00  0.0000000000000D+00
405  4.0400000000000D+00  0.0000000000000D+00  0.0000000000000D+00
406  4.0500000000000D+00  0.0000000000000D+00  0.0000000000000D+00
407  4.0600000000000D+00  0.0000000000000D+00  0.0000000000000D+00
408  4.0700000000000D+00  0.0000000000000D+00  0.0000000000000D+00
409  4.0800000000000D+00  0.0000000000000D+00  0.0000000000000D+00
410  4.0900000000000D+00  0.0000000000000D+00  0.0000000000000D+00
411  4.1000000000000D+00  0.0000000000000D+00  0.0000000000000D+00
412  4.1100000000000D+00  0.0000000000000D+00  0.0000000000000D+00
413  4.1200000000000D+00  0.0000000000000D+00  0.0000000000000D+00
414  4.1300000000000D+00  0.0000000000000D+00  0.0000000000000D+00
415  4.1400000000000D+00  0.0000000000000D+00  0.0000000000000D+00
416  4.1500000000000D+00  0.0000000000000D+00  0.0000000000000D+00
417  4.1600000000000D+00  0.0000000000000D+00  0.0000000000000D+00
418  4.1700000000000D+00  0.0000000000000D+00  0.0000000000000D+00
419  4.1800000000000D+00  0.0000000000000D+00  0.0000000000000D+00
420  4.1900000000000D+00  0.0000000000000D+00  0.0000000000000D+00
421  4.2000000000000D+00  0.0000000000000D+00  0.0000000000000D+00
422  4.2100000000000D+00  0.0000000000000D+00  0.0000000000000D+00
423  4.2200000000000D+00  0.0000000000000D+00  0.0000000000000D+00
424  4.2300000000000D+00  0.0000000000000D+00  0.0000000000000D+00
425  4.2400000000000D+00  0.0000000000000D+00  0.0000000000000D+00
426  4.2500000000000D+00  0.0000000000000D+00  0.0000000000000D+00
427  4.2600000000000D+00  0.0000000000000D+00  0.0000000000000D+00
428  4.2700000000000D+00  0.0000000000000D+00  0.0000000000000D+00
429  4.2800000000000D+00  0.0000000000000D+00  0.0000000000000D+00
430  4.2900000000000D+00  0.0000000000000D+00  0.0000000000000D+00
431  4.3000000000000D+00  0.0000000000000D+00  0.0000000000000D+00
432  4.3100000000000D+00  0.0000000000000D+00  0.0000000000000D+00
433  4.3200000000000D+00  0.0000000000000D+00  0.0000000000000D+00
434  4.3300000000000D+00  0.0000000000000D+00  0.0000000000000D+00
435  4.3400000000000D+00  0.0000000000000D+00  0.0000000000000D+00
436  4.3500000000000D+00  0.0000000000000D+00  0.0000000000000D+00
437  4.3600000000000D+00  0.0000000000000D+00  0.0000000000000D+00
438  4.3700000000000D+00  0.0000000000000D+00  0.0000000000000D+00
439  4.3800000000000D+00  0.0000000000000D+00  0.0000000000000D+00
440  4.3900000000000D+00  0.0000000000000D+00  0.0000000000000D+00
441  4.4000000000000D+00  0.0000000000000D+00  0.0000000000000D+00
442  4.4100000000000D+00  0.0000000000000D+00  0.0000000000000D+00
443  4.4200000000000D+00  0.0000000000000D+00  0.0000000000000D+00
444  4.4300000000000D+00  0.0000000000000D+00  0.0000000000000D+00