Ta    ONCVPSP  r_core=  2.51  1.95  1.86
73.0000     11.0000      140904    zatom,zion,pspd
8    11     2     4   601     0    pspcod,pspxc,lmax,lloc,mmax,r2well
6.00000000  0.90000000  0.00000000    rchrg fchrg qchrg
2     2     2     0     0    nproj
0                 extension_switch
0                         5.9956260031419D+00  8.7227002493498D-01
1  0.0000000000000D+00 -0.0000000000000D+00 -0.0000000000000D+00
2  1.0000000000000D-02 -2.7420812395361D-02 -2.9988070378653D-02
3  2.0000000000000D-02 -5.4798356527510D-02 -5.9901303630787D-02
4  3.0000000000000D-02 -8.2089470474518D-02 -8.9665043113027D-02
5  4.0000000000000D-02 -1.0925120478473D-01 -1.1920499279300D-01
6  5.0000000000000D-02 -1.3624092818113D-01 -1.4844739666667D-01
7  6.0000000000000D-02 -1.6301643262904D-01 -1.7731921711029D-01
8  7.0000000000000D-02 -1.8953603755443D-01 -2.0574831181145D-01
9  8.0000000000000D-02 -2.1575869300163D-01 -2.3366360892575D-01
10  9.0000000000000D-02 -2.4164408151809D-01 -2.6099528010491D-01
11  1.0000000000000D-01 -2.6715271855278D-01 -2.8767491103915D-01
12  1.1000000000000D-01 -2.9224605116231D-01 -3.1363566917123D-01
13  1.2000000000000D-01 -3.1688655480551D-01 -3.3881246821563D-01
14  1.3000000000000D-01 -3.4103782802279D-01 -3.6314212914427D-01
15  1.4000000000000D-01 -3.6466468479069D-01 -3.8656353728979D-01
16  1.5000000000000D-01 -3.8773324432933D-01 -4.0901779519638D-01
17  1.6000000000000D-01 -4.1021101818724D-01 -4.3044837092782D-01
18  1.7000000000000D-01 -4.3206699435460D-01 -4.5080124141819D-01
19  1.8000000000000D-01 -4.5327171824018D-01 -4.7002503059392D-01
20  1.9000000000000D-01 -4.7379737024262D-01 -4.8807114181811D-01
21  2.0000000000000D-01 -4.9361783989202D-01 -5.0489388462686D-01
22  2.1000000000000D-01 -5.1270879600935D-01 -5.2045059482582D-01
23  2.2000000000000D-01 -5.3104775318039D-01 -5.3470174846459D-01
24  2.3000000000000D-01 -5.4861413386487D-01 -5.4761106854081D-01
25  2.4000000000000D-01 -5.6538932639982D-01 -5.5914562488909D-01
26  2.5000000000000D-01 -5.8135673817560D-01 -5.6927592603177D-01
27  2.6000000000000D-01 -5.9650184453118D-01 -5.7797600394208D-01
28  2.7000000000000D-01 -6.1081223228267D-01 -5.8522348986808D-01
29  2.8000000000000D-01 -6.2427763886072D-01 -5.9099968291045D-01
30  2.9000000000000D-01 -6.3688998572148D-01 -5.9528960906911D-01
31  3.0000000000000D-01 -6.4864340662229D-01 -5.9808207178902D-01
32  3.1000000000000D-01 -6.5953427041314D-01 -5.9936969341707D-01
33  3.2000000000000D-01 -6.6956119851347D-01 -5.9914894788986D-01
34  3.3000000000000D-01 -6.7872507606674D-01 -5.9742018290045D-01
35  3.4000000000000D-01 -6.8702905743539D-01 -5.9418763269697D-01
36  3.5000000000000D-01 -6.9447856663164D-01 -5.8945942265132D-01
37  3.6000000000000D-01 -7.0108129002375D-01 -5.8324756078747D-01
38  3.7000000000000D-01 -7.0684716463393D-01 -5.7556792231274D-01
39  3.8000000000000D-01 -7.1178835920855D-01 -5.6644022202979D-01
40  3.9000000000000D-01 -7.1591924936388D-01 -5.5588797698415D-01
41  4.0000000000000D-01 -7.1925638665330D-01 -5.4393845911047D-01
42  4.1000000000000D-01 -7.2181846119445D-01 -5.3062263729098D-01
43  4.2000000000000D-01 -7.2362625798184D-01 -5.1597510891897D-01
44  4.3000000000000D-01 -7.2470260709367D-01 -5.0003402139690D-01
45  4.4000000000000D-01 -7.2507232760000D-01 -4.8284098327526D-01
46  4.5000000000000D-01 -7.2476216555485D-01 -4.6444096559066D-01
47  4.6000000000000D-01 -7.2380072557196D-01 -4.4488219267604D-01
48  4.7000000000000D-01 -7.2221839587515D-01 -4.2421602223042D-01
49  4.8000000000000D-01 -7.2004726853447D-01 -4.0249681732740D-01
50  4.9000000000000D-01 -7.1732105330399D-01 -3.7978180794948D-01
51  5.0000000000000D-01 -7.1407498899017D-01 -3.5613094823250D-01
52  5.1000000000000D-01 -7.1034574016624D-01 -3.3160675017153D-01
53  5.2000000000000D-01 -7.0617129715921D-01 -3.0627412202712D-01
54  5.3000000000000D-01 -7.0159087808515D-01 -2.8020020983875D-01
55  5.4000000000000D-01 -6.9664479699197D-01 -2.5345418458978D-01
56  5.5000000000000D-01 -6.9137436705934D-01 -2.2610708495846D-01
57  5.6000000000000D-01 -6.8582176795017D-01 -1.9823160265652D-01
58  5.7000000000000D-01 -6.8002992292545D-01 -1.6990188300932D-01
59  5.8000000000000D-01 -6.7404237292042D-01 -1.4119332053820D-01
60  5.9000000000000D-01 -6.6790314330924D-01 -1.1218234252406D-01
61  6.0000000000000D-01 -6.6165659794522D-01 -8.2946171885982D-02
62  6.1000000000000D-01 -6.5534733693038D-01 -5.3562660378591D-02
63  6.2000000000000D-01 -6.4901999299672D-01 -2.4109957977530D-02
64  6.3000000000000D-01 -6.4271915918128D-01  5.3336059396081D-03
65  6.4000000000000D-01 -6.3648920672814D-01  3.4689818891757D-02
66  6.5000000000000D-01 -6.3037412644479D-01  6.3880844032171D-02
67  6.6000000000000D-01 -6.2441742594333D-01  9.2829388516052D-02
68  6.7000000000000D-01 -6.1866197760060D-01  1.2145895179610D-01
69  6.8000000000000D-01 -6.1314981442242D-01  1.4969415884301D-01
70  6.9000000000000D-01 -6.0792205281077D-01  1.7746088759435D-01
71  7.0000000000000D-01 -6.0301872880183D-01  2.0468653701988D-01
72  7.1000000000000D-01 -5.9847868051985D-01  2.3130022028610D-01
73  7.2000000000000D-01 -5.9433933375331D-01  2.5723311596970D-01
74  7.3000000000000D-01 -5.9063663280383D-01  2.8241858304186D-01
75  7.4000000000000D-01 -5.8740489290227D-01  3.0679240375373D-01
76  7.5000000000000D-01 -5.8467666727001D-01  3.3029300300567D-01
77  7.6000000000000D-01 -5.8248262120659D-01  3.5286165658798D-01
78  7.7000000000000D-01 -5.8085141086737D-01  3.7444269211012D-01
79  7.8000000000000D-01 -5.7980957941960D-01  3.9498366182616D-01
80  7.9000000000000D-01 -5.7938141492587D-01  4.1443557859733D-01
81  8.0000000000000D-01 -5.7958886519997D-01  4.3275305900036D-01
82  8.1000000000000D-01 -5.8045144722169D-01  4.4989447568341D-01
83  8.2000000000000D-01 -5.8198614916380D-01  4.6582212232899D-01
84  8.3000000000000D-01 -5.8420734648528D-01  4.8050235604809D-01
85  8.4000000000000D-01 -5.8712672569539D-01  4.9390572770027D-01
86  8.5000000000000D-01 -5.9075321615453D-01  5.0600709955584D-01
87  8.6000000000000D-01 -5.9509293025826D-01  5.1678574974733D-01
88  8.7000000000000D-01 -6.0014911233078D-01  5.2622546298990D-01
89  8.8000000000000D-01 -6.0592209653056D-01  5.3431460708674D-01
90  8.9000000000000D-01 -6.1240927404615D-01  5.4104619477571D-01
91  9.0000000000000D-01 -6.1960506983090D-01  5.4641793051871D-01
92  9.1000000000000D-01 -6.2750093766314D-01  5.5043222740184D-01
93  9.2000000000000D-01 -6.3608534934360D-01  5.5309623470530D-01
94  9.3000000000000D-01 -6.4534377119797D-01  5.5442188873554D-01
95  9.4000000000000D-01 -6.5525872449250D-01  5.5442582273239D-01
96  9.5000000000000D-01 -6.6580979621297D-01  5.5312936158207D-01
97  9.6000000000000D-01 -6.7697367642304D-01  5.5055847287091D-01
98  9.7000000000000D-01 -6.8872420599365D-01  5.4674370153535D-01
99  9.8000000000000D-01 -7.0103243459017D-01  5.4172008827733D-01
100  9.9000000000000D-01 -7.1386668870566D-01  5.3552707206754D-01
101  1.0000000000000D+00 -7.2719267020066D-01  5.2820833701713D-01
102  1.0100000000000D+00 -7.4097347357311D-01  5.1981181440524D-01
103  1.0200000000000D+00 -7.5516974651401D-01  5.1038942663183D-01
104  1.0300000000000D+00 -7.6973979390312D-01  4.9999693163118D-01
105  1.0400000000000D+00 -7.8463968592031D-01  4.8869376415964D-01
106  1.0500000000000D+00 -7.9982338042563D-01  4.7654284980731D-01
107  1.0600000000000D+00 -8.1524283171223D-01  4.6361043550541D-01
108  1.0700000000000D+00 -8.3084817939685D-01  4.4996583965863D-01
109  1.0800000000000D+00 -8.4658788658350D-01  4.3568120324509D-01
110  1.0900000000000D+00 -8.6240889126748D-01  4.2083127265532D-01
111  1.1000000000000D+00 -8.7825670777102D-01  4.0549323540481D-01
112  1.1100000000000D+00 -8.9407568492290D-01  3.8974635224544D-01
113  1.1200000000000D+00 -9.0980923580221D-01  3.7367160196931D-01
114  1.1300000000000D+00 -9.2539990742735D-01  3.5735155654950D-01
115  1.1400000000000D+00 -9.4078947356809D-01  3.4087023674880D-01
116  1.1500000000000D+00 -9.5591932361458D-01  3.2431254441084D-01
117  1.1600000000000D+00 -9.7073075933388D-01  3.0776380718173D-01
118  1.1700000000000D+00 -9.8516491861411D-01  2.9130986977345D-01
119  1.1800000000000D+00 -9.9916271827441D-01  2.7503717230091D-01
120  1.1900000000000D+00 -1.0126659743166D+00  2.5903109904996D-01
121  1.2000000000000D+00 -1.0256169344583D+00  2.4337663871461D-01
122  1.2100000000000D+00 -1.0379582368159D+00  2.2815844209088D-01
123  1.2200000000000D+00 -1.0496335982255D+00  2.1345979838960D-01
124  1.2300000000000D+00 -1.0605883567649D+00  1.9936181152137D-01
125  1.2400000000000D+00 -1.0707686645162D+00  1.8594459123341D-01
126  1.2500000000000D+00 -1.0801219692172D+00  1.7328653570961D-01
127  1.2600000000000D+00 -1.0885984775929D+00  1.6146213233666D-01
128  1.2700000000000D+00 -1.0961495179704D+00  1.5054439658114D-01
129  1.2800000000000D+00 -1.1027281488702D+00  1.4060396313588D-01
130  1.2900000000000D+00 -1.1082910748577D+00  1.3170620079024D-01
131  1.3000000000000D+00 -1.1127962699857D+00  1.2391477368759D-01
132  1.3100000000000D+00 -1.1162042880547D+00  1.1728967437863D-01
133  1.3200000000000D+00 -1.1184797333382D+00  1.1188500137633D-01
134  1.3300000000000D+00 -1.1195884599521D+00  1.0775317282780D-01
135  1.3400000000000D+00 -1.1195003554716D+00  1.0494073340636D-01
136  1.3500000000000D+00 -1.1181890083062D+00  1.0348884801972D-01
137  1.3600000000000D+00 -1.1156291682063D+00  1.0343713265878D-01
138  1.3700000000000D+00 -1.1118017269364D+00  1.0481613866540D-01
139  1.3800000000000D+00 -1.1066894896893D+00  1.0765372990330D-01
140  1.3900000000000D+00 -1.1002784318407D+00  1.1197318748649D-01
141  1.4000000000000D+00 -1.0925602546944D+00  1.1778934967464D-01
142  1.4100000000000D+00 -1.0835275564954D+00  1.2511590207019D-01
143  1.4200000000000D+00 -1.0731793285464D+00  1.3395707995830D-01
144  1.4300000000000D+00 -1.0615170559170D+00  1.4431355582222D-01
145  1.4400000000000D+00 -1.0485455789353D+00  1.5618113797080D-01
146  1.4500000000000D+00 -1.0342756691418D+00  1.6954688546422D-01
147  1.4600000000000D+00 -1.0187186576469D+00  1.8439721308382D-01
148  1.4700000000000D+00 -1.0018933831092D+00  2.0070741140435D-01
149  1.4800000000000D+00 -9.8381960007498D-01  2.1845159124371D-01
150  1.4900000000000D+00 -9.6452233732909D-01  2.3759611085738D-01
151  1.5000000000000D+00 -9.4403009447037D-01  2.5810230044402D-01
152  1.5100000000000D+00 -9.2237404628038D-01  2.7992765671716D-01
153  1.5200000000000D+00 -8.9959089300688D-01  3.0302156007035D-01
154  1.5300000000000D+00 -8.7571795278511D-01  3.2733265452641D-01
155  1.5400000000000D+00 -8.5079914574988D-01  3.5279985695582D-01
156  1.5500000000000D+00 -8.2487858779833D-01  3.7936198269010D-01
157  1.5600000000000D+00 -7.9800592880274D-01  4.0694973308358D-01
158  1.5700000000000D+00 -7.7023193347950D-01  4.3549232849584D-01
159  1.5800000000000D+00 -7.4161142414427D-01  4.6491309724439D-01
160  1.5900000000000D+00 -7.1220103656523D-01  4.9513284153568D-01
161  1.6000000000000D+00 -6.8206034942547D-01  5.2606814561592D-01
162  1.6100000000000D+00 -6.5125093141052D-01  5.5763280688487D-01
163  1.6200000000000D+00 -6.1983662589843D-01  5.8973740607278D-01
164  1.6300000000000D+00 -5.8788294346461D-01  6.2229022271982D-01
165  1.6400000000000D+00 -5.5545740432158D-01  6.5519671603847D-01
166  1.6500000000000D+00 -5.2262845422234D-01  6.8836115122414D-01
167  1.6600000000000D+00 -4.8946659539178D-01  7.2168490414359D-01
168  1.6700000000000D+00 -4.5604221770615D-01  7.5506969785588D-01
169  1.6800000000000D+00 -4.2242799883417D-01  7.8841402456809D-01
170  1.6900000000000D+00 -3.8869532618398D-01  8.2161846248708D-01
171  1.7000000000000D+00 -3.5491813245310D-01  8.5457998218504D-01
172  1.7100000000000D+00 -3.2116792904872D-01  8.8719929668685D-01
173  1.7200000000000D+00 -2.8751886814739D-01  9.1937337825640D-01
174  1.7300000000000D+00 -2.5404181352986D-01  9.5100419456717D-01
175  1.7400000000000D+00 -2.2080998604948D-01  9.8199040056872D-01
176  1.7500000000000D+00 -1.8789295915063D-01  1.0122361401924D+00
177  1.7600000000000D+00 -1.5536176049458D-01  1.0416435786447D+00
178  1.7700000000000D+00 -1.2328417955912D-01  1.0701197326082D+00
179  1.7800000000000D+00 -9.1727692390926D-02  1.0975722241361D+00
180  1.7900000000000D+00 -6.0757965513835D-02  1.1239114101308D+00
181  1.8000000000000D+00 -3.0437501664825D-02  1.1490523788239D+00
182  1.8100000000000D+00 -8.2964133780733D-04  1.1729090987407D+00
183  1.8200000000000D+00  2.8009509304762D-02  1.1954060979714D+00
184  1.8300000000000D+00  5.6019056012986D-02  1.2164611153809D+00
185  1.8400000000000D+00  8.3150597833394D-02  1.2360098807937D+00
186  1.8500000000000D+00  1.0934587279192D-01  1.2539741183175D+00
187  1.8600000000000D+00  1.3456384038298D-01  1.2703002644924D+00
188  1.8700000000000D+00  1.5875330665318D-01  1.2849199181315D+00
189  1.8800000000000D+00  1.8187689113134D-01  1.2977858221544D+00
190  1.8900000000000D+00  2.0389307262487D-01  1.3088442364051D+00
191  1.9000000000000D+00  2.2476753992528D-01  1.3180533493486D+00
192  1.9100000000000D+00  2.4446983611176D-01  1.3253777410950D+00
193  1.9200000000000D+00  2.6296825384295D-01  1.3307801647706D+00
194  1.9300000000000D+00  2.8024444173529D-01  1.3342450915326D+00
195  1.9400000000000D+00  2.9626920975253D-01  1.3357397528246D+00
196  1.9500000000000D+00  3.1103429035451D-01  1.3352651285034D+00
197  1.9600000000000D+00  3.2452061366035D-01  1.3328050975763D+00
198  1.9700000000000D+00  3.3672240363837D-01  1.3283649338655D+00
199  1.9800000000000D+00  3.4763421932343D-01  1.3219506582609D+00
200  1.9900000000000D+00  3.5725190542138D-01  1.3135704958109D+00
201  2.0000000000000D+00  3.6558383836837D-01  1.3032527270903D+00
202  2.0100000000000D+00  3.7262826340126D-01  1.2910098352515D+00
203  2.0200000000000D+00  3.7840334788781D-01  1.2768858395736D+00
204  2.0300000000000D+00  3.8291878519281D-01  1.2609116816373D+00
205  2.0400000000000D+00  3.8619346346702D-01  1.2431328312956D+00
206  2.0500000000000D+00  3.8825127916935D-01  1.2236027853110D+00
207  2.0600000000000D+00  3.8911192297112D-01  1.2023687353174D+00
208  2.0700000000000D+00  3.8881021647705D-01  1.1795013676921D+00
209  2.0800000000000D+00  3.8737351885523D-01  1.1550602123458D+00
210  2.0900000000000D+00  3.8483929924332D-01  1.1291203143604D+00
211  2.1000000000000D+00  3.8124684519204D-01  1.1017597516053D+00
212  2.1100000000000D+00  3.7663402965581D-01  1.0730547421720D+00
213  2.1200000000000D+00  3.7104929984326D-01  1.0430973109459D+00
214  2.1300000000000D+00  3.6453658308969D-01  1.0119733136196D+00
215  2.1400000000000D+00  3.5714655893731D-01  9.7977837589440D-01
216  2.1500000000000D+00  3.4893187957611D-01  9.4661129563024D-01
217  2.1600000000000D+00  3.3994436240477D-01  9.1257024011222D-01
218  2.1700000000000D+00  3.3024198430780D-01  8.7776144495615D-01
219  2.1800000000000D+00  3.1988180491280D-01  8.4229097944828D-01
220  2.1900000000000D+00  3.0892295304690D-01  8.0626724080192D-01
221  2.2000000000000D+00  2.9742635536180D-01  7.6980086725944D-01
222  2.2100000000000D+00  2.8545454209232D-01  7.3300650597554D-01
223  2.2200000000000D+00  2.7306919083801D-01  6.9599486615706D-01
224  2.2300000000000D+00  2.6033453683721D-01  6.5888192095497D-01
225  2.2400000000000D+00  2.4731555033410D-01  6.2178471904747D-01
226  2.2500000000000D+00  2.3407421404962D-01  5.8481365432444D-01
227  2.2600000000000D+00  2.2067803521196D-01  5.4808959994869D-01
228  2.2700000000000D+00  2.0718967643990D-01  5.1172395698711D-01
229  2.2800000000000D+00  1.9367093863249D-01  4.7582620841275D-01
230  2.2900000000000D+00  1.8019157248853D-01  4.4052024512855D-01
231  2.3000000000000D+00  1.6680771145099D-01  4.0590493188598D-01
232  2.3100000000000D+00  1.5358190658110D-01  3.7209056571178D-01
233  2.3200000000000D+00  1.4057999479947D-01  3.3919315654278D-01
234  2.3300000000000D+00  1.2785282381363D-01  3.0730184731949D-01
235  2.3400000000000D+00  1.1546233565216D-01  2.7652527828316D-01
236  2.3500000000000D+00  1.0346549978308D-01  2.4696322371459D-01
237  2.3600000000000D+00  9.1908461416977D-02  2.1869631957431D-01
238  2.3700000000000D+00  8.0850650558569D-02  1.9182826066275D-01
239  2.3800000000000D+00  7.0337406509916D-02  1.6643813613457D-01
240  2.3900000000000D+00  6.0409261232417D-02  1.4259655931532D-01
241  2.4000000000000D+00  5.1121469638233D-02  1.2039947812001D-01
242  2.4100000000000D+00  4.2505894719360D-02  9.9902379543936D-02
243  2.4200000000000D+00  3.4596403661380D-02  8.1164092131702D-02
244  2.4300000000000D+00  2.7442306288820D-02  6.4269853502675D-02
245  2.4400000000000D+00  2.1061058581333D-02  4.9250141235330D-02
246  2.4500000000000D+00  1.5478788414246D-02  3.6150198949655D-02
247  2.4600000000000D+00  1.0736848659160D-02  2.5041193524251D-02
248  2.4700000000000D+00  6.8384586359380D-03  1.5929000240256D-02
249  2.4800000000000D+00  3.8157531516598D-03  8.8775365966322D-03
250  2.4900000000000D+00  1.8574018952673D-03  4.3080366677101D-03
251  2.5000000000000D+00  6.2619384631435D-04  1.4405975173540D-03
252  2.5100000000000D+00 -2.4720492107803D-05 -7.0469321509128D-05
253  2.5200000000000D+00 -2.5044568613133D-04 -5.9219471509185D-04
254  2.5300000000000D+00 -1.8730988193621D-04 -4.4036762730936D-04
255  2.5400000000000D+00 -1.2814112644855D-07 -1.8449060380579D-07
256  2.5500000000000D+00 -9.6894424651953D-07 -1.3950330705600D-06
257  2.5600000000000D+00 -7.3918567554066D-07 -1.0642392133165D-06
258  2.5700000000000D+00  0.0000000000000D+00  0.0000000000000D+00
259  2.5800000000000D+00  0.0000000000000D+00  0.0000000000000D+00
260  2.5900000000000D+00  0.0000000000000D+00  0.0000000000000D+00
261  2.6000000000000D+00  0.0000000000000D+00  0.0000000000000D+00
262  2.6100000000000D+00  0.0000000000000D+00  0.0000000000000D+00
263  2.6200000000000D+00  0.0000000000000D+00  0.0000000000000D+00
264  2.6300000000000D+00  0.0000000000000D+00  0.0000000000000D+00
265  2.6400000000000D+00  0.0000000000000D+00  0.0000000000000D+00
266  2.6500000000000D+00  0.0000000000000D+00  0.0000000000000D+00
267  2.6600000000000D+00  0.0000000000000D+00  0.0000000000000D+00
268  2.6700000000000D+00  0.0000000000000D+00  0.0000000000000D+00
269  2.6800000000000D+00  0.0000000000000D+00  0.0000000000000D+00
270  2.6900000000000D+00  0.0000000000000D+00  0.0000000000000D+00
271  2.7000000000000D+00  0.0000000000000D+00  0.0000000000000D+00
272  2.7100000000000D+00  0.0000000000000D+00  0.0000000000000D+00
273  2.7200000000000D+00  0.0000000000000D+00  0.0000000000000D+00
274  2.7300000000000D+00  0.0000000000000D+00  0.0000000000000D+00
275  2.7400000000000D+00  0.0000000000000D+00  0.0000000000000D+00
276  2.7500000000000D+00  0.0000000000000D+00  0.0000000000000D+00
277  2.7600000000000D+00  0.0000000000000D+00  0.0000000000000D+00
278  2.7700000000000D+00  0.0000000000000D+00  0.0000000000000D+00
279  2.7800000000000D+00  0.0000000000000D+00  0.0000000000000D+00
280  2.7900000000000D+00  0.0000000000000D+00  0.0000000000000D+00
281  2.8000000000000D+00  0.0000000000000D+00  0.0000000000000D+00
282  2.8100000000000D+00  0.0000000000000D+00  0.0000000000000D+00
283  2.8200000000000D+00  0.0000000000000D+00  0.0000000000000D+00
284  2.8300000000000D+00  0.0000000000000D+00  0.0000000000000D+00
285  2.8400000000000D+00  0.0000000000000D+00  0.0000000000000D+00
286  2.8500000000000D+00  0.0000000000000D+00  0.0000000000000D+00
287  2.8600000000000D+00  0.0000000000000D+00  0.0000000000000D+00
288  2.8700000000000D+00  0.0000000000000D+00  0.0000000000000D+00
289  2.8800000000000D+00  0.0000000000000D+00  0.0000000000000D+00
290  2.8900000000000D+00  0.0000000000000D+00  0.0000000000000D+00
291  2.9000000000000D+00  0.0000000000000D+00  0.0000000000000D+00
292  2.9100000000000D+00  0.0000000000000D+00  0.0000000000000D+00
293  2.9200000000000D+00  0.0000000000000D+00  0.0000000000000D+00
294  2.9300000000000D+00  0.0000000000000D+00  0.0000000000000D+00
295  2.9400000000000D+00  0.0000000000000D+00  0.0000000000000D+00
296  2.9500000000000D+00  0.0000000000000D+00  0.0000000000000D+00
297  2.9600000000000D+00  0.0000000000000D+00  0.0000000000000D+00
298  2.9700000000000D+00  0.0000000000000D+00  0.0000000000000D+00
299  2.9800000000000D+00  0.0000000000000D+00  0.0000000000000D+00
300  2.9900000000000D+00  0.0000000000000D+00  0.0000000000000D+00
301  3.0000000000000D+00  0.0000000000000D+00  0.0000000000000D+00
302  3.0100000000000D+00  0.0000000000000D+00  0.0000000000000D+00
303  3.0200000000000D+00  0.0000000000000D+00  0.0000000000000D+00
304  3.0300000000000D+00  0.0000000000000D+00  0.0000000000000D+00
305  3.0400000000000D+00  0.0000000000000D+00  0.0000000000000D+00
306  3.0500000000000D+00  0.0000000000000D+00  0.0000000000000D+00
307  3.0600000000000D+00  0.0000000000000D+00  0.0000000000000D+00
308  3.0700000000000D+00  0.0000000000000D+00  0.0000000000000D+00
309  3.0800000000000D+00  0.0000000000000D+00  0.0000000000000D+00
310  3.0900000000000D+00  0.0000000000000D+00  0.0000000000000D+00
311  3.1000000000000D+00  0.0000000000000D+00  0.0000000000000D+00
312  3.1100000000000D+00  0.0000000000000D+00  0.0000000000000D+00
313  3.1200000000000D+00  0.0000000000000D+00  0.0000000000000D+00
314  3.1300000000000D+00  0.0000000000000D+00  0.0000000000000D+00
315  3.1400000000000D+00  0.0000000000000D+00  0.0000000000000D+00
316  3.1500000000000D+00  0.0000000000000D+00  0.0000000000000D+00
317  3.1600000000000D+00  0.0000000000000D+00  0.0000000000000D+00
318  3.1700000000000D+00  0.0000000000000D+00  0.0000000000000D+00
319  3.1800000000000D+00  0.0000000000000D+00  0.0000000000000D+00
320  3.1900000000000D+00  0.0000000000000D+00  0.0000000000000D+00
321  3.2000000000000D+00  0.0000000000000D+00  0.0000000000000D+00
322  3.2100000000000D+00  0.0000000000000D+00  0.0000000000000D+00
323  3.2200000000000D+00  0.0000000000000D+00  0.0000000000000D+00
324  3.2300000000000D+00  0.0000000000000D+00  0.0000000000000D+00
325  3.2400000000000D+00  0.0000000000000D+00  0.0000000000000D+00
326  3.2500000000000D+00  0.0000000000000D+00  0.0000000000000D+00
327  3.2600000000000D+00  0.0000000000000D+00  0.0000000000000D+00
328  3.2700000000000D+00  0.0000000000000D+00  0.0000000000000D+00
329  3.2800000000000D+00  0.0000000000000D+00  0.0000000000000D+00
330  3.2900000000000D+00  0.0000000000000D+00  0.0000000000000D+00
331  3.3000000000000D+00  0.0000000000000D+00  0.0000000000000D+00
332  3.3100000000000D+00  0.0000000000000D+00  0.0000000000000D+00
333  3.3200000000000D+00  0.0000000000000D+00  0.0000000000000D+00
334  3.3300000000000D+00  0.0000000000000D+00  0.0000000000000D+00
335  3.3400000000000D+00  0.0000000000000D+00  0.0000000000000D+00
336  3.3500000000000D+00  0.0000000000000D+00  0.0000000000000D+00
337  3.3600000000000D+00  0.0000000000000D+00  0.0000000000000D+00
338  3.3700000000000D+00  0.0000000000000D+00  0.0000000000000D+00
339  3.3800000000000D+00  0.0000000000000D+00  0.0000000000000D+00
340  3.3900000000000D+00  0.0000000000000D+00  0.0000000000000D+00
341  3.4000000000000D+00  0.0000000000000D+00  0.0000000000000D+00
342  3.4100000000000D+00  0.0000000000000D+00  0.0000000000000D+00
343  3.4200000000000D+00  0.0000000000000D+00  0.0000000000000D+00
344  3.4300000000000D+00  0.0000000000000D+00  0.0000000000000D+00
345  3.4400000000000D+00  0.0000000000000D+00  0.0000000000000D+00
346  3.4500000000000D+00  0.0000000000000D+00  0.0000000000000D+00
347  3.4600000000000D+00  0.0000000000000D+00  0.0000000000000D+00
348  3.4700000000000D+00  0.0000000000000D+00  0.0000000000000D+00
349  3.4800000000000D+00  0.0000000000000D+00  0.0000000000000D+00
350  3.4900000000000D+00  0.0000000000000D+00  0.0000000000000D+00
351  3.5000000000000D+00  0.0000000000000D+00  0.0000000000000D+00
352  3.5100000000000D+00  0.0000000000000D+00  0.0000000000000D+00
353  3.5200000000000D+00  0.0000000000000D+00  0.0000000000000D+00
354  3.5300000000000D+00  0.0000000000000D+00  0.0000000000000D+00
355  3.5400000000000D+00  0.0000000000000D+00  0.0000000000000D+00
356  3.5500000000000D+00  0.0000000000000D+00  0.0000000000000D+00
357  3.5600000000000D+00  0.0000000000000D+00  0.0000000000000D+00
358  3.5700000000000D+00  0.0000000000000D+00  0.0000000000000D+00
359  3.5800000000000D+00  0.0000000000000D+00  0.0000000000000D+00
360  3.5900000000000D+00  0.0000000000000D+00  0.0000000000000D+00
361  3.6000000000000D+00  0.0000000000000D+00  0.0000000000000D+00
362  3.6100000000000D+00  0.0000000000000D+00  0.0000000000000D+00
363  3.6200000000000D+00  0.0000000000000D+00  0.0000000000000D+00
364  3.6300000000000D+00  0.0000000000000D+00  0.0000000000000D+00
365  3.6400000000000D+00  0.0000000000000D+00  0.0000000000000D+00
366  3.6500000000000D+00  0.0000000000000D+00  0.0000000000000D+00
367  3.6600000000000D+00  0.0000000000000D+00  0.0000000000000D+00
368  3.6700000000000D+00  0.0000000000000D+00  0.0000000000000D+00
369  3.6800000000000D+00  0.0000000000000D+00  0.0000000000000D+00
370  3.6900000000000D+00  0.0000000000000D+00  0.0000000000000D+00
371  3.7000000000000D+00  0.0000000000000D+00  0.0000000000000D+00
372  3.7100000000000D+00  0.0000000000000D+00  0.0000000000000D+00
373  3.7200000000000D+00  0.0000000000000D+00  0.0000000000000D+00
374  3.7300000000000D+00  0.0000000000000D+00  0.0000000000000D+00
375  3.7400000000000D+00  0.0000000000000D+00  0.0000000000000D+00
376  3.7500000000000D+00  0.0000000000000D+00  0.0000000000000D+00
377  3.7600000000000D+00  0.0000000000000D+00  0.0000000000000D+00
378  3.7700000000000D+00  0.0000000000000D+00  0.0000000000000D+00
379  3.7800000000000D+00  0.0000000000000D+00  0.0000000000000D+00
380  3.7900000000000D+00  0.0000000000000D+00  0.0000000000000D+00
381  3.8000000000000D+00  0.0000000000000D+00  0.0000000000000D+00
382  3.8100000000000D+00  0.0000000000000D+00  0.0000000000000D+00
383  3.8200000000000D+00  0.0000000000000D+00  0.0000000000000D+00
384  3.8300000000000D+00  0.0000000000000D+00  0.0000000000000D+00
385  3.8400000000000D+00  0.0000000000000D+00  0.0000000000000D+00
386  3.8500000000000D+00  0.0000000000000D+00  0.0000000000000D+00
387  3.8600000000000D+00  0.0000000000000D+00  0.0000000000000D+00
388  3.8700000000000D+00  0.0000000000000D+00  0.0000000000000D+00
389  3.8800000000000D+00  0.0000000000000D+00  0.0000000000000D+00
390  3.8900000000000D+00  0.0000000000000D+00  0.0000000000000D+00
391  3.9000000000000D+00  0.0000000000000D+00  0.0000000000000D+00
392  3.9100000000000D+00  0.0000000000000D+00  0.0000000000000D+00
393  3.9200000000000D+00  0.0000000000000D+00  0.0000000000000D+00
394  3.9300000000000D+00  0.0000000000000D+00  0.0000000000000D+00
395  3.9400000000000D+00  0.0000000000000D+00  0.0000000000000D+00
396  3.9500000000000D+00  0.0000000000000D+00  0.0000000000000D+00
397  3.9600000000000D+00  0.0000000000000D+00  0.0000000000000D+00
398  3.9700000000000D+00  0.0000000000000D+00  0.0000000000000D+00
399  3.9800000000000D+00  0.0000000000000D+00  0.0000000000000D+00
400  3.9900000000000D+00  0.0000000000000D+00  0.0000000000000D+00
401  4.0000000000000D+00  0.0000000000000D+00  0.0000000000000D+00
402  4.0100000000000D+00  0.0000000000000D+00  0.0000000000000D+00
403  4.0200000000000D+00  0.0000000000000D+00  0.0000000000000D+00
404  4.0300000000000D+00  0.0000000000000D+00  0.0000000000000D+00
405  4.0400000000000D+00  0.0000000000000D+00  0.0000000000000D+00
406  4.0500000000000D+00  0.0000000000000D+00  0.0000000000000D+00
407  4.0600000000000D+00  0.0000000000000D+00  0.0000000000000D+00
408  4.0700000000000D+00  0.0000000000000D+00  0.0000000000000D+00
409  4.0800000000000D+00  0.0000000000000D+00  0.0000000000000D+00
410  4.0900000000000D+00  0.0000000000000D+00  0.0000000000000D+00
411  4.1000000000000D+00  0.0000000000000D+00  0.0000000000000D+00
412  4.1100000000000D+00  0.0000000000000D+00  0.0000000000000D+00
413  4.1200000000000D+00  0.0000000000000D+00  0.0000000000000D+00
414  4.1300000000000D+00  0.0000000000000D+00  0.0000000000000D+00
415  4.1400000000000D+00  0.0000000000000D+00  0.0000000000000D+00
416  4.1500000000000D+00  0.0000000000000D+00  0.0000000000000D+00
417  4.1600000000000D+00  0.0000000000000D+00  0.0000000000000D+00
418  4.1700000000000D+00  0.0000000000000D+00  0.0000000000000D+00
419  4.1800000000000D+00  0.0000000000000D+00  0.0000000000000D+00
420  4.1900000000000D+00  0.0000000000000D+00  0.0000000000000D+00
421  4.2000000000000D+00  0.0000000000000D+00  0.0000000000000D+00
422  4.2100000000000D+00  0.0000000000000D+00  0.0000000000000D+00
423  4.2200000000000D+00  0.0000000000000D+00  0.0000000000000D+00
424  4.2300000000000D+00  0.0000000000000D+00  0.0000000000000D+00
425  4.2400000000000D+00  0.0000000000000D+00  0.0000000000000D+00
426  4.2500000000000D+00  0.0000000000000D+00  0.0000000000000D+00
427  4.2600000000000D+00  0.0000000000000D+00  0.0000000000000D+00
428  4.2700000000000D+00  0.0000000000000D+00  0.0000000000000D+00
429  4.2800000000000D+00  0.0000000000000D+00  0.0000000000000D+00
430  4.2900000000000D+00  0.0000000000000D+00  0.0000000000000D+00
431  4.3000000000000D+00  0.0000000000000D+00  0.0000000000000D+00
432  4.3100000000000D+00  0.0000000000000D+00  0.0000000000000D+00
433  4.3200000000000D+00  0.0000000000000D+00  0.0000000000000D+00
434  4.3300000000000D+00  0.0000000000000D+00  0.0000000000000D+00
435  4.3400000000000D+00  0.0000000000000D+00  0.0000000000000D+00
436  4.3500000000000D+00  0.0000000000000D+00  0.0000000000000D+00
437  4.3600000000000D+00  0.0000000000000D+00  0.0000000000000D+00
438  4.3700000000000D+00  0.0000000000000D+00  0.0000000000000D+00
439  4.3800000000000D+00  0.0000000000000D+00  0.0000000000000D+00
440  4.3900000000000D+00  0.0000000000000D+00  0.0000000000000D+00
441  4.4000000000000D+00  0.0000000000000D+00  0.0000000000000D+00
442  4.4100000000000D+00  0.0000000000000D+00  0.0000000000000D+00
443  4.4200000000000D+00  0.0000000000000D+00  0.0000000000000D+00
444  4.4300000000000D+00  0.0000000000000D+00  0.0000000000000D+00