Ta    ONCVPSP  r_core=  1.61  1.71  1.56
73.0000     13.0000      140822    zatom,zion,pspd
8    11     2     4   601     0    pspcod,pspxc,lmax,lloc,mmax,r2well
6.00000000  0.50000000  0.00000000    rchrg fchrg qchrg
2     2     2     0     0    nproj
0                 extension_switch
0                         1.5091570039004D+01  1.3900084042113D+00
1  0.0000000000000D+00 -0.0000000000000D+00  0.0000000000000D+00
2  1.0000000000000D-02 -6.6385831726204D-02  2.4581161135742D-02
3  2.0000000000000D-02 -1.3266221183580D-01  4.9074443369167D-02
4  3.0000000000000D-02 -1.9871976811574D-01  7.3391924386165D-02
5  4.0000000000000D-02 -2.6444928851244D-01  9.7445598199283D-02
6  5.0000000000000D-02 -3.2974180457596D-01  1.2114734115184D-01
7  6.0000000000000D-02 -3.9448867889633D-01  1.4440888723386D-01
8  7.0000000000000D-02 -4.5858169778706D-01  1.6714181565280D-01
9  8.0000000000000D-02 -5.2191317040825D-01  1.8925755346567D-01
10  9.0000000000000D-02 -5.8437603544270D-01  2.1066739591169D-01
11  1.0000000000000D-01 -6.4586397634315D-01  2.3128254688471D-01
12  1.1000000000000D-01 -7.0627154607208D-01  2.5101418176112D-01
13  1.2000000000000D-01 -7.6549430212042D-01  2.6977353453956D-01
14  1.3000000000000D-01 -8.2342895247915D-01  2.8747201097619D-01
15  1.4000000000000D-01 -8.7997351309167D-01  3.0402132910011D-01
16  1.5000000000000D-01 -9.3502747714161D-01  3.1933368815167D-01
17  1.6000000000000D-01 -9.8849199644976D-01  3.3332196671575D-01
18  1.7000000000000D-01 -1.0402700749675D+00  3.4589995036689D-01
19  1.8000000000000D-01 -1.0902667743259D+00  3.5698258890786D-01
20  1.9000000000000D-01 -1.1383894310090D+00  3.6648628267807D-01
21  2.0000000000000D-01 -1.1845478851280D+00  3.7432919773699D-01
22  2.1000000000000D-01 -1.2286547192715D+00  3.8043160771453D-01
23  2.2000000000000D-01 -1.2706255079053D+00  3.8471626247383D-01
24  2.3000000000000D-01 -1.3103790750380D+00  3.8710878006512D-01
25  2.4000000000000D-01 -1.3478377603622D+00  3.8753806162163D-01
26  2.5000000000000D-01 -1.3829276907494D+00  3.8593672406699D-01
27  2.6000000000000D-01 -1.4155790582614D+00  3.8224155158188D-01
28  2.7000000000000D-01 -1.4457263995379D+00  3.7639395738853D-01
29  2.8000000000000D-01 -1.4733088796668D+00  3.6834045976128D-01
30  2.9000000000000D-01 -1.4982705735849D+00  3.5803316073021D-01
31  3.0000000000000D-01 -1.5205607461888D+00  3.4543022830647D-01
32  3.1000000000000D-01 -1.5401341282136D+00  3.3049637672220D-01
33  3.2000000000000D-01 -1.5569511882357D+00  3.1320334454655D-01
34  3.3000000000000D-01 -1.5709783923875D+00  2.9353035589876D-01
35  3.4000000000000D-01 -1.5821884533502D+00  2.7146456625256D-01
36  3.5000000000000D-01 -1.5905605765014D+00  2.4700150582445D-01
37  3.6000000000000D-01 -1.5960806728522D+00  2.2014546784033D-01
38  3.7000000000000D-01 -1.5987415740362D+00  1.9090990126284D-01
39  3.8000000000000D-01 -1.5985432159513D+00  1.5931775002630D-01
40  3.9000000000000D-01 -1.5954928024699D+00  1.2540175752001D-01
41  4.0000000000000D-01 -1.5896049479433D+00  8.9204733602532D-02
42  4.1000000000000D-01 -1.5809017961521D+00  5.0779779594038D-02
43  4.2000000000000D-01 -1.5694131075285D+00  1.0190456192547D-02
44  4.3000000000000D-01 -1.5551763181070D+00 -3.2489100117407D-02
45  4.4000000000000D-01 -1.5382365693466D+00 -7.7174114045854D-02
46  4.5000000000000D-01 -1.5186467042774D+00 -1.2376917036023D-01
47  4.6000000000000D-01 -1.4964672325155D+00 -1.7216827035090D-01
48  4.7000000000000D-01 -1.4717662602303D+00 -2.2225495316709D-01
49  4.8000000000000D-01 -1.4446193817229D+00 -2.7390248831517D-01
50  4.9000000000000D-01 -1.4151095377353D+00 -3.2697413015133D-01
51  5.0000000000000D-01 -1.3833268378912D+00 -3.8132343911146D-01
52  5.1000000000000D-01 -1.3493683478075D+00 -4.3679466863240D-01
53  5.2000000000000D-01 -1.3133378322312D+00 -4.9322323357236D-01
54  5.3000000000000D-01 -1.2753454798802D+00 -5.5043621305415D-01
55  5.4000000000000D-01 -1.2355075617235D+00 -6.0825297566480D-01
56  5.5000000000000D-01 -1.1939460932764D+00 -6.6648579790463D-01
57  5.6000000000000D-01 -1.1507884329010D+00 -7.2494059973648D-01
58  5.7000000000000D-01 -1.1061668573431D+00 -7.8341772159501D-01
59  5.8000000000000D-01 -1.0602181170029D+00 -8.4171273779547D-01
60  5.9000000000000D-01 -1.0130829494193D+00 -8.9961734522377D-01
61  6.0000000000000D-01 -9.6490554359929D-01 -9.5692034020732D-01
62  6.1000000000000D-01 -9.1583310009668D-01 -1.0134084183822D+00
63  6.2000000000000D-01 -8.6601510142577D-01 -1.0688675003805D+00
64  6.3000000000000D-01 -8.1560293291604D-01 -1.1230834148948D+00
65  6.4000000000000D-01 -7.6474918273570D-01 -1.1758431627044D+00
66  6.5000000000000D-01 -7.1360698754130D-01 -1.2269360917716D+00
67  6.6000000000000D-01 -6.6232955328620D-01 -1.2761547493462D+00
68  6.7000000000000D-01 -6.1106951864168D-01 -1.3232960144735D+00
69  6.8000000000000D-01 -5.5997812315079D-01 -1.3681625737319D+00
70  6.9000000000000D-01 -5.0920481183059D-01 -1.4105636022566D+00
71  7.0000000000000D-01 -4.5889654421950D-01 -1.4503159697672D+00
72  7.1000000000000D-01 -4.0919726962262D-01 -1.4872451401658D+00
73  7.2000000000000D-01 -3.6024704288076D-01 -1.5211866981606D+00
74  7.3000000000000D-01 -3.1218168316371D-01 -1.5519868986629D+00
75  7.4000000000000D-01 -2.6513215091428D-01 -1.5795037067831D+00
76  7.5000000000000D-01 -2.1922398556610D-01 -1.6036077162222D+00
77  7.6000000000000D-01 -1.7457677863411D-01 -1.6241829911603D+00
78  7.7000000000000D-01 -1.3130367504989D-01 -1.6411278437109D+00
79  7.8000000000000D-01 -8.9510953228929D-02 -1.6543554611555D+00
80  7.9000000000000D-01 -4.9297469179990D-02 -1.6637947455209D+00
81  8.0000000000000D-01 -1.0754335591108D-02 -1.6693907332792D+00
82  8.1000000000000D-01  2.6035405887372D-02 -1.6711050115983D+00
83  8.2000000000000D-01  6.0997125917648D-02 -1.6689161370692D+00
84  8.3000000000000D-01  9.4064878559062D-02 -1.6628199159070D+00
85  8.4000000000000D-01  1.2518162665663D-01 -1.6528295871893D+00
86  8.5000000000000D-01  1.5429942001480D-01 -1.6389759066679D+00
87  8.6000000000000D-01  1.8137952512587D-01 -1.6213071293236D+00
88  8.7000000000000D-01  2.0639250552148D-01 -1.5998888895022D+00
89  8.8000000000000D-01  2.2931825212858D-01 -1.5748039781576D+00
90  8.9000000000000D-01  2.5014596333694D-01 -1.5461520174512D+00
91  9.0000000000000D-01  2.6887407482928D-01 -1.5140490337128D+00
92  9.1000000000000D-01  2.8551011355826D-01 -1.4786269020721D+00
93  9.2000000000000D-01  3.0007055664414D-01 -1.4400327675753D+00
94  9.3000000000000D-01  3.1258069857178D-01 -1.3984284025716D+00
95  9.4000000000000D-01  3.2307425222638D-01 -1.3539892439653D+00
96  9.5000000000000D-01  3.3159309078397D-01 -1.3069035573155D+00
97  9.6000000000000D-01  3.3818689491890D-01 -1.2573714577138D+00
98  9.7000000000000D-01  3.4291275937181D-01 -1.2056038559174D+00
99  9.8000000000000D-01  3.4583476195522D-01 -1.1518213372511D+00
100  9.9000000000000D-01  3.4702349855248D-01 -1.0962529817521D+00
101  1.0000000000000D+00  3.4655560012638D-01 -1.0391353437141D+00
102  1.0100000000000D+00  3.4451324165011D-01 -9.8071074996440D-01
103  1.0200000000000D+00  3.4098349157984D-01 -9.2122609731626D-01
104  1.0300000000000D+00  3.3605777173184D-01 -8.6093159801116D-01
105  1.0400000000000D+00  3.2983127378121D-01 -8.0007936800839D-01
106  1.0500000000000D+00  3.2240239862898D-01 -7.3892218977008D-01
107  1.0600000000000D+00  3.1387232175309D-01 -6.7771264562227D-01
108  1.0700000000000D+00  3.0434372149137D-01 -6.1669954220596D-01
109  1.0800000000000D+00  2.9392071312538D-01 -5.5612861211563D-01
110  1.0900000000000D+00  2.8270810003000D-01 -4.9624061877843D-01
111  1.1000000000000D+00  2.7081112455252D-01 -4.3727104667828D-01
112  1.1100000000000D+00  2.5833419571242D-01 -3.7944683837276D-01
113  1.1200000000000D+00  2.4538019572417D-01 -3.2298507237469D-01
114  1.1300000000000D+00  2.3205056263684D-01 -2.6809359211283D-01
115  1.1400000000000D+00  2.1844506058643D-01 -2.1497061253443D-01
116  1.1500000000000D+00  2.0466021445663D-01 -1.6380091628220D-01
117  1.1600000000000D+00  1.9078857694368D-01 -1.1475448584730D-01
118  1.1700000000000D+00  1.7691946884341D-01 -6.7988679227243D-02
119  1.1800000000000D+00  1.6313930528919D-01 -2.3649118788322D-02
120  1.1900000000000D+00  1.4952772477459D-01  1.8139405610110D-02
121  1.2000000000000D+00  1.3615999552866D-01  5.7266669029040D-02
122  1.2100000000000D+00  1.2310727689970D-01  9.3636324763972D-02
123  1.2200000000000D+00  1.1043457293623D-01  1.2717050874636D-01
124  1.2300000000000D+00  9.8199798437210D-02  1.5781148372363D-01
125  1.2400000000000D+00  8.6456526650615D-02  1.8551520901559D-01
126  1.2500000000000D+00  7.5252628140749D-02  2.1025436743687D-01
127  1.2600000000000D+00  6.4627221627833D-02  2.3202450743996D-01
128  1.2700000000000D+00  5.4615280539433D-02  2.5083380486909D-01
129  1.2800000000000D+00  4.5246037722953D-02  2.6670653608570D-01
130  1.2900000000000D+00  3.6539691779311D-02  2.7968926175707D-01
131  1.3000000000000D+00  2.8512819876242D-02  2.8983952007091D-01
132  1.3100000000000D+00  2.1175668360044D-02  2.9723130993592D-01
133  1.3200000000000D+00  1.4530619833895D-02  3.0195718703334D-01
134  1.3300000000000D+00  8.5770543988138D-03  3.0411905045453D-01
135  1.3400000000000D+00  3.3071548633527D-03  3.0383559977692D-01
136  1.3500000000000D+00 -1.2923868555255D-03  3.0123824530471D-01
137  1.3600000000000D+00 -5.2375232485907D-03  2.9646690335139D-01
138  1.3700000000000D+00 -8.5518174721613D-03  2.8967661664360D-01
139  1.3800000000000D+00 -1.1261203801954D-02  2.8102923090064D-01
140  1.3900000000000D+00 -1.3395679568856D-02  2.7069622491070D-01
141  1.4000000000000D+00 -1.4989913950685D-02  2.5885698695362D-01
142  1.4100000000000D+00 -1.6080257618083D-02  2.4569721176315D-01
143  1.4200000000000D+00 -1.6707248910752D-02  2.3140834878698D-01
144  1.4300000000000D+00 -1.6913021867359D-02  2.1618582403204D-01
145  1.4400000000000D+00 -1.6742152588542D-02  2.0023017106390D-01
146  1.4500000000000D+00 -1.6240719638097D-02  1.8374109081835D-01
147  1.4600000000000D+00 -1.5456506334067D-02  1.6692511605458D-01
148  1.4700000000000D+00 -1.4437787198601D-02  1.4998308939875D-01
149  1.4800000000000D+00 -1.3234026812042D-02  1.3312078635389D-01
150  1.4900000000000D+00 -1.1894963084373D-02  1.1654068306727D-01
151  1.5000000000000D+00 -1.0469915842556D-02  1.0044210450498D-01
152  1.5100000000000D+00 -9.0102394631427D-03  8.5029985256099D-02
153  1.5200000000000D+00 -7.5598317123822D-03  7.0480860570595D-02
154  1.5300000000000D+00 -6.1672102321266D-03  5.6987436521299D-02
155  1.5400000000000D+00 -4.8639726429676D-03  4.4682383852323D-02
156  1.5500000000000D+00 -3.6871265331954D-03  3.3717544122790D-02
157  1.5600000000000D+00 -2.6572979230966D-03  2.4188233531144D-02
158  1.5700000000000D+00 -1.7967180119704D-03  1.6195689238502D-02
159  1.5800000000000D+00 -1.1148700684975D-03  9.7980992477435D-03
160  1.5900000000000D+00 -6.1804889593449D-04  5.0434046495453D-03
161  1.6000000000000D+00 -3.2004016297738D-04  2.0882747798387D-03
162  1.6100000000000D+00 -1.8029504728076D-04  6.6689691526002D-04
163  1.6200000000000D+00 -8.4804105867824D-05  8.2368731846574D-05
164  1.6300000000000D+00 -1.3923178292278D-05 -2.4379532727253D-05
165  1.6400000000000D+00  9.7598229535371D-06 -2.5720612909961D-05
166  1.6500000000000D+00  3.5717406683259D-06 -9.4128100050709D-06
167  1.6600000000000D+00  0.0000000000000D+00  0.0000000000000D+00
168  1.6700000000000D+00  0.0000000000000D+00  0.0000000000000D+00
169  1.6800000000000D+00  0.0000000000000D+00  0.0000000000000D+00
170  1.6900000000000D+00  0.0000000000000D+00  0.0000000000000D+00
171  1.7000000000000D+00  0.0000000000000D+00  0.0000000000000D+00
172  1.7100000000000D+00  0.0000000000000D+00  0.0000000000000D+00
173  1.7200000000000D+00  0.0000000000000D+00  0.0000000000000D+00
174  1.7300000000000D+00  0.0000000000000D+00  0.0000000000000D+00
175  1.7400000000000D+00  0.0000000000000D+00  0.0000000000000D+00
176  1.7500000000000D+00  0.0000000000000D+00  0.0000000000000D+00
177  1.7600000000000D+00  0.0000000000000D+00  0.0000000000000D+00
178  1.7700000000000D+00  0.0000000000000D+00  0.0000000000000D+00
179  1.7800000000000D+00  0.0000000000000D+00  0.0000000000000D+00
180  1.7900000000000D+00  0.0000000000000D+00  0.0000000000000D+00
181  1.8000000000000D+00  0.0000000000000D+00  0.0000000000000D+00
182  1.8100000000000D+00  0.0000000000000D+00  0.0000000000000D+00
183  1.8200000000000D+00  0.0000000000000D+00  0.0000000000000D+00
184  1.8300000000000D+00  0.0000000000000D+00  0.0000000000000D+00
185  1.8400000000000D+00  0.0000000000000D+00  0.0000000000000D+00
186  1.8500000000000D+00  0.0000000000000D+00  0.0000000000000D+00
187  1.8600000000000D+00  0.0000000000000D+00  0.0000000000000D+00
188  1.8700000000000D+00  0.0000000000000D+00  0.0000000000000D+00
189  1.8800000000000D+00  0.0000000000000D+00  0.0000000000000D+00
190  1.8900000000000D+00  0.0000000000000D+00  0.0000000000000D+00
191  1.9000000000000D+00  0.0000000000000D+00  0.0000000000000D+00
192  1.9100000000000D+00  0.0000000000000D+00  0.0000000000000D+00
193  1.9200000000000D+00  0.0000000000000D+00  0.0000000000000D+00
194  1.9300000000000D+00  0.0000000000000D+00  0.0000000000000D+00
195  1.9400000000000D+00  0.0000000000000D+00  0.0000000000000D+00
196  1.9500000000000D+00  0.0000000000000D+00  0.0000000000000D+00
197  1.9600000000000D+00  0.0000000000000D+00  0.0000000000000D+00
198  1.9700000000000D+00  0.0000000000000D+00  0.0000000000000D+00
199  1.9800000000000D+00  0.0000000000000D+00  0.0000000000000D+00
200  1.9900000000000D+00  0.0000000000000D+00  0.0000000000000D+00
201  2.0000000000000D+00  0.0000000000000D+00  0.0000000000000D+00
202  2.0100000000000D+00  0.0000000000000D+00  0.0000000000000D+00
203  2.0200000000000D+00  0.0000000000000D+00  0.0000000000000D+00
204  2.0300000000000D+00  0.0000000000000D+00  0.0000000000000D+00
205  2.0400000000000D+00  0.0000000000000D+00  0.0000000000000D+00
206  2.0500000000000D+00  0.0000000000000D+00  0.0000000000000D+00
207  2.0600000000000D+00  0.0000000000000D+00  0.0000000000000D+00
208  2.0700000000000D+00  0.0000000000000D+00  0.0000000000000D+00
209  2.0800000000000D+00  0.0000000000000D+00  0.0000000000000D+00
210  2.0900000000000D+00  0.0000000000000D+00  0.0000000000000D+00
211  2.1000000000000D+00  0.0000000000000D+00  0.0000000000000D+00
212  2.1100000000000D+00  0.0000000000000D+00  0.0000000000000D+00
213  2.1200000000000D+00  0.0000000000000D+00  0.0000000000000D+00
214  2.1300000000000D+00  0.0000000000000D+00  0.0000000000000D+00
215  2.1400000000000D+00  0.0000000000000D+00  0.0000000000000D+00
216  2.1500000000000D+00  0.0000000000000D+00  0.0000000000000D+00
217  2.1600000000000D+00  0.0000000000000D+00  0.0000000000000D+00
218  2.1700000000000D+00  0.0000000000000D+00  0.0000000000000D+00
219  2.1800000000000D+00  0.0000000000000D+00  0.0000000000000D+00
220  2.1900000000000D+00  0.0000000000000D+00  0.0000000000000D+00
221  2.2000000000000D+00  0.0000000000000D+00  0.0000000000000D+00
222  2.2100000000000D+00  0.0000000000000D+00  0.0000000000000D+00
223  2.2200000000000D+00  0.0000000000000D+00  0.0000000000000D+00
224  2.2300000000000D+00  0.0000000000000D+00  0.0000000000000D+00
225  2.2400000000000D+00  0.0000000000000D+00  0.0000000000000D+00
226  2.2500000000000D+00  0.0000000000000D+00  0.0000000000000D+00
227  2.2600000000000D+00  0.0000000000000D+00  0.0000000000000D+00
228  2.2700000000000D+00  0.0000000000000D+00  0.0000000000000D+00
229  2.2800000000000D+00  0.0000000000000D+00  0.0000000000000D+00
230  2.2900000000000D+00  0.0000000000000D+00  0.0000000000000D+00
231  2.3000000000000D+00  0.0000000000000D+00  0.0000000000000D+00
232  2.3100000000000D+00  0.0000000000000D+00  0.0000000000000D+00
233  2.3200000000000D+00  0.0000000000000D+00  0.0000000000000D+00
234  2.3300000000000D+00  0.0000000000000D+00  0.0000000000000D+00
235  2.3400000000000D+00  0.0000000000000D+00  0.0000000000000D+00
236  2.3500000000000D+00  0.0000000000000D+00  0.0000000000000D+00
237  2.3600000000000D+00  0.0000000000000D+00  0.0000000000000D+00
238  2.3700000000000D+00  0.0000000000000D+00  0.0000000000000D+00
239  2.3800000000000D+00  0.0000000000000D+00  0.0000000000000D+00
240  2.3900000000000D+00  0.0000000000000D+00  0.0000000000000D+00
241  2.4000000000000D+00  0.0000000000000D+00  0.0000000000000D+00
242  2.4100000000000D+00  0.0000000000000D+00  0.0000000000000D+00
243  2.4200000000000D+00  0.0000000000000D+00  0.0000000000000D+00
244  2.4300000000000D+00  0.0000000000000D+00  0.0000000000000D+00
245  2.4400000000000D+00  0.0000000000000D+00  0.0000000000000D+00
246  2.4500000000000D+00  0.0000000000000D+00  0.0000000000000D+00
247  2.4600000000000D+00  0.0000000000000D+00  0.0000000000000D+00
248  2.4700000000000D+00  0.0000000000000D+00  0.0000000000000D+00
249  2.4800000000000D+00  0.0000000000000D+00  0.0000000000000D+00
250  2.4900000000000D+00  0.0000000000000D+00  0.0000000000000D+00
251  2.5000000000000D+00  0.0000000000000D+00  0.0000000000000D+00
252  2.5100000000000D+00  0.0000000000000D+00  0.0000000000000D+00
253  2.5200000000000D+00  0.0000000000000D+00  0.0000000000000D+00
254  2.5300000000000D+00  0.0000000000000D+00  0.0000000000000D+00
255  2.5400000000000D+00  0.0000000000000D+00  0.0000000000000D+00
256  2.5500000000000D+00  0.0000000000000D+00  0.0000000000000D+00
257  2.5600000000000D+00  0.0000000000000D+00  0.0000000000000D+00
258  2.5700000000000D+00  0.0000000000000D+00  0.0000000000000D+00
259  2.5800000000000D+00  0.0000000000000D+00  0.0000000000000D+00
260  2.5900000000000D+00  0.0000000000000D+00  0.0000000000000D+00
261  2.6000000000000D+00  0.0000000000000D+00  0.0000000000000D+00
262  2.6100000000000D+00  0.0000000000000D+00  0.0000000000000D+00
263  2.6200000000000D+00  0.0000000000000D+00  0.0000000000000D+00
264  2.6300000000000D+00  0.0000000000000D+00  0.0000000000000D+00
265  2.6400000000000D+00  0.0000000000000D+00  0.0000000000000D+00
266  2.6500000000000D+00  0.0000000000000D+00  0.0000000000000D+00
267  2.6600000000000D+00  0.0000000000000D+00  0.0000000000000D+00
268  2.6700000000000D+00  0.0000000000000D+00  0.0000000000000D+00
269  2.6800000000000D+00  0.0000000000000D+00  0.0000000000000D+00
270  2.6900000000000D+00  0.0000000000000D+00  0.0000000000000D+00
271  2.7000000000000D+00  0.0000000000000D+00  0.0000000000000D+00
272  2.7100000000000D+00  0.0000000000000D+00  0.0000000000000D+00
273  2.7200000000000D+00  0.0000000000000D+00  0.0000000000000D+00
274  2.7300000000000D+00  0.0000000000000D+00  0.0000000000000D+00
275  2.7400000000000D+00  0.0000000000000D+00  0.0000000000000D+00
276  2.7500000000000D+00  0.0000000000000D+00  0.0000000000000D+00
277  2.7600000000000D+00  0.0000000000000D+00  0.0000000000000D+00
278  2.7700000000000D+00  0.0000000000000D+00  0.0000000000000D+00
279  2.7800000000000D+00  0.0000000000000D+00  0.0000000000000D+00
280  2.7900000000000D+00  0.0000000000000D+00  0.0000000000000D+00
281  2.8000000000000D+00  0.0000000000000D+00  0.0000000000000D+00
282  2.8100000000000D+00  0.0000000000000D+00  0.0000000000000D+00
283  2.8200000000000D+00  0.0000000000000D+00  0.0000000000000D+00
284  2.8300000000000D+00  0.0000000000000D+00  0.0000000000000D+00
285  2.8400000000000D+00  0.0000000000000D+00  0.0000000000000D+00
286  2.8500000000000D+00  0.0000000000000D+00  0.0000000000000D+00
287  2.8600000000000D+00  0.0000000000000D+00  0.0000000000000D+00
288  2.8700000000000D+00  0.0000000000000D+00  0.0000000000000D+00
289  2.8800000000000D+00  0.0000000000000D+00  0.0000000000000D+00
290  2.8900000000000D+00  0.0000000000000D+00  0.0000000000000D+00
291  2.9000000000000D+00  0.0000000000000D+00  0.0000000000000D+00
292  2.9100000000000D+00  0.0000000000000D+00  0.0000000000000D+00
293  2.9200000000000D+00  0.0000000000000D+00  0.0000000000000D+00
294  2.9300000000000D+00  0.0000000000000D+00  0.0000000000000D+00
295  2.9400000000000D+00  0.0000000000000D+00  0.0000000000000D+00
296  2.9500000000000D+00  0.0000000000000D+00  0.0000000000000D+00
297  2.9600000000000D+00  0.0000000000000D+00  0.0000000000000D+00
298  2.9700000000000D+00  0.0000000000000D+00  0.0000000000000D+00
299  2.9800000000000D+00  0.0000000000000D+00  0.0000000000000D+00
300  2.9900000000000D+00  0.0000000000000D+00  0.0000000000000D+00
301  3.0000000000000D+00  0.0000000000000D+00  0.0000000000000D+00
302  3.0100000000000D+00  0.0000000000000D+00  0.0000000000000D+00
303  3.0200000000000D+00  0.0000000000000D+00  0.0000000000000D+00
304  3.0300000000000D+00  0.0000000000000D+00  0.0000000000000D+00
305  3.0400000000000D+00  0.0000000000000D+00  0.0000000000000D+00
306  3.0500000000000D+00  0.0000000000000D+00  0.0000000000000D+00
307  3.0600000000000D+00  0.0000000000000D+00  0.0000000000000D+00
308  3.0700000000000D+00  0.0000000000000D+00  0.0000000000000D+00
309  3.0800000000000D+00  0.0000000000000D+00  0.0000000000000D+00
310  3.0900000000000D+00  0.0000000000000D+00  0.0000000000000D+00
311  3.1000000000000D+00  0.0000000000000D+00  0.0000000000000D+00
312  3.1100000000000D+00  0.0000000000000D+00  0.0000000000000D+00
313  3.1200000000000D+00  0.0000000000000D+00  0.0000000000000D+00
314  3.1300000000000D+00  0.0000000000000D+00  0.0000000000000D+00
315  3.1400000000000D+00  0.0000000000000D+00  0.0000000000000D+00
316  3.1500000000000D+00  0.0000000000000D+00  0.0000000000000D+00
317  3.1600000000000D+00  0.0000000000000D+00  0.0000000000000D+00
318  3.1700000000000D+00  0.0000000000000D+00  0.0000000000000D+00
319  3.1800000000000D+00  0.0000000000000D+00  0.0000000000000D+00
320  3.1900000000000D+00  0.0000000000000D+00  0.0000000000000D+00
321  3.2000000000000D+00  0.0000000000000D+00  0.0000000000000D+00
322  3.2100000000000D+00  0.0000000000000D+00  0.0000000000000D+00
323  3.2200000000000D+00  0.0000000000000D+00  0.0000000000000D+00
324  3.2300000000000D+00  0.0000000000000D+00  0.0000000000000D+00
325  3.2400000000000D+00  0.0000000000000D+00  0.0000000000000D+00
326  3.2500000000000D+00  0.0000000000000D+00  0.0000000000000D+00
327  3.2600000000000D+00  0.0000000000000D+00  0.0000000000000D+00
328  3.2700000000000D+00  0.0000000000000D+00  0.0000000000000D+00
329  3.2800000000000D+00  0.0000000000000D+00  0.0000000000000D+00
330  3.2900000000000D+00  0.0000000000000D+00  0.0000000000000D+00
331  3.3000000000000D+00  0.0000000000000D+00  0.0000000000000D+00
332  3.3100000000000D+00  0.0000000000000D+00  0.0000000000000D+00
333  3.3200000000000D+00  0.0000000000000D+00  0.0000000000000D+00
334  3.3300000000000D+00  0.0000000000000D+00  0.0000000000000D+00
335  3.3400000000000D+00  0.0000000000000D+00  0.0000000000000D+00
336  3.3500000000000D+00  0.0000000000000D+00  0.0000000000000D+00
337  3.3600000000000D+00  0.0000000000000D+00  0.0000000000000D+00
338  3.3700000000000D+00  0.0000000000000D+00  0.0000000000000D+00
339  3.3800000000000D+00  0.0000000000000D+00  0.0000000000000D+00
340  3.3900000000000D+00  0.0000000000000D+00  0.0000000000000D+00
341  3.4000000000000D+00  0.0000000000000D+00  0.0000000000000D+00
342  3.4100000000000D+00  0.0000000000000D+00  0.0000000000000D+00
343  3.4200000000000D+00  0.0000000000000D+00  0.0000000000000D+00
344  3.4300000000000D+00  0.0000000000000D+00  0.0000000000000D+00
345  3.4400000000000D+00  0.0000000000000D+00  0.0000000000000D+00
346  3.4500000000000D+00  0.0000000000000D+00  0.0000000000000D+00
347  3.4600000000000D+00  0.0000000000000D+00  0.0000000000000D+00
348  3.4700000000000D+00  0.0000000000000D+00  0.0000000000000D+00
349  3.4800000000000D+00  0.0000000000000D+00  0.0000000000000D+00
350  3.4900000000000D+00  0.0000000000000D+00  0.0000000000000D+00
351  3.5000000000000D+00  0.0000000000000D+00  0.0000000000000D+00
352  3.5100000000000D+00  0.0000000000000D+00  0.0000000000000D+00
353  3.5200000000000D+00  0.0000000000000D+00  0.0000000000000D+00
354  3.5300000000000D+00  0.0000000000000D+00  0.0000000000000D+00
355  3.5400000000000D+00  0.0000000000000D+00  0.0000000000000D+00
356  3.5500000000000D+00  0.0000000000000D+00  0.0000000000000D+00
357  3.5600000000000D+00  0.0000000000000D+00  0.0000000000000D+00
358  3.5700000000000D+00  0.0000000000000D+00  0.0000000000000D+00
359  3.5800000000000D+00  0.0000000000000D+00  0.0000000000000D+00
360  3.5900000000000D+00  0.0000000000000D+00  0.0000000000000D+00
361  3.6000000000000D+00  0.0000000000000D+00  0.0000000000000D+00
362  3.6100000000000D+00  0.0000000000000D+00  0.0000000000000D+00
363  3.6200000000000D+00  0.0000000000000D+00  0.0000000000000D+00
364  3.6300000000000D+00  0.0000000000000D+00  0.0000000000000D+00
365  3.6400000000000D+00  0.0000000000000D+00  0.0000000000000D+00
366  3.6500000000000D+00  0.0000000000000D+00  0.0000000000000D+00
367  3.6600000000000D+00  0.0000000000000D+00  0.0000000000000D+00
368  3.6700000000000D+00  0.0000000000000D+00  0.0000000000000D+00
369  3.6800000000000D+00  0.0000000000000D+00  0.0000000000000D+00
370  3.6900000000000D+00  0.0000000000000D+00  0.0000000000000D+00
371  3.7000000000000D+00  0.0000000000000D+00  0.0000000000000D+00
372  3.7100000000000D+00  0.0000000000000D+00  0.0000000000000D+00
373  3.7200000000000D+00  0.0000000000000D+00  0.0000000000000D+00
374  3.7300000000000D+00  0.0000000000000D+00  0.0000000000000D+00
375  3.7400000000000D+00  0.0000000000000D+00  0.0000000000000D+00
376  3.7500000000000D+00  0.0000000000000D+00  0.0000000000000D+00
377  3.7600000000000D+00  0.0000000000000D+00  0.0000000000000D+00
378  3.7700000000000D+00  0.0000000000000D+00  0.0000000000000D+00
379  3.7800000000000D+00  0.0000000000000D+00  0.0000000000000D+00
380  3.7900000000000D+00  0.0000000000000D+00  0.0000000000000D+00
381  3.8000000000000D+00  0.0000000000000D+00  0.0000000000000D+00
382  3.8100000000000D+00  0.0000000000000D+00  0.0000000000000D+00
383  3.8200000000000D+00  0.0000000000000D+00  0.0000000000000D+00
384  3.8300000000000D+00  0.0000000000000D+00  0.0000000000000D+00
385  3.8400000000000D+00  0.0000000000000D+00  0.0000000000000D+00
386  3.8500000000000D+00  0.0000000000000D+00  0.0000000000000D+00
387  3.8600000000000D+00  0.0000000000000D+00  0.0000000000000D+00
388  3.8700000000000D+00  0.0000000000000D+00  0.0000000000000D+00
389  3.8800000000000D+00  0.0000000000000D+00  0.0000000000000D+00
390  3.8900000000000D+00  0.0000000000000D+00  0.0000000000000D+00
391  3.9000000000000D+00  0.0000000000000D+00  0.0000000000000D+00
392  3.9100000000000D+00  0.0000000000000D+00  0.0000000000000D+00
393  3.9200000000000D+00  0.0000000000000D+00  0.0000000000000D+00
394  3.9300000000000D+00  0.0000000000000D+00  0.0000000000000D+00
395  3.9400000000000D+00  0.0000000000000D+00  0.0000000000000D+00
396  3.9500000000000D+00  0.0000000000000D+00  0.0000000000000D+00
397  3.9600000000000D+00  0.0000000000000D+00  0.0000000000000D+00
398  3.9700000000000D+00  0.0000000000000D+00  0.0000000000000D+00
399  3.9800000000000D+00  0.0000000000000D+00  0.0000000000000D+00
400  3.9900000000000D+00  0.0000000000000D+00  0.0000000000000D+00
401  4.0000000000000D+00  0.0000000000000D+00  0.0000000000000D+00
402  4.0100000000000D+00  0.0000000000000D+00  0.0000000000000D+00
403  4.0200000000000D+00  0.0000000000000D+00  0.0000000000000D+00
404  4.0300000000000D+00  0.0000000000000D+00  0.0000000000000D+00
405  4.0400000000000D+00  0.0000000000000D+00  0.0000000000000D+00
406  4.0500000000000D+00  0.0000000000000D+00  0.0000000000000D+00
407  4.0600000000000D+00  0.0000000000000D+00  0.0000000000000D+00
408  4.0700000000000D+00  0.0000000000000D+00  0.0000000000000D+00
409  4.0800000000000D+00  0.0000000000000D+00  0.0000000000000D+00
410  4.0900000000000D+00  0.0000000000000D+00  0.0000000000000D+00
411  4.1000000000000D+00  0.0000000000000D+00  0.0000000000000D+00
412  4.1100000000000D+00  0.0000000000000D+00  0.0000000000000D+00
413  4.1200000000000D+00  0.0000000000000D+00  0.0000000000000D+00
414  4.1300000000000D+00  0.0000000000000D+00  0.0000000000000D+00
415  4.1400000000000D+00  0.0000000000000D+00  0.0000000000000D+00
416  4.1500000000000D+00  0.0000000000000D+00  0.0000000000000D+00
417  4.1600000000000D+00  0.0000000000000D+00  0.0000000000000D+00
418  4.1700000000000D+00  0.0000000000000D+00  0.0000000000000D+00
419  4.1800000000000D+00  0.0000000000000D+00  0.0000000000000D+00
420  4.1900000000000D+00  0.0000000000000D+00  0.0000000000000D+00
421  4.2000000000000D+00  0.0000000000000D+00  0.0000000000000D+00
422  4.2100000000000D+00  0.0000000000000D+00  0.0000000000000D+00
423  4.2200000000000D+00  0.0000000000000D+00  0.0000000000000D+00
424  4.2300000000000D+00  0.0000000000000D+00  0.0000000000000D+00
425  4.2400000000000D+00  0.0000000000000D+00  0.0000000000000D+00
426  4.2500000000000D+00  0.0000000000000D+00  0.0000000000000D+00
427  4.2600000000000D+00  0.0000000000000D+00  0.0000000000000D+00
428  4.2700000000000D+00  0.0000000000000D+00  0.0000000000000D+00
429  4.2800000000000D+00  0.0000000000000D+00  0.0000000000000D+00
430  4.2900000000000D+00  0.0000000000000D+00  0.0000000000000D+00
431  4.3000000000000D+00  0.0000000000000D+00  0.0000000000000D+00
432  4.3100000000000D+00  0.0000000000000D+00  0.0000000000000D+00
433  4.3200000000000D+00  0.0000000000000D+00  0.0000000000000D+00
434  4.3300000000000D+00  0.0000000000000D+00  0.0000000000000D+00
435  4.3400000000000D+00  0.0000000000000D+00  0.0000000000000D+00
436  4.3500000000000D+00  0.0000000000000D+00  0.0000000000000D+00
437  4.3600000000000D+00  0.0000000000000D+00  0.0000000000000D+00
438  4.3700000000000D+00  0.0000000000000D+00  0.0000000000000D+00
439  4.3800000000000D+00  0.0000000000000D+00  0.0000000000000D+00
440  4.3900000000000D+00  0.0000000000000D+00  0.0000000000000D+00
441  4.4000000000000D+00  0.0000000000000D+00  0.0000000000000D+00
442  4.4100000000000D+00  0.0000000000000D+00  0.0000000000000D+00
443  4.4200000000000D+00  0.0000000000000D+00  0.0000000000000D+00
444  4.4300000000000D+00  0.0000000000000D+00  0.0000000000000D+00