Ta    ONCVPSP  r_core=  1.47  1.21  1.30  1.71
73.0000     27.0000      140820    zatom,zion,pspd
8    11     3     4   601     0    pspcod,pspxc,lmax,lloc,mmax,r2well
6.00000000  0.35000000  0.00000000    rchrg fchrg qchrg
2     2     2     2     0    nproj
0                 extension_switch
0                         1.5462311139028D+01  1.8270523960944D+00
1  0.0000000000000D+00 -0.0000000000000D+00 -0.0000000000000D+00
2  1.0000000000000D-02 -4.2281704251544D-02 -1.4769682820099D-03
3  2.0000000000000D-02 -8.4601688263363D-02 -2.7902755225394D-03
4  3.0000000000000D-02 -1.2699735767905D-01 -3.7783562236519D-03
5  4.0000000000000D-02 -1.6950437777951D-01 -4.2838169216323D-03
6  5.0000000000000D-02 -2.1215582291930D-01 -4.1554747160290D-03
7  6.0000000000000D-02 -2.5498134933738D-01 -3.2503392200483D-03
8  7.0000000000000D-02 -2.9800639886278D-01 -1.4355197350128D-03
9  8.0000000000000D-02 -3.4125144079321D-01  1.4099599569076D-03
10  9.0000000000000D-02 -3.8473125894293D-01  5.3934560973541D-03
11  1.0000000000000D-01 -4.2845429052453D-01  1.0607124857745D-02
12  1.1000000000000D-01 -4.7242202308288D-01  1.7126482658924D-02
13  1.2000000000000D-01 -5.1662845535052D-01  2.5009121055390D-02
14  1.3000000000000D-01 -5.6105962729945D-01  3.4293588881675D-02
15  1.4000000000000D-01 -6.0569322418394D-01  4.4998453173715D-02
16  1.5000000000000D-01 -6.5049825884773D-01  5.7121549088618D-02
17  1.6000000000000D-01 -6.9543483575664D-01  7.0639427061237D-02
18  1.7000000000000D-01 -7.4045399991130D-01  8.5507004646528D-02
19  1.8000000000000D-01 -7.8549767276937D-01  1.0165742799445D-01
20  1.9000000000000D-01 -8.3049867691013D-01  1.1900214688270D-01
21  2.0000000000000D-01 -8.7538085011939D-01  1.3743120468192D-01
22  2.1000000000000D-01 -9.2005924935419D-01  1.5681374394489D-01
23  2.2000000000000D-01 -9.6444044374000D-01  1.7699872526171D-01
24  2.3000000000000D-01 -1.0084228953463D+00  1.9781585579298D-01
25  2.4000000000000D-01 -1.0518974262616D+00  2.1907672345945D-01
26  2.5000000000000D-01 -1.0947477676234D+00  2.4057612561353D-01
27  2.6000000000000D-01 -1.1368511898626D+00  2.6209358985563D-01
28  2.7000000000000D-01 -1.1780792053532D+00  2.8339506488234D-01
29  2.8000000000000D-01 -1.2182983460713D+00  3.0423478696915D-01
30  2.9000000000000D-01 -1.2573710024571D+00  3.2435728779770D-01
31  3.0000000000000D-01 -1.2951563221485D+00  3.4349953958525D-01
32  3.1000000000000D-01 -1.3315111604090D+00  3.6139321680010D-01
33  3.2000000000000D-01 -1.3662910823421D+00  3.7776707346483D-01
34  3.3000000000000D-01 -1.3993513923088D+00  3.9234937600756D-01
35  3.4000000000000D-01 -1.4305481896600D+00  4.0487038860907D-01
36  3.5000000000000D-01 -1.4597394792376D+00  4.1506497677682D-01
37  3.6000000000000D-01 -1.4867862335037D+00  4.2267508324085D-01
38  3.7000000000000D-01 -1.5115535237503D+00  4.2745235289385D-01
39  3.8000000000000D-01 -1.5339116052821D+00  4.2916063272024D-01
40  3.9000000000000D-01 -1.5537369914764D+00  4.2757842826840D-01
41  4.0000000000000D-01 -1.5709135127846D+00  4.2250130566744D-01
42  4.1000000000000D-01 -1.5853333544910D+00  4.1374422242001D-01
43  4.2000000000000D-01 -1.5968980338853D+00  4.0114369413687D-01
44  4.3000000000000D-01 -1.6055193293301D+00  3.8455982528801D-01
45  4.4000000000000D-01 -1.6111201592152D+00  3.6387819753176D-01
46  4.5000000000000D-01 -1.6136353842302D+00  3.3901155370094D-01
47  4.6000000000000D-01 -1.6130125503188D+00  3.0990131545728D-01
48  4.7000000000000D-01 -1.6092125548433D+00  2.7651889256795D-01
49  4.8000000000000D-01 -1.6022101970373D+00  2.3886669778924D-01
50  4.9000000000000D-01 -1.5919946558807D+00  1.9697896275348D-01
51  5.0000000000000D-01 -1.5785698309046D+00  1.5092221746204D-01
52  5.1000000000000D-01 -1.5619547064670D+00  1.0079576690895D-01
53  5.2000000000000D-01 -1.5421834634158D+00  4.6731580598559D-02
54  5.3000000000000D-01 -1.5193054726541D+00 -1.1106091305711D-02
55  5.4000000000000D-01 -1.4933854132341D+00 -7.2520936395826D-02
56  5.5000000000000D-01 -1.4645029425346D+00 -1.3728572437214D-01
57  5.6000000000000D-01 -1.4327525256150D+00 -2.0514320887347D-01
58  5.7000000000000D-01 -1.3982430182638D+00 -2.7580757091348D-01
59  5.8000000000000D-01 -1.3610971833599D+00 -3.4896602624023D-01
60  5.9000000000000D-01 -1.3214510914527D+00 -4.2428072587506D-01
61  6.0000000000000D-01 -1.2794534398499D+00 -5.0139088651883D-01
62  6.1000000000000D-01 -1.2352647438833D+00 -5.7991504925559D-01
63  6.2000000000000D-01 -1.1890564483859D+00 -6.5945388287704D-01
64  6.3000000000000D-01 -1.1410099894649D+00 -7.3959260754306D-01
65  6.4000000000000D-01 -1.0913157304900D+00 -8.1990409347060D-01
66  6.5000000000000D-01 -1.0401717862185D+00 -8.9995210852688D-01
67  6.6000000000000D-01 -9.8778294975869D-01 -9.7929410357427D-01
68  6.7000000000000D-01 -9.3435948180332D-01 -1.0574844685389D+00
69  6.8000000000000D-01 -8.8011559103260D-01 -1.1340786405923D+00
70  6.9000000000000D-01 -8.2526837716707D-01 -1.2086356710821D+00
71  7.0000000000000D-01 -7.7003643128997D-01 -1.2807218447330D+00
72  7.1000000000000D-01 -7.1463863211226D-01 -1.3499136556261D+00
73  7.2000000000000D-01 -6.5929237799345D-01 -1.4158023235748D+00
74  7.3000000000000D-01 -6.0421260714315D-01 -1.4779959973163D+00
75  7.4000000000000D-01 -5.4961040940785D-01 -1.5361230911627D+00
76  7.5000000000000D-01 -4.9569171893730D-01 -1.5898353299839D+00
77  7.6000000000000D-01 -4.4265606188370D-01 -1.6388105858902D+00
78  7.7000000000000D-01 -3.9069535384398D-01 -1.6827555240808D+00
79  7.8000000000000D-01 -3.3999284578210D-01 -1.7214078106289D+00
80  7.9000000000000D-01 -2.9072182167552D-01 -1.7545388807160D+00
81  8.0000000000000D-01 -2.4304473464942D-01 -1.7819555196553D+00
82  8.1000000000000D-01 -1.9711235083266D-01 -1.8035013795624D+00
83  8.2000000000000D-01 -1.5306287874652D-01 -1.8190584633620D+00
84  8.3000000000000D-01 -1.1102124501778D-01 -1.8285481777191D+00
85  8.4000000000000D-01 -7.1098473205723D-02 -1.8319320669937D+00
86  8.5000000000000D-01 -3.3391170222133D-02 -1.8292122199963D+00
87  8.6000000000000D-01  2.0188761062358D-03 -1.8204313442257D+00
88  8.7000000000000D-01  3.5064985738126D-02 -1.8056725052301D+00
89  8.8000000000000D-01  6.5695759766589D-02 -1.7850585317579D+00
90  8.9000000000000D-01  9.3875137804618D-02 -1.7587510904385D+00
91  9.0000000000000D-01  1.1958233982320D-01 -1.7269494368590D+00
92  9.1000000000000D-01  1.4281163790057D-01 -1.6898887702596D+00
93  9.2000000000000D-01  1.6357213052561D-01 -1.6478385038787D+00
94  9.3000000000000D-01  1.8188753442350D-01 -1.6011003340088D+00
95  9.4000000000000D-01  1.9779539771566D-01 -1.5500053749128D+00
96  9.5000000000000D-01  2.1134661264469D-01 -1.4949116660816D+00
97  9.6000000000000D-01  2.2260472469010D-01 -1.4362012723692D+00
98  9.7000000000000D-01  2.3164515509274D-01 -1.3742771844310D+00
99  9.8000000000000D-01  2.3855434502649D-01 -1.3095600488393D+00
100  9.9000000000000D-01  2.4342883061929D-01 -1.2424847596059D+00
101  1.0000000000000D+00  2.4637426094731D-01 -1.1734975443269D+00
102  1.0100000000000D+00  2.4750448305033D-01 -1.1030511160946D+00
103  1.0200000000000D+00  2.4694021425699D-01 -1.0316013564036D+00
104  1.0300000000000D+00  2.4480798043144D-01 -9.5960387924070D-01
105  1.0400000000000D+00  2.4123898474315D-01 -8.8751020448863D-01
106  1.0500000000000D+00  2.3636801657085D-01 -8.1576447745203D-01
107  1.0600000000000D+00  2.3033260089817D-01 -7.4480122564242D-01
108  1.0700000000000D+00  2.2327064256286D-01 -6.7503582808241D-01
109  1.0800000000000D+00  2.1532024200065D-01 -6.0686679878035D-01
110  1.0900000000000D+00  2.0661831827115D-01 -5.4067094999560D-01
111  1.1000000000000D+00  1.9730013940104D-01 -4.7680283787767D-01
112  1.1100000000000D+00  1.8749700198708D-01 -4.1558648384593D-01
113  1.1200000000000D+00  1.7733498220288D-01 -3.5731251286044D-01
114  1.1300000000000D+00  1.6693510682618D-01 -3.0224022846732D-01
115  1.1400000000000D+00  1.5641295152277D-01 -2.5059687728034D-01
116  1.1500000000000D+00  1.4587583922043D-01 -2.0256844415798D-01
117  1.1600000000000D+00  1.3542157441470D-01 -1.5829700311257D-01
118  1.1700000000000D+00  1.2513980583254D-01 -1.1788657252601D-01
119  1.1800000000000D+00  1.1511261908766D-01 -8.1405408569563D-02
120  1.1900000000000D+00  1.0540766528897D-01 -4.8864669073864D-02
121  1.2000000000000D+00  9.6082459908242D-02 -2.0234044252635D-02
122  1.2100000000000D+00  8.7184924194615D-02  4.5561523517320D-03
123  1.2200000000000D+00  7.8749288229233D-02  2.5627571980771D-02
124  1.2300000000000D+00  7.0797948128711D-02  4.3140468398764D-02
125  1.2400000000000D+00  6.3346870084655D-02  5.7277126196284D-02
126  1.2500000000000D+00  5.6404690114202D-02  6.8241674779363D-02
127  1.2600000000000D+00  4.9971272872484D-02  7.6258480366899D-02
128  1.2700000000000D+00  4.4042364589399D-02  8.1564483962576D-02
129  1.2800000000000D+00  3.8608153784126D-02  8.4411185527512D-02
130  1.2900000000000D+00  3.3652617955444D-02  8.5058814347046D-02
131  1.3000000000000D+00  2.9157255091644D-02  8.3774455705958D-02
132  1.3100000000000D+00  2.5099626178659D-02  8.0831212887692D-02
133  1.3200000000000D+00  2.1454648416866D-02  7.6498082925880D-02
134  1.3300000000000D+00  1.8195871571557D-02  7.1047508858357D-02
135  1.3400000000000D+00  1.5295355689071D-02  6.4744266716483D-02
136  1.3500000000000D+00  1.2725651115476D-02  5.7840580700848D-02
137  1.3600000000000D+00  1.0458358555774D-02  5.0591173429344D-02
138  1.3700000000000D+00  8.4678192199903D-03  4.3220989307176D-02
139  1.3800000000000D+00  6.7293857566339D-03  3.5948116462529D-02
140  1.3900000000000D+00  5.2198041676999D-03  2.8977405183979D-02
141  1.4000000000000D+00  3.9213674032671D-03  2.2476616282288D-02
142  1.4100000000000D+00  2.8162026790863D-03  1.6614599690157D-02
143  1.4200000000000D+00  1.8936526453515D-03  1.1514958157486D-02
144  1.4300000000000D+00  1.1456962689918D-03  7.2867216814333D-03
145  1.4400000000000D+00  5.6780158818192D-04  4.0181294982952D-03
146  1.4500000000000D+00  1.6476994886317D-04  1.7587222954349D-03
147  1.4600000000000D+00 -4.9824786706808D-05  6.3967601801486D-04
148  1.4700000000000D+00 -1.0454122844313D-04  1.6382312725717D-04
149  1.4800000000000D+00 -3.8306826890405D-05  2.8771227836280D-06
150  1.4900000000000D+00  6.8072528508892D-06 -1.7582984537431D-05
151  1.5000000000000D+00  2.4120558893404D-06 -6.2302873618322D-06
152  1.5100000000000D+00  0.0000000000000D+00  0.0000000000000D+00
153  1.5200000000000D+00  0.0000000000000D+00  0.0000000000000D+00
154  1.5300000000000D+00  0.0000000000000D+00  0.0000000000000D+00
155  1.5400000000000D+00  0.0000000000000D+00  0.0000000000000D+00
156  1.5500000000000D+00  0.0000000000000D+00  0.0000000000000D+00
157  1.5600000000000D+00  0.0000000000000D+00  0.0000000000000D+00
158  1.5700000000000D+00  0.0000000000000D+00  0.0000000000000D+00
159  1.5800000000000D+00  0.0000000000000D+00  0.0000000000000D+00
160  1.5900000000000D+00  0.0000000000000D+00  0.0000000000000D+00
161  1.6000000000000D+00  0.0000000000000D+00  0.0000000000000D+00
162  1.6100000000000D+00  0.0000000000000D+00  0.0000000000000D+00
163  1.6200000000000D+00  0.0000000000000D+00  0.0000000000000D+00
164  1.6300000000000D+00  0.0000000000000D+00  0.0000000000000D+00
165  1.6400000000000D+00  0.0000000000000D+00  0.0000000000000D+00
166  1.6500000000000D+00  0.0000000000000D+00  0.0000000000000D+00
167  1.6600000000000D+00  0.0000000000000D+00  0.0000000000000D+00
168  1.6700000000000D+00  0.0000000000000D+00  0.0000000000000D+00
169  1.6800000000000D+00  0.0000000000000D+00  0.0000000000000D+00
170  1.6900000000000D+00  0.0000000000000D+00  0.0000000000000D+00
171  1.7000000000000D+00  0.0000000000000D+00  0.0000000000000D+00
172  1.7100000000000D+00  0.0000000000000D+00  0.0000000000000D+00
173  1.7200000000000D+00  0.0000000000000D+00  0.0000000000000D+00
174  1.7300000000000D+00  0.0000000000000D+00  0.0000000000000D+00
175  1.7400000000000D+00  0.0000000000000D+00  0.0000000000000D+00
176  1.7500000000000D+00  0.0000000000000D+00  0.0000000000000D+00
177  1.7600000000000D+00  0.0000000000000D+00  0.0000000000000D+00
178  1.7700000000000D+00  0.0000000000000D+00  0.0000000000000D+00
179  1.7800000000000D+00  0.0000000000000D+00  0.0000000000000D+00
180  1.7900000000000D+00  0.0000000000000D+00  0.0000000000000D+00
181  1.8000000000000D+00  0.0000000000000D+00  0.0000000000000D+00
182  1.8100000000000D+00  0.0000000000000D+00  0.0000000000000D+00
183  1.8200000000000D+00  0.0000000000000D+00  0.0000000000000D+00
184  1.8300000000000D+00  0.0000000000000D+00  0.0000000000000D+00
185  1.8400000000000D+00  0.0000000000000D+00  0.0000000000000D+00
186  1.8500000000000D+00  0.0000000000000D+00  0.0000000000000D+00
187  1.8600000000000D+00  0.0000000000000D+00  0.0000000000000D+00
188  1.8700000000000D+00  0.0000000000000D+00  0.0000000000000D+00
189  1.8800000000000D+00  0.0000000000000D+00  0.0000000000000D+00
190  1.8900000000000D+00  0.0000000000000D+00  0.0000000000000D+00
191  1.9000000000000D+00  0.0000000000000D+00  0.0000000000000D+00
192  1.9100000000000D+00  0.0000000000000D+00  0.0000000000000D+00
193  1.9200000000000D+00  0.0000000000000D+00  0.0000000000000D+00
194  1.9300000000000D+00  0.0000000000000D+00  0.0000000000000D+00
195  1.9400000000000D+00  0.0000000000000D+00  0.0000000000000D+00
196  1.9500000000000D+00  0.0000000000000D+00  0.0000000000000D+00
197  1.9600000000000D+00  0.0000000000000D+00  0.0000000000000D+00
198  1.9700000000000D+00  0.0000000000000D+00  0.0000000000000D+00
199  1.9800000000000D+00  0.0000000000000D+00  0.0000000000000D+00
200  1.9900000000000D+00  0.0000000000000D+00  0.0000000000000D+00
201  2.0000000000000D+00  0.0000000000000D+00  0.0000000000000D+00
202  2.0100000000000D+00  0.0000000000000D+00  0.0000000000000D+00
203  2.0200000000000D+00  0.0000000000000D+00  0.0000000000000D+00
204  2.0300000000000D+00  0.0000000000000D+00  0.0000000000000D+00
205  2.0400000000000D+00  0.0000000000000D+00  0.0000000000000D+00
206  2.0500000000000D+00  0.0000000000000D+00  0.0000000000000D+00
207  2.0600000000000D+00  0.0000000000000D+00  0.0000000000000D+00
208  2.0700000000000D+00  0.0000000000000D+00  0.0000000000000D+00
209  2.0800000000000D+00  0.0000000000000D+00  0.0000000000000D+00
210  2.0900000000000D+00  0.0000000000000D+00  0.0000000000000D+00
211  2.1000000000000D+00  0.0000000000000D+00  0.0000000000000D+00
212  2.1100000000000D+00  0.0000000000000D+00  0.0000000000000D+00
213  2.1200000000000D+00  0.0000000000000D+00  0.0000000000000D+00
214  2.1300000000000D+00  0.0000000000000D+00  0.0000000000000D+00
215  2.1400000000000D+00  0.0000000000000D+00  0.0000000000000D+00
216  2.1500000000000D+00  0.0000000000000D+00  0.0000000000000D+00
217  2.1600000000000D+00  0.0000000000000D+00  0.0000000000000D+00
218  2.1700000000000D+00  0.0000000000000D+00  0.0000000000000D+00
219  2.1800000000000D+00  0.0000000000000D+00  0.0000000000000D+00
220  2.1900000000000D+00  0.0000000000000D+00  0.0000000000000D+00
221  2.2000000000000D+00  0.0000000000000D+00  0.0000000000000D+00
222  2.2100000000000D+00  0.0000000000000D+00  0.0000000000000D+00
223  2.2200000000000D+00  0.0000000000000D+00  0.0000000000000D+00
224  2.2300000000000D+00  0.0000000000000D+00  0.0000000000000D+00
225  2.2400000000000D+00  0.0000000000000D+00  0.0000000000000D+00
226  2.2500000000000D+00  0.0000000000000D+00  0.0000000000000D+00
227  2.2600000000000D+00  0.0000000000000D+00  0.0000000000000D+00
228  2.2700000000000D+00  0.0000000000000D+00  0.0000000000000D+00
229  2.2800000000000D+00  0.0000000000000D+00  0.0000000000000D+00
230  2.2900000000000D+00  0.0000000000000D+00  0.0000000000000D+00
231  2.3000000000000D+00  0.0000000000000D+00  0.0000000000000D+00
232  2.3100000000000D+00  0.0000000000000D+00  0.0000000000000D+00
233  2.3200000000000D+00  0.0000000000000D+00  0.0000000000000D+00
234  2.3300000000000D+00  0.0000000000000D+00  0.0000000000000D+00
235  2.3400000000000D+00  0.0000000000000D+00  0.0000000000000D+00
236  2.3500000000000D+00  0.0000000000000D+00  0.0000000000000D+00
237  2.3600000000000D+00  0.0000000000000D+00  0.0000000000000D+00
238  2.3700000000000D+00  0.0000000000000D+00  0.0000000000000D+00
239  2.3800000000000D+00  0.0000000000000D+00  0.0000000000000D+00
240  2.3900000000000D+00  0.0000000000000D+00  0.0000000000000D+00
241  2.4000000000000D+00  0.0000000000000D+00  0.0000000000000D+00
242  2.4100000000000D+00  0.0000000000000D+00  0.0000000000000D+00
243  2.4200000000000D+00  0.0000000000000D+00  0.0000000000000D+00
244  2.4300000000000D+00  0.0000000000000D+00  0.0000000000000D+00
245  2.4400000000000D+00  0.0000000000000D+00  0.0000000000000D+00
246  2.4500000000000D+00  0.0000000000000D+00  0.0000000000000D+00
247  2.4600000000000D+00  0.0000000000000D+00  0.0000000000000D+00
248  2.4700000000000D+00  0.0000000000000D+00  0.0000000000000D+00
249  2.4800000000000D+00  0.0000000000000D+00  0.0000000000000D+00
250  2.4900000000000D+00  0.0000000000000D+00  0.0000000000000D+00
251  2.5000000000000D+00  0.0000000000000D+00  0.0000000000000D+00
252  2.5100000000000D+00  0.0000000000000D+00  0.0000000000000D+00
253  2.5200000000000D+00  0.0000000000000D+00  0.0000000000000D+00
254  2.5300000000000D+00  0.0000000000000D+00  0.0000000000000D+00
255  2.5400000000000D+00  0.0000000000000D+00  0.0000000000000D+00
256  2.5500000000000D+00  0.0000000000000D+00  0.0000000000000D+00
257  2.5600000000000D+00  0.0000000000000D+00  0.0000000000000D+00
258  2.5700000000000D+00  0.0000000000000D+00  0.0000000000000D+00
259  2.5800000000000D+00  0.0000000000000D+00  0.0000000000000D+00
260  2.5900000000000D+00  0.0000000000000D+00  0.0000000000000D+00
261  2.6000000000000D+00  0.0000000000000D+00  0.0000000000000D+00
262  2.6100000000000D+00  0.0000000000000D+00  0.0000000000000D+00
263  2.6200000000000D+00  0.0000000000000D+00  0.0000000000000D+00
264  2.6300000000000D+00  0.0000000000000D+00  0.0000000000000D+00
265  2.6400000000000D+00  0.0000000000000D+00  0.0000000000000D+00
266  2.6500000000000D+00  0.0000000000000D+00  0.0000000000000D+00
267  2.6600000000000D+00  0.0000000000000D+00  0.0000000000000D+00
268  2.6700000000000D+00  0.0000000000000D+00  0.0000000000000D+00
269  2.6800000000000D+00  0.0000000000000D+00  0.0000000000000D+00
270  2.6900000000000D+00  0.0000000000000D+00  0.0000000000000D+00
271  2.7000000000000D+00  0.0000000000000D+00  0.0000000000000D+00
272  2.7100000000000D+00  0.0000000000000D+00  0.0000000000000D+00
273  2.7200000000000D+00  0.0000000000000D+00  0.0000000000000D+00
274  2.7300000000000D+00  0.0000000000000D+00  0.0000000000000D+00
275  2.7400000000000D+00  0.0000000000000D+00  0.0000000000000D+00
276  2.7500000000000D+00  0.0000000000000D+00  0.0000000000000D+00
277  2.7600000000000D+00  0.0000000000000D+00  0.0000000000000D+00
278  2.7700000000000D+00  0.0000000000000D+00  0.0000000000000D+00
279  2.7800000000000D+00  0.0000000000000D+00  0.0000000000000D+00
280  2.7900000000000D+00  0.0000000000000D+00  0.0000000000000D+00
281  2.8000000000000D+00  0.0000000000000D+00  0.0000000000000D+00
282  2.8100000000000D+00  0.0000000000000D+00  0.0000000000000D+00
283  2.8200000000000D+00  0.0000000000000D+00  0.0000000000000D+00
284  2.8300000000000D+00  0.0000000000000D+00  0.0000000000000D+00
285  2.8400000000000D+00  0.0000000000000D+00  0.0000000000000D+00
286  2.8500000000000D+00  0.0000000000000D+00  0.0000000000000D+00
287  2.8600000000000D+00  0.0000000000000D+00  0.0000000000000D+00
288  2.8700000000000D+00  0.0000000000000D+00  0.0000000000000D+00
289  2.8800000000000D+00  0.0000000000000D+00  0.0000000000000D+00
290  2.8900000000000D+00  0.0000000000000D+00  0.0000000000000D+00
291  2.9000000000000D+00  0.0000000000000D+00  0.0000000000000D+00
292  2.9100000000000D+00  0.0000000000000D+00  0.0000000000000D+00
293  2.9200000000000D+00  0.0000000000000D+00  0.0000000000000D+00
294  2.9300000000000D+00  0.0000000000000D+00  0.0000000000000D+00
295  2.9400000000000D+00  0.0000000000000D+00  0.0000000000000D+00
296  2.9500000000000D+00  0.0000000000000D+00  0.0000000000000D+00
297  2.9600000000000D+00  0.0000000000000D+00  0.0000000000000D+00
298  2.9700000000000D+00  0.0000000000000D+00  0.0000000000000D+00
299  2.9800000000000D+00  0.0000000000000D+00  0.0000000000000D+00
300  2.9900000000000D+00  0.0000000000000D+00  0.0000000000000D+00
301  3.0000000000000D+00  0.0000000000000D+00  0.0000000000000D+00
302  3.0100000000000D+00  0.0000000000000D+00  0.0000000000000D+00
303  3.0200000000000D+00  0.0000000000000D+00  0.0000000000000D+00
304  3.0300000000000D+00  0.0000000000000D+00  0.0000000000000D+00
305  3.0400000000000D+00  0.0000000000000D+00  0.0000000000000D+00
306  3.0500000000000D+00  0.0000000000000D+00  0.0000000000000D+00
307  3.0600000000000D+00  0.0000000000000D+00  0.0000000000000D+00
308  3.0700000000000D+00  0.0000000000000D+00  0.0000000000000D+00
309  3.0800000000000D+00  0.0000000000000D+00  0.0000000000000D+00
310  3.0900000000000D+00  0.0000000000000D+00  0.0000000000000D+00
311  3.1000000000000D+00  0.0000000000000D+00  0.0000000000000D+00
312  3.1100000000000D+00  0.0000000000000D+00  0.0000000000000D+00
313  3.1200000000000D+00  0.0000000000000D+00  0.0000000000000D+00
314  3.1300000000000D+00  0.0000000000000D+00  0.0000000000000D+00
315  3.1400000000000D+00  0.0000000000000D+00  0.0000000000000D+00
316  3.1500000000000D+00  0.0000000000000D+00  0.0000000000000D+00
317  3.1600000000000D+00  0.0000000000000D+00  0.0000000000000D+00
318  3.1700000000000D+00  0.0000000000000D+00  0.0000000000000D+00
319  3.1800000000000D+00  0.0000000000000D+00  0.0000000000000D+00
320  3.1900000000000D+00  0.0000000000000D+00  0.0000000000000D+00
321  3.2000000000000D+00  0.0000000000000D+00  0.0000000000000D+00
322  3.2100000000000D+00  0.0000000000000D+00  0.0000000000000D+00
323  3.2200000000000D+00  0.0000000000000D+00  0.0000000000000D+00
324  3.2300000000000D+00  0.0000000000000D+00  0.0000000000000D+00
325  3.2400000000000D+00  0.0000000000000D+00  0.0000000000000D+00
326  3.2500000000000D+00  0.0000000000000D+00  0.0000000000000D+00
327  3.2600000000000D+00  0.0000000000000D+00  0.0000000000000D+00
328  3.2700000000000D+00  0.0000000000000D+00  0.0000000000000D+00
329  3.2800000000000D+00  0.0000000000000D+00  0.0000000000000D+00
330  3.2900000000000D+00  0.0000000000000D+00  0.0000000000000D+00
331  3.3000000000000D+00  0.0000000000000D+00  0.0000000000000D+00
332  3.3100000000000D+00  0.0000000000000D+00  0.0000000000000D+00
333  3.3200000000000D+00  0.0000000000000D+00  0.0000000000000D+00
334  3.3300000000000D+00  0.0000000000000D+00  0.0000000000000D+00
335  3.3400000000000D+00  0.0000000000000D+00  0.0000000000000D+00
336  3.3500000000000D+00  0.0000000000000D+00  0.0000000000000D+00
337  3.3600000000000D+00  0.0000000000000D+00  0.0000000000000D+00
338  3.3700000000000D+00  0.0000000000000D+00  0.0000000000000D+00
339  3.3800000000000D+00  0.0000000000000D+00  0.0000000000000D+00
340  3.3900000000000D+00  0.0000000000000D+00  0.0000000000000D+00
341  3.4000000000000D+00  0.0000000000000D+00  0.0000000000000D+00
342  3.4100000000000D+00  0.0000000000000D+00  0.0000000000000D+00
343  3.4200000000000D+00  0.0000000000000D+00  0.0000000000000D+00
344  3.4300000000000D+00  0.0000000000000D+00  0.0000000000000D+00
345  3.4400000000000D+00  0.0000000000000D+00  0.0000000000000D+00
346  3.4500000000000D+00  0.0000000000000D+00  0.0000000000000D+00
347  3.4600000000000D+00  0.0000000000000D+00  0.0000000000000D+00
348  3.4700000000000D+00  0.0000000000000D+00  0.0000000000000D+00
349  3.4800000000000D+00  0.0000000000000D+00  0.0000000000000D+00
350  3.4900000000000D+00  0.0000000000000D+00  0.0000000000000D+00
351  3.5000000000000D+00  0.0000000000000D+00  0.0000000000000D+00
352  3.5100000000000D+00  0.0000000000000D+00  0.0000000000000D+00
353  3.5200000000000D+00  0.0000000000000D+00  0.0000000000000D+00
354  3.5300000000000D+00  0.0000000000000D+00  0.0000000000000D+00
355  3.5400000000000D+00  0.0000000000000D+00  0.0000000000000D+00
356  3.5500000000000D+00  0.0000000000000D+00  0.0000000000000D+00
357  3.5600000000000D+00  0.0000000000000D+00  0.0000000000000D+00
358  3.5700000000000D+00  0.0000000000000D+00  0.0000000000000D+00
359  3.5800000000000D+00  0.0000000000000D+00  0.0000000000000D+00
360  3.5900000000000D+00  0.0000000000000D+00  0.0000000000000D+00
361  3.6000000000000D+00  0.0000000000000D+00  0.0000000000000D+00
362  3.6100000000000D+00  0.0000000000000D+00  0.0000000000000D+00
363  3.6200000000000D+00  0.0000000000000D+00  0.0000000000000D+00
364  3.6300000000000D+00  0.0000000000000D+00  0.0000000000000D+00
365  3.6400000000000D+00  0.0000000000000D+00  0.0000000000000D+00
366  3.6500000000000D+00  0.0000000000000D+00  0.0000000000000D+00
367  3.6600000000000D+00  0.0000000000000D+00  0.0000000000000D+00
368  3.6700000000000D+00  0.0000000000000D+00  0.0000000000000D+00
369  3.6800000000000D+00  0.0000000000000D+00  0.0000000000000D+00
370  3.6900000000000D+00  0.0000000000000D+00  0.0000000000000D+00
371  3.7000000000000D+00  0.0000000000000D+00  0.0000000000000D+00
372  3.7100000000000D+00  0.0000000000000D+00  0.0000000000000D+00
373  3.7200000000000D+00  0.0000000000000D+00  0.0000000000000D+00
374  3.7300000000000D+00  0.0000000000000D+00  0.0000000000000D+00
375  3.7400000000000D+00  0.0000000000000D+00  0.0000000000000D+00
376  3.7500000000000D+00  0.0000000000000D+00  0.0000000000000D+00
377  3.7600000000000D+00  0.0000000000000D+00  0.0000000000000D+00
378  3.7700000000000D+00  0.0000000000000D+00  0.0000000000000D+00
379  3.7800000000000D+00  0.0000000000000D+00  0.0000000000000D+00
380  3.7900000000000D+00  0.0000000000000D+00  0.0000000000000D+00
381  3.8000000000000D+00  0.0000000000000D+00  0.0000000000000D+00
382  3.8100000000000D+00  0.0000000000000D+00  0.0000000000000D+00
383  3.8200000000000D+00  0.0000000000000D+00  0.0000000000000D+00
384  3.8300000000000D+00  0.0000000000000D+00  0.0000000000000D+00
385  3.8400000000000D+00  0.0000000000000D+00  0.0000000000000D+00
386  3.8500000000000D+00  0.0000000000000D+00  0.0000000000000D+00
387  3.8600000000000D+00  0.0000000000000D+00  0.0000000000000D+00
388  3.8700000000000D+00  0.0000000000000D+00  0.0000000000000D+00
389  3.8800000000000D+00  0.0000000000000D+00  0.0000000000000D+00
390  3.8900000000000D+00  0.0000000000000D+00  0.0000000000000D+00
391  3.9000000000000D+00  0.0000000000000D+00  0.0000000000000D+00
392  3.9100000000000D+00  0.0000000000000D+00  0.0000000000000D+00
393  3.9200000000000D+00  0.0000000000000D+00  0.0000000000000D+00
394  3.9300000000000D+00  0.0000000000000D+00  0.0000000000000D+00
395  3.9400000000000D+00  0.0000000000000D+00  0.0000000000000D+00
396  3.9500000000000D+00  0.0000000000000D+00  0.0000000000000D+00
397  3.9600000000000D+00  0.0000000000000D+00  0.0000000000000D+00
398  3.9700000000000D+00  0.0000000000000D+00  0.0000000000000D+00
399  3.9800000000000D+00  0.0000000000000D+00  0.0000000000000D+00
400  3.9900000000000D+00  0.0000000000000D+00  0.0000000000000D+00
401  4.0000000000000D+00  0.0000000000000D+00  0.0000000000000D+00
402  4.0100000000000D+00  0.0000000000000D+00  0.0000000000000D+00
403  4.0200000000000D+00  0.0000000000000D+00  0.0000000000000D+00
404  4.0300000000000D+00  0.0000000000000D+00  0.0000000000000D+00
405  4.0400000000000D+00  0.0000000000000D+00  0.0000000000000D+00
406  4.0500000000000D+00  0.0000000000000D+00  0.0000000000000D+00
407  4.0600000000000D+00  0.0000000000000D+00  0.0000000000000D+00
408  4.0700000000000D+00  0.0000000000000D+00  0.0000000000000D+00
409  4.0800000000000D+00  0.0000000000000D+00  0.0000000000000D+00
410  4.0900000000000D+00  0.0000000000000D+00  0.0000000000000D+00
411  4.1000000000000D+00  0.0000000000000D+00  0.0000000000000D+00
412  4.1100000000000D+00  0.0000000000000D+00  0.0000000000000D+00
413  4.1200000000000D+00  0.0000000000000D+00  0.0000000000000D+00
414  4.1300000000000D+00  0.0000000000000D+00  0.0000000000000D+00
415  4.1400000000000D+00  0.0000000000000D+00  0.0000000000000D+00
416  4.1500000000000D+00  0.0000000000000D+00  0.0000000000000D+00
417  4.1600000000000D+00  0.0000000000000D+00  0.0000000000000D+00
418  4.1700000000000D+00  0.0000000000000D+00  0.0000000000000D+00
419  4.1800000000000D+00  0.0000000000000D+00  0.0000000000000D+00
420  4.1900000000000D+00  0.0000000000000D+00  0.0000000000000D+00
421  4.2000000000000D+00  0.0000000000000D+00  0.0000000000000D+00
422  4.2100000000000D+00  0.0000000000000D+00  0.0000000000000D+00
423  4.2200000000000D+00  0.0000000000000D+00  0.0000000000000D+00
424  4.2300000000000D+00  0.0000000000000D+00  0.0000000000000D+00
425  4.2400000000000D+00  0.0000000000000D+00  0.0000000000000D+00
426  4.2500000000000D+00  0.0000000000000D+00  0.0000000000000D+00
427  4.2600000000000D+00  0.0000000000000D+00  0.0000000000000D+00
428  4.2700000000000D+00  0.0000000000000D+00  0.0000000000000D+00
429  4.2800000000000D+00  0.0000000000000D+00  0.0000000000000D+00
430  4.2900000000000D+00  0.0000000000000D+00  0.0000000000000D+00
431  4.3000000000000D+00  0.0000000000000D+00  0.0000000000000D+00
432  4.3100000000000D+00  0.0000000000000D+00  0.0000000000000D+00
433  4.3200000000000D+00  0.0000000000000D+00  0.0000000000000D+00
434  4.3300000000000D+00  0.0000000000000D+00  0.0000000000000D+00
435  4.3400000000000D+00  0.0000000000000D+00  0.0000000000000D+00
436  4.3500000000000D+00  0.0000000000000D+00  0.0000000000000D+00
437  4.3600000000000D+00  0.0000000000000D+00  0.0000000000000D+00
438  4.3700000000000D+00  0.0000000000000D+00  0.0000000000000D+00
439  4.3800000000000D+00  0.0000000000000D+00  0.0000000000000D+00
440  4.3900000000000D+00  0.0000000000000D+00  0.0000000000000D+00
441  4.4000000000000D+00  0.0000000000000D+00  0.0000000000000D+00
442  4.4100000000000D+00  0.0000000000000D+00  0.0000000000000D+00
443  4.4200000000000D+00  0.0000000000000D+00  0.0000000000000D+00