Ta    ONCVPSP  r_core=  1.56  1.42  1.42  1.86
73.0000     27.0000      140827    zatom,zion,pspd
8    11     3     4   601     0    pspcod,pspxc,lmax,lloc,mmax,r2well
6.00000000  0.35000000  0.00000000    rchrg fchrg qchrg
2     2     2     2     0    nproj
0                 extension_switch
0                         1.4285633522832D+01  1.8127688658488D+00
1  0.0000000000000D+00 -0.0000000000000D+00  0.0000000000000D+00
2  1.0000000000000D-02 -4.6966801609657D-02  7.0140101361874D-03
3  2.0000000000000D-02 -9.3932371707856D-02  1.4097457331766D-02
4  3.0000000000000D-02 -1.4089494914949D-01  2.1318621124495D-02
5  4.0000000000000D-02 -1.8785171844698D-01  2.8743476533268D-02
6  5.0000000000000D-02 -2.3479829487501D-01  3.6434568032336D-02
7  6.0000000000000D-02 -2.8172822420427D-01  4.4449914787343D-02
8  7.0000000000000D-02 -3.2863250177468D-01  5.2841957218435D-02
9  8.0000000000000D-02 -3.7549911547021D-01  6.1656554637956D-02
10  9.0000000000000D-02 -4.2231261698471D-01  7.0932043340274D-02
11  1.0000000000000D-01 -4.6905372556566D-01  8.0698364086420D-02
12  1.1000000000000D-01 -5.1569896814931D-01  9.0976267338981D-02
13  1.2000000000000D-01 -5.6222035958707D-01  1.0177660414487D-01
14  1.3000000000000D-01 -6.0858512629978D-01  1.1309970978079D-01
15  1.4000000000000D-01 -6.5475547640297D-01  1.2493488664408D-01
16  1.5000000000000D-01 -7.0068841902501D-01  1.3725999218322D-01
17  1.6000000000000D-01 -7.4633563504955D-01  1.5004113659222D-01
18  1.7000000000000D-01 -7.9164340131615D-01  1.6323249458347D-01
19  1.8000000000000D-01 -8.3655256969715D-01  1.7677623420134D-01
20  1.9000000000000D-01 -8.8099860220703D-01  1.9060256510002D-01
21  2.0000000000000D-01 -9.2491166270641D-01  2.0462990734481D-01
22  2.1000000000000D-01 -9.6821676550843D-01  2.1876518141153D-01
23  2.2000000000000D-01 -1.0108339805923D+00  2.3290421846842D-01
24  2.3000000000000D-01 -1.0526786946381D+00  2.4693228929049D-01
25  2.4000000000000D-01 -1.0936619272134D+00  2.6072475004565D-01
26  2.5000000000000D-01 -1.1336906993598D+00  2.7414779911128D-01
27  2.6000000000000D-01 -1.1726684544994D+00  2.8705934422711D-01
28  2.7000000000000D-01 -1.2104955259613D+00  2.9930996799707D-01
29  2.8000000000000D-01 -1.2470696533589D+00  3.1074399567384D-01
30  2.9000000000000D-01 -1.2822865388420D+00  3.2120064636822D-01
31  3.0000000000000D-01 -1.3160404428242D+00  3.3051526615431D-01
32  3.1000000000000D-01 -1.3482248141112D+00  3.3852063201399D-01
33  3.2000000000000D-01 -1.3787329549169D+00  3.4504832694052D-01
34  3.3000000000000D-01 -1.4074587047937D+00  3.4993015255277D-01
35  3.4000000000000D-01 -1.4342971433375D+00  3.5299957815609D-01
36  3.5000000000000D-01 -1.4591453310624D+00  3.5409326541401D-01
37  3.6000000000000D-01 -1.4819030200523D+00  3.5305252692284D-01
38  3.7000000000000D-01 -1.5024734131779D+00  3.4972488008600D-01
39  3.8000000000000D-01 -1.5207638954391D+00  3.4396553801903D-01
40  3.9000000000000D-01 -1.5366867610371D+00  3.3563888531172D-01
41  4.0000000000000D-01 -1.5501599338795D+00  3.2461993302577D-01
42  4.1000000000000D-01 -1.5611076777752D+00  3.1079574414245D-01
43  4.2000000000000D-01 -1.5694612701015D+00  2.9406677504015D-01
44  4.3000000000000D-01 -1.5751596474602D+00  2.7434814971866D-01
45  4.4000000000000D-01 -1.5781500221910D+00  2.5157086349433D-01
46  4.5000000000000D-01 -1.5783884517982D+00  2.2568287909599D-01
47  4.6000000000000D-01 -1.5758403732057D+00  1.9665013832562D-01
48  4.7000000000000D-01 -1.5704810901481D+00  1.6445746446017D-01
49  4.8000000000000D-01 -1.5622961865603D+00  1.2910930129874D-01
50  4.9000000000000D-01 -1.5512818955116D+00  9.0630347094765D-02
51  5.0000000000000D-01 -1.5374453780131D+00  4.9065994705255D-02
52  5.1000000000000D-01 -1.5208050257141D+00  4.4827947900137D-03
53  5.2000000000000D-01 -1.5013905920874D+00 -4.3031434930069D-02
54  5.3000000000000D-01 -1.4792432424096D+00 -9.3367668529181D-02
55  5.4000000000000D-01 -1.4544157045129D+00 -1.4639557973533D-01
56  5.5000000000000D-01 -1.4269720978000D+00 -2.0196406322063D-01
57  5.6000000000000D-01 -1.3969878860282D+00 -2.5990155975556D-01
58  5.7000000000000D-01 -1.3645496558408D+00 -3.2001672924978D-01
59  5.8000000000000D-01 -1.3297548483220D+00 -3.8209922714959D-01
60  5.9000000000000D-01 -1.2927114113795D+00 -4.4592065806175D-01
61  6.0000000000000D-01 -1.2535373978626D+00 -5.1123566298116D-01
62  6.1000000000000D-01 -1.2123604508065D+00 -5.7778316542184D-01
63  6.2000000000000D-01 -1.1693172735795D+00 -6.4528781810919D-01
64  6.3000000000000D-01 -1.1245530000986D+00 -7.1346143095734D-01
65  6.4000000000000D-01 -1.0782205193539D+00 -7.8200467497458D-01
66  6.5000000000000D-01 -1.0304797017718D+00 -8.5060894312357D-01
67  6.6000000000000D-01 -9.8149666535103D-01 -9.1895802742111D-01
68  6.7000000000000D-01 -9.3144295737824D-01 -9.8673004582370D-01
69  6.8000000000000D-01 -8.8049452432831D-01 -1.0535998802487D+00
70  6.9000000000000D-01 -8.2883094808915D-01 -1.1192408425235D+00
71  7.0000000000000D-01 -7.7663446144621D-01 -1.1833269261954D+00
72  7.1000000000000D-01 -7.2408907454606D-01 -1.2455347408786D+00
73  7.2000000000000D-01 -6.7137930959998D-01 -1.3055463834536D+00
74  7.3000000000000D-01 -6.1868944072817D-01 -1.3630510239612D+00
75  7.4000000000000D-01 -5.6620245139998D-01 -1.4177471757826D+00
76  7.5000000000000D-01 -5.1409902838688D-01 -1.4693448441411D+00
77  7.6000000000000D-01 -4.6255657667956D-01 -1.5175675960592D+00
78  7.7000000000000D-01 -4.1174825228906D-01 -1.5621545602773D+00
79  7.8000000000000D-01 -3.6184208585208D-01 -1.6028621934316D+00
80  7.9000000000000D-01 -3.1299990565325D-01 -1.6394664669166D+00
81  8.0000000000000D-01 -2.6537656032279D-01 -1.6717643406812D+00
82  8.1000000000000D-01 -2.1911913435593D-01 -1.6995752308335D+00
83  8.2000000000000D-01 -1.7436613485216D-01 -1.7227425078527D+00
84  8.3000000000000D-01 -1.3124676966422D-01 -1.7411347574452D+00
85  8.4000000000000D-01 -8.9880286642568D-02 -1.7546468729518D+00
86  8.5000000000000D-01 -5.0375378713440D-02 -1.7632009692605D+00
87  8.6000000000000D-01 -1.2829659048545D-02 -1.7667471094814D+00
88  8.7000000000000D-01  2.2670789926726D-02 -1.7652638370258D+00
89  8.8000000000000D-01  5.6051790480789D-02 -1.7587585071911D+00
90  8.9000000000000D-01  8.7251363847521D-02 -1.7472674138973D+00
91  9.0000000000000D-01  1.1621994280024D-01 -1.7308557088586D+00
92  9.1000000000000D-01  1.4292044638402D-01 -1.7096170180595D+00
93  9.2000000000000D-01  1.6732837226587D-01 -1.6836730443561D+00
94  9.3000000000000D-01  1.8943195068552D-01 -1.6531731730985D+00
95  9.4000000000000D-01  2.0923174283629D-01 -1.6182930778704D+00
96  9.5000000000000D-01  2.2674054020719D-01 -1.5792338009158D+00
97  9.6000000000000D-01  2.4198307952827D-01 -1.5362204576346D+00
98  9.7000000000000D-01  2.5499567933402D-01 -1.4895007598493D+00
99  9.8000000000000D-01  2.6582580171540D-01 -1.4393433696922D+00
100  9.9000000000000D-01  2.7453154375054D-01 -1.3860360982215D+00
101  1.0000000000000D+00  2.8118094943854D-01 -1.3298840376160D+00
102  1.0100000000000D+00  2.8585177937182D-01 -1.2712075518738D+00
103  1.0200000000000D+00  2.8863043118944D-01 -1.2103397249471D+00
104  1.0300000000000D+00  2.8961121673301D-01 -1.1476241839236D+00
105  1.0400000000000D+00  2.8889561410472D-01 -1.0834127235399D+00
106  1.0500000000000D+00  2.8659145538044D-01 -1.0180630236542D+00
107  1.0600000000000D+00  2.8281222531627D-01 -9.5193688207879D-01
108  1.0700000000000D+00  2.7767575751516D-01 -8.8539489804157D-01
109  1.0800000000000D+00  2.7130349992655D-01 -8.1879625787905D-01
110  1.0900000000000D+00  2.6381957672313D-01 -7.5249559096889D-01
111  1.1000000000000D+00  2.5535023005418D-01 -6.8684193393863D-01
112  1.1100000000000D+00  2.4602225138309D-01 -6.2217336829130D-01
113  1.1200000000000D+00  2.3596176128376D-01 -5.5881407429175D-01
114  1.1300000000000D+00  2.2529397400994D-01 -4.9707464719978D-01
115  1.1400000000000D+00  2.1414275142087D-01 -4.3725110152900D-01
116  1.1500000000000D+00  2.0262848035889D-01 -3.7961819669432D-01
117  1.1600000000000D+00  1.9086672308989D-01 -3.2442621537359D-01
118  1.1700000000000D+00  1.7896889431799D-01 -2.7190402270202D-01
119  1.1800000000000D+00  1.6704262295105D-01 -2.2226044131756D-01
120  1.1900000000000D+00  1.5518618154279D-01 -1.7566749812336D-01
121  1.2000000000000D+00  1.4349137435376D-01 -1.3227053711501D-01
122  1.2100000000000D+00  1.3204383848724D-01 -9.2189290881361D-02
123  1.2200000000000D+00  1.2091988970493D-01 -5.5508864808375D-02
124  1.2300000000000D+00  1.1018459563990D-01 -2.2275198036795D-02
125  1.2400000000000D+00  9.9895751564305D-02  7.4930441067966D-03
126  1.2500000000000D+00  9.0101684890085D-02  3.3810752861093D-02
127  1.2600000000000D+00  8.0835625310966D-02  5.6741046504272D-02
128  1.2700000000000D+00  7.2124568018468D-02  7.6368046629809D-02
129  1.2800000000000D+00  6.3986522129934D-02  9.2804409250922D-02
130  1.2900000000000D+00  5.6429757702667D-02  1.0618457925375D-01
131  1.3000000000000D+00  4.9458616263409D-02  1.1665509205755D-01
132  1.3100000000000D+00  4.3070677133131D-02  1.2437914538113D-01
133  1.3200000000000D+00  3.7256048136609D-02  1.2953499290646D-01
134  1.3300000000000D+00  3.2001898884562D-02  1.3231030092152D-01
135  1.3400000000000D+00  2.7288982391384D-02  1.3290491461716D-01
136  1.3500000000000D+00  2.3093944928192D-02  1.3152522783933D-01
137  1.3600000000000D+00  1.9390969548071D-02  1.2838595364030D-01
138  1.3700000000000D+00  1.6149489340454D-02  1.2370399010566D-01
139  1.3800000000000D+00  1.3337682636949D-02  1.1769919778930D-01
140  1.3900000000000D+00  1.0921238564989D-02  1.1059474394399D-01
141  1.4000000000000D+00  8.8650582876114D-03  1.0260562517503D-01
142  1.4100000000000D+00  7.1327666877617D-03  9.3952452073139D-02
143  1.4200000000000D+00  5.6885826032069D-03  8.4841880236406D-02
144  1.4300000000000D+00  4.4971734784484D-03  7.5476948706997D-02
145  1.4400000000000D+00  3.5232904178634D-03  6.6056018120109D-02
146  1.4500000000000D+00  2.7357084814582D-03  5.6754235009062D-02
147  1.4600000000000D+00  2.1015543046180D-03  4.7754399380029D-02
148  1.4700000000000D+00  1.5950323229656D-03  3.9202639066509D-02
149  1.4800000000000D+00  1.1898161886970D-03  3.1248300018941D-02
150  1.4900000000000D+00  8.6487839231082D-04  2.4015000925493D-02
151  1.5000000000000D+00  6.0322040287930D-04  1.7608710140391D-02
152  1.5100000000000D+00  3.8955018099078D-04  1.2127357387131D-02
153  1.5200000000000D+00  2.1766362214400D-04  7.6294896892749D-03
154  1.5300000000000D+00  7.9015617613649D-05  4.1837850421339D-03
155  1.5400000000000D+00 -2.1466860953872D-05  1.8279131951567D-03
156  1.5500000000000D+00 -8.1786653169857D-05  6.3885544246339D-04
157  1.5600000000000D+00 -8.5902264671778D-05  1.3274542325309D-04
158  1.5700000000000D+00 -3.2492494496460D-05 -1.6107254196445D-05
159  1.5800000000000D+00  5.1605090674607D-06 -1.3227129098585D-05
160  1.5900000000000D+00  3.8519677614275D-06 -9.8731489854856D-06
161  1.6000000000000D+00  0.0000000000000D+00  0.0000000000000D+00
162  1.6100000000000D+00  0.0000000000000D+00  0.0000000000000D+00
163  1.6200000000000D+00  0.0000000000000D+00  0.0000000000000D+00
164  1.6300000000000D+00  0.0000000000000D+00  0.0000000000000D+00
165  1.6400000000000D+00  0.0000000000000D+00  0.0000000000000D+00
166  1.6500000000000D+00  0.0000000000000D+00  0.0000000000000D+00
167  1.6600000000000D+00  0.0000000000000D+00  0.0000000000000D+00
168  1.6700000000000D+00  0.0000000000000D+00  0.0000000000000D+00
169  1.6800000000000D+00  0.0000000000000D+00  0.0000000000000D+00
170  1.6900000000000D+00  0.0000000000000D+00  0.0000000000000D+00
171  1.7000000000000D+00  0.0000000000000D+00  0.0000000000000D+00
172  1.7100000000000D+00  0.0000000000000D+00  0.0000000000000D+00
173  1.7200000000000D+00  0.0000000000000D+00  0.0000000000000D+00
174  1.7300000000000D+00  0.0000000000000D+00  0.0000000000000D+00
175  1.7400000000000D+00  0.0000000000000D+00  0.0000000000000D+00
176  1.7500000000000D+00  0.0000000000000D+00  0.0000000000000D+00
177  1.7600000000000D+00  0.0000000000000D+00  0.0000000000000D+00
178  1.7700000000000D+00  0.0000000000000D+00  0.0000000000000D+00
179  1.7800000000000D+00  0.0000000000000D+00  0.0000000000000D+00
180  1.7900000000000D+00  0.0000000000000D+00  0.0000000000000D+00
181  1.8000000000000D+00  0.0000000000000D+00  0.0000000000000D+00
182  1.8100000000000D+00  0.0000000000000D+00  0.0000000000000D+00
183  1.8200000000000D+00  0.0000000000000D+00  0.0000000000000D+00
184  1.8300000000000D+00  0.0000000000000D+00  0.0000000000000D+00
185  1.8400000000000D+00  0.0000000000000D+00  0.0000000000000D+00
186  1.8500000000000D+00  0.0000000000000D+00  0.0000000000000D+00
187  1.8600000000000D+00  0.0000000000000D+00  0.0000000000000D+00
188  1.8700000000000D+00  0.0000000000000D+00  0.0000000000000D+00
189  1.8800000000000D+00  0.0000000000000D+00  0.0000000000000D+00
190  1.8900000000000D+00  0.0000000000000D+00  0.0000000000000D+00
191  1.9000000000000D+00  0.0000000000000D+00  0.0000000000000D+00
192  1.9100000000000D+00  0.0000000000000D+00  0.0000000000000D+00
193  1.9200000000000D+00  0.0000000000000D+00  0.0000000000000D+00
194  1.9300000000000D+00  0.0000000000000D+00  0.0000000000000D+00
195  1.9400000000000D+00  0.0000000000000D+00  0.0000000000000D+00
196  1.9500000000000D+00  0.0000000000000D+00  0.0000000000000D+00
197  1.9600000000000D+00  0.0000000000000D+00  0.0000000000000D+00
198  1.9700000000000D+00  0.0000000000000D+00  0.0000000000000D+00
199  1.9800000000000D+00  0.0000000000000D+00  0.0000000000000D+00
200  1.9900000000000D+00  0.0000000000000D+00  0.0000000000000D+00
201  2.0000000000000D+00  0.0000000000000D+00  0.0000000000000D+00
202  2.0100000000000D+00  0.0000000000000D+00  0.0000000000000D+00
203  2.0200000000000D+00  0.0000000000000D+00  0.0000000000000D+00
204  2.0300000000000D+00  0.0000000000000D+00  0.0000000000000D+00
205  2.0400000000000D+00  0.0000000000000D+00  0.0000000000000D+00
206  2.0500000000000D+00  0.0000000000000D+00  0.0000000000000D+00
207  2.0600000000000D+00  0.0000000000000D+00  0.0000000000000D+00
208  2.0700000000000D+00  0.0000000000000D+00  0.0000000000000D+00
209  2.0800000000000D+00  0.0000000000000D+00  0.0000000000000D+00
210  2.0900000000000D+00  0.0000000000000D+00  0.0000000000000D+00
211  2.1000000000000D+00  0.0000000000000D+00  0.0000000000000D+00
212  2.1100000000000D+00  0.0000000000000D+00  0.0000000000000D+00
213  2.1200000000000D+00  0.0000000000000D+00  0.0000000000000D+00
214  2.1300000000000D+00  0.0000000000000D+00  0.0000000000000D+00
215  2.1400000000000D+00  0.0000000000000D+00  0.0000000000000D+00
216  2.1500000000000D+00  0.0000000000000D+00  0.0000000000000D+00
217  2.1600000000000D+00  0.0000000000000D+00  0.0000000000000D+00
218  2.1700000000000D+00  0.0000000000000D+00  0.0000000000000D+00
219  2.1800000000000D+00  0.0000000000000D+00  0.0000000000000D+00
220  2.1900000000000D+00  0.0000000000000D+00  0.0000000000000D+00
221  2.2000000000000D+00  0.0000000000000D+00  0.0000000000000D+00
222  2.2100000000000D+00  0.0000000000000D+00  0.0000000000000D+00
223  2.2200000000000D+00  0.0000000000000D+00  0.0000000000000D+00
224  2.2300000000000D+00  0.0000000000000D+00  0.0000000000000D+00
225  2.2400000000000D+00  0.0000000000000D+00  0.0000000000000D+00
226  2.2500000000000D+00  0.0000000000000D+00  0.0000000000000D+00
227  2.2600000000000D+00  0.0000000000000D+00  0.0000000000000D+00
228  2.2700000000000D+00  0.0000000000000D+00  0.0000000000000D+00
229  2.2800000000000D+00  0.0000000000000D+00  0.0000000000000D+00
230  2.2900000000000D+00  0.0000000000000D+00  0.0000000000000D+00
231  2.3000000000000D+00  0.0000000000000D+00  0.0000000000000D+00
232  2.3100000000000D+00  0.0000000000000D+00  0.0000000000000D+00
233  2.3200000000000D+00  0.0000000000000D+00  0.0000000000000D+00
234  2.3300000000000D+00  0.0000000000000D+00  0.0000000000000D+00
235  2.3400000000000D+00  0.0000000000000D+00  0.0000000000000D+00
236  2.3500000000000D+00  0.0000000000000D+00  0.0000000000000D+00
237  2.3600000000000D+00  0.0000000000000D+00  0.0000000000000D+00
238  2.3700000000000D+00  0.0000000000000D+00  0.0000000000000D+00
239  2.3800000000000D+00  0.0000000000000D+00  0.0000000000000D+00
240  2.3900000000000D+00  0.0000000000000D+00  0.0000000000000D+00
241  2.4000000000000D+00  0.0000000000000D+00  0.0000000000000D+00
242  2.4100000000000D+00  0.0000000000000D+00  0.0000000000000D+00
243  2.4200000000000D+00  0.0000000000000D+00  0.0000000000000D+00
244  2.4300000000000D+00  0.0000000000000D+00  0.0000000000000D+00
245  2.4400000000000D+00  0.0000000000000D+00  0.0000000000000D+00
246  2.4500000000000D+00  0.0000000000000D+00  0.0000000000000D+00
247  2.4600000000000D+00  0.0000000000000D+00  0.0000000000000D+00
248  2.4700000000000D+00  0.0000000000000D+00  0.0000000000000D+00
249  2.4800000000000D+00  0.0000000000000D+00  0.0000000000000D+00
250  2.4900000000000D+00  0.0000000000000D+00  0.0000000000000D+00
251  2.5000000000000D+00  0.0000000000000D+00  0.0000000000000D+00
252  2.5100000000000D+00  0.0000000000000D+00  0.0000000000000D+00
253  2.5200000000000D+00  0.0000000000000D+00  0.0000000000000D+00
254  2.5300000000000D+00  0.0000000000000D+00  0.0000000000000D+00
255  2.5400000000000D+00  0.0000000000000D+00  0.0000000000000D+00
256  2.5500000000000D+00  0.0000000000000D+00  0.0000000000000D+00
257  2.5600000000000D+00  0.0000000000000D+00  0.0000000000000D+00
258  2.5700000000000D+00  0.0000000000000D+00  0.0000000000000D+00
259  2.5800000000000D+00  0.0000000000000D+00  0.0000000000000D+00
260  2.5900000000000D+00  0.0000000000000D+00  0.0000000000000D+00
261  2.6000000000000D+00  0.0000000000000D+00  0.0000000000000D+00
262  2.6100000000000D+00  0.0000000000000D+00  0.0000000000000D+00
263  2.6200000000000D+00  0.0000000000000D+00  0.0000000000000D+00
264  2.6300000000000D+00  0.0000000000000D+00  0.0000000000000D+00
265  2.6400000000000D+00  0.0000000000000D+00  0.0000000000000D+00
266  2.6500000000000D+00  0.0000000000000D+00  0.0000000000000D+00
267  2.6600000000000D+00  0.0000000000000D+00  0.0000000000000D+00
268  2.6700000000000D+00  0.0000000000000D+00  0.0000000000000D+00
269  2.6800000000000D+00  0.0000000000000D+00  0.0000000000000D+00
270  2.6900000000000D+00  0.0000000000000D+00  0.0000000000000D+00
271  2.7000000000000D+00  0.0000000000000D+00  0.0000000000000D+00
272  2.7100000000000D+00  0.0000000000000D+00  0.0000000000000D+00
273  2.7200000000000D+00  0.0000000000000D+00  0.0000000000000D+00
274  2.7300000000000D+00  0.0000000000000D+00  0.0000000000000D+00
275  2.7400000000000D+00  0.0000000000000D+00  0.0000000000000D+00
276  2.7500000000000D+00  0.0000000000000D+00  0.0000000000000D+00
277  2.7600000000000D+00  0.0000000000000D+00  0.0000000000000D+00
278  2.7700000000000D+00  0.0000000000000D+00  0.0000000000000D+00
279  2.7800000000000D+00  0.0000000000000D+00  0.0000000000000D+00
280  2.7900000000000D+00  0.0000000000000D+00  0.0000000000000D+00
281  2.8000000000000D+00  0.0000000000000D+00  0.0000000000000D+00
282  2.8100000000000D+00  0.0000000000000D+00  0.0000000000000D+00
283  2.8200000000000D+00  0.0000000000000D+00  0.0000000000000D+00
284  2.8300000000000D+00  0.0000000000000D+00  0.0000000000000D+00
285  2.8400000000000D+00  0.0000000000000D+00  0.0000000000000D+00
286  2.8500000000000D+00  0.0000000000000D+00  0.0000000000000D+00
287  2.8600000000000D+00  0.0000000000000D+00  0.0000000000000D+00
288  2.8700000000000D+00  0.0000000000000D+00  0.0000000000000D+00
289  2.8800000000000D+00  0.0000000000000D+00  0.0000000000000D+00
290  2.8900000000000D+00  0.0000000000000D+00  0.0000000000000D+00
291  2.9000000000000D+00  0.0000000000000D+00  0.0000000000000D+00
292  2.9100000000000D+00  0.0000000000000D+00  0.0000000000000D+00
293  2.9200000000000D+00  0.0000000000000D+00  0.0000000000000D+00
294  2.9300000000000D+00  0.0000000000000D+00  0.0000000000000D+00
295  2.9400000000000D+00  0.0000000000000D+00  0.0000000000000D+00
296  2.9500000000000D+00  0.0000000000000D+00  0.0000000000000D+00
297  2.9600000000000D+00  0.0000000000000D+00  0.0000000000000D+00
298  2.9700000000000D+00  0.0000000000000D+00  0.0000000000000D+00
299  2.9800000000000D+00  0.0000000000000D+00  0.0000000000000D+00
300  2.9900000000000D+00  0.0000000000000D+00  0.0000000000000D+00
301  3.0000000000000D+00  0.0000000000000D+00  0.0000000000000D+00
302  3.0100000000000D+00  0.0000000000000D+00  0.0000000000000D+00
303  3.0200000000000D+00  0.0000000000000D+00  0.0000000000000D+00
304  3.0300000000000D+00  0.0000000000000D+00  0.0000000000000D+00
305  3.0400000000000D+00  0.0000000000000D+00  0.0000000000000D+00
306  3.0500000000000D+00  0.0000000000000D+00  0.0000000000000D+00
307  3.0600000000000D+00  0.0000000000000D+00  0.0000000000000D+00
308  3.0700000000000D+00  0.0000000000000D+00  0.0000000000000D+00
309  3.0800000000000D+00  0.0000000000000D+00  0.0000000000000D+00
310  3.0900000000000D+00  0.0000000000000D+00  0.0000000000000D+00
311  3.1000000000000D+00  0.0000000000000D+00  0.0000000000000D+00
312  3.1100000000000D+00  0.0000000000000D+00  0.0000000000000D+00
313  3.1200000000000D+00  0.0000000000000D+00  0.0000000000000D+00
314  3.1300000000000D+00  0.0000000000000D+00  0.0000000000000D+00
315  3.1400000000000D+00  0.0000000000000D+00  0.0000000000000D+00
316  3.1500000000000D+00  0.0000000000000D+00  0.0000000000000D+00
317  3.1600000000000D+00  0.0000000000000D+00  0.0000000000000D+00
318  3.1700000000000D+00  0.0000000000000D+00  0.0000000000000D+00
319  3.1800000000000D+00  0.0000000000000D+00  0.0000000000000D+00
320  3.1900000000000D+00  0.0000000000000D+00  0.0000000000000D+00
321  3.2000000000000D+00  0.0000000000000D+00  0.0000000000000D+00
322  3.2100000000000D+00  0.0000000000000D+00  0.0000000000000D+00
323  3.2200000000000D+00  0.0000000000000D+00  0.0000000000000D+00
324  3.2300000000000D+00  0.0000000000000D+00  0.0000000000000D+00
325  3.2400000000000D+00  0.0000000000000D+00  0.0000000000000D+00
326  3.2500000000000D+00  0.0000000000000D+00  0.0000000000000D+00
327  3.2600000000000D+00  0.0000000000000D+00  0.0000000000000D+00
328  3.2700000000000D+00  0.0000000000000D+00  0.0000000000000D+00
329  3.2800000000000D+00  0.0000000000000D+00  0.0000000000000D+00
330  3.2900000000000D+00  0.0000000000000D+00  0.0000000000000D+00
331  3.3000000000000D+00  0.0000000000000D+00  0.0000000000000D+00
332  3.3100000000000D+00  0.0000000000000D+00  0.0000000000000D+00
333  3.3200000000000D+00  0.0000000000000D+00  0.0000000000000D+00
334  3.3300000000000D+00  0.0000000000000D+00  0.0000000000000D+00
335  3.3400000000000D+00  0.0000000000000D+00  0.0000000000000D+00
336  3.3500000000000D+00  0.0000000000000D+00  0.0000000000000D+00
337  3.3600000000000D+00  0.0000000000000D+00  0.0000000000000D+00
338  3.3700000000000D+00  0.0000000000000D+00  0.0000000000000D+00
339  3.3800000000000D+00  0.0000000000000D+00  0.0000000000000D+00
340  3.3900000000000D+00  0.0000000000000D+00  0.0000000000000D+00
341  3.4000000000000D+00  0.0000000000000D+00  0.0000000000000D+00
342  3.4100000000000D+00  0.0000000000000D+00  0.0000000000000D+00
343  3.4200000000000D+00  0.0000000000000D+00  0.0000000000000D+00
344  3.4300000000000D+00  0.0000000000000D+00  0.0000000000000D+00
345  3.4400000000000D+00  0.0000000000000D+00  0.0000000000000D+00
346  3.4500000000000D+00  0.0000000000000D+00  0.0000000000000D+00
347  3.4600000000000D+00  0.0000000000000D+00  0.0000000000000D+00
348  3.4700000000000D+00  0.0000000000000D+00  0.0000000000000D+00
349  3.4800000000000D+00  0.0000000000000D+00  0.0000000000000D+00
350  3.4900000000000D+00  0.0000000000000D+00  0.0000000000000D+00
351  3.5000000000000D+00  0.0000000000000D+00  0.0000000000000D+00
352  3.5100000000000D+00  0.0000000000000D+00  0.0000000000000D+00
353  3.5200000000000D+00  0.0000000000000D+00  0.0000000000000D+00
354  3.5300000000000D+00  0.0000000000000D+00  0.0000000000000D+00
355  3.5400000000000D+00  0.0000000000000D+00  0.0000000000000D+00
356  3.5500000000000D+00  0.0000000000000D+00  0.0000000000000D+00
357  3.5600000000000D+00  0.0000000000000D+00  0.0000000000000D+00
358  3.5700000000000D+00  0.0000000000000D+00  0.0000000000000D+00
359  3.5800000000000D+00  0.0000000000000D+00  0.0000000000000D+00
360  3.5900000000000D+00  0.0000000000000D+00  0.0000000000000D+00
361  3.6000000000000D+00  0.0000000000000D+00  0.0000000000000D+00
362  3.6100000000000D+00  0.0000000000000D+00  0.0000000000000D+00
363  3.6200000000000D+00  0.0000000000000D+00  0.0000000000000D+00
364  3.6300000000000D+00  0.0000000000000D+00  0.0000000000000D+00
365  3.6400000000000D+00  0.0000000000000D+00  0.0000000000000D+00
366  3.6500000000000D+00  0.0000000000000D+00  0.0000000000000D+00
367  3.6600000000000D+00  0.0000000000000D+00  0.0000000000000D+00
368  3.6700000000000D+00  0.0000000000000D+00  0.0000000000000D+00
369  3.6800000000000D+00  0.0000000000000D+00  0.0000000000000D+00
370  3.6900000000000D+00  0.0000000000000D+00  0.0000000000000D+00
371  3.7000000000000D+00  0.0000000000000D+00  0.0000000000000D+00
372  3.7100000000000D+00  0.0000000000000D+00  0.0000000000000D+00
373  3.7200000000000D+00  0.0000000000000D+00  0.0000000000000D+00
374  3.7300000000000D+00  0.0000000000000D+00  0.0000000000000D+00
375  3.7400000000000D+00  0.0000000000000D+00  0.0000000000000D+00
376  3.7500000000000D+00  0.0000000000000D+00  0.0000000000000D+00
377  3.7600000000000D+00  0.0000000000000D+00  0.0000000000000D+00
378  3.7700000000000D+00  0.0000000000000D+00  0.0000000000000D+00
379  3.7800000000000D+00  0.0000000000000D+00  0.0000000000000D+00
380  3.7900000000000D+00  0.0000000000000D+00  0.0000000000000D+00
381  3.8000000000000D+00  0.0000000000000D+00  0.0000000000000D+00
382  3.8100000000000D+00  0.0000000000000D+00  0.0000000000000D+00
383  3.8200000000000D+00  0.0000000000000D+00  0.0000000000000D+00
384  3.8300000000000D+00  0.0000000000000D+00  0.0000000000000D+00
385  3.8400000000000D+00  0.0000000000000D+00  0.0000000000000D+00
386  3.8500000000000D+00  0.0000000000000D+00  0.0000000000000D+00
387  3.8600000000000D+00  0.0000000000000D+00  0.0000000000000D+00
388  3.8700000000000D+00  0.0000000000000D+00  0.0000000000000D+00
389  3.8800000000000D+00  0.0000000000000D+00  0.0000000000000D+00
390  3.8900000000000D+00  0.0000000000000D+00  0.0000000000000D+00
391  3.9000000000000D+00  0.0000000000000D+00  0.0000000000000D+00
392  3.9100000000000D+00  0.0000000000000D+00  0.0000000000000D+00
393  3.9200000000000D+00  0.0000000000000D+00  0.0000000000000D+00
394  3.9300000000000D+00  0.0000000000000D+00  0.0000000000000D+00
395  3.9400000000000D+00  0.0000000000000D+00  0.0000000000000D+00
396  3.9500000000000D+00  0.0000000000000D+00  0.0000000000000D+00
397  3.9600000000000D+00  0.0000000000000D+00  0.0000000000000D+00
398  3.9700000000000D+00  0.0000000000000D+00  0.0000000000000D+00
399  3.9800000000000D+00  0.0000000000000D+00  0.0000000000000D+00
400  3.9900000000000D+00  0.0000000000000D+00  0.0000000000000D+00
401  4.0000000000000D+00  0.0000000000000D+00  0.0000000000000D+00
402  4.0100000000000D+00  0.0000000000000D+00  0.0000000000000D+00
403  4.0200000000000D+00  0.0000000000000D+00  0.0000000000000D+00
404  4.0300000000000D+00  0.0000000000000D+00  0.0000000000000D+00
405  4.0400000000000D+00  0.0000000000000D+00  0.0000000000000D+00
406  4.0500000000000D+00  0.0000000000000D+00  0.0000000000000D+00
407  4.0600000000000D+00  0.0000000000000D+00  0.0000000000000D+00
408  4.0700000000000D+00  0.0000000000000D+00  0.0000000000000D+00
409  4.0800000000000D+00  0.0000000000000D+00  0.0000000000000D+00
410  4.0900000000000D+00  0.0000000000000D+00  0.0000000000000D+00
411  4.1000000000000D+00  0.0000000000000D+00  0.0000000000000D+00
412  4.1100000000000D+00  0.0000000000000D+00  0.0000000000000D+00
413  4.1200000000000D+00  0.0000000000000D+00  0.0000000000000D+00
414  4.1300000000000D+00  0.0000000000000D+00  0.0000000000000D+00
415  4.1400000000000D+00  0.0000000000000D+00  0.0000000000000D+00
416  4.1500000000000D+00  0.0000000000000D+00  0.0000000000000D+00
417  4.1600000000000D+00  0.0000000000000D+00  0.0000000000000D+00
418  4.1700000000000D+00  0.0000000000000D+00  0.0000000000000D+00
419  4.1800000000000D+00  0.0000000000000D+00  0.0000000000000D+00
420  4.1900000000000D+00  0.0000000000000D+00  0.0000000000000D+00
421  4.2000000000000D+00  0.0000000000000D+00  0.0000000000000D+00
422  4.2100000000000D+00  0.0000000000000D+00  0.0000000000000D+00
423  4.2200000000000D+00  0.0000000000000D+00  0.0000000000000D+00
424  4.2300000000000D+00  0.0000000000000D+00  0.0000000000000D+00
425  4.2400000000000D+00  0.0000000000000D+00  0.0000000000000D+00
426  4.2500000000000D+00  0.0000000000000D+00  0.0000000000000D+00
427  4.2600000000000D+00  0.0000000000000D+00  0.0000000000000D+00
428  4.2700000000000D+00  0.0000000000000D+00  0.0000000000000D+00
429  4.2800000000000D+00  0.0000000000000D+00  0.0000000000000D+00
430  4.2900000000000D+00  0.0000000000000D+00  0.0000000000000D+00
431  4.3000000000000D+00  0.0000000000000D+00  0.0000000000000D+00
432  4.3100000000000D+00  0.0000000000000D+00  0.0000000000000D+00
433  4.3200000000000D+00  0.0000000000000D+00  0.0000000000000D+00
434  4.3300000000000D+00  0.0000000000000D+00  0.0000000000000D+00
435  4.3400000000000D+00  0.0000000000000D+00  0.0000000000000D+00
436  4.3500000000000D+00  0.0000000000000D+00  0.0000000000000D+00
437  4.3600000000000D+00  0.0000000000000D+00  0.0000000000000D+00
438  4.3700000000000D+00  0.0000000000000D+00  0.0000000000000D+00
439  4.3800000000000D+00  0.0000000000000D+00  0.0000000000000D+00
440  4.3900000000000D+00  0.0000000000000D+00  0.0000000000000D+00
441  4.4000000000000D+00  0.0000000000000D+00  0.0000000000000D+00
442  4.4100000000000D+00  0.0000000000000D+00  0.0000000000000D+00
443  4.4200000000000D+00  0.0000000000000D+00  0.0000000000000D+00