Ta    ONCVPSP  r_core=  1.56  1.56  1.56
73.0000     13.0000      140903    zatom,zion,pspd
8    11     2     4   601     0    pspcod,pspxc,lmax,lloc,mmax,r2well
6.00000000  0.50000000  0.00000000    rchrg fchrg qchrg
2     2     2     0     0    nproj
0                 extension_switch
0                         1.6313282638938D+01  1.5668598726479D+00
1  0.0000000000000D+00 -0.0000000000000D+00  0.0000000000000D+00
2  1.0000000000000D-02 -6.2284998483982D-02  1.0836634993898D-02
3  2.0000000000000D-02 -1.2449637674689D-01  2.1688114170520D-02
4  3.0000000000000D-02 -1.8656028009206D-01  3.2568396440086D-02
5  4.0000000000000D-02 -2.4840238884217D-01  4.3489680212909D-02
6  5.0000000000000D-02 -3.0994769573857D-01  5.4461548173713D-02
7  6.0000000000000D-02 -3.7112029510479D-01  6.5490141836132D-02
8  7.0000000000000D-02 -4.3184318752595D-01  7.6577375396906D-02
9  8.0000000000000D-02 -4.9203810364882D-01  8.7720198052492D-02
10  9.0000000000000D-02 -5.5162535053072D-01  9.8909913517980D-02
11  1.0000000000000D-01 -6.1052368375586D-01  1.1013156498991D-01
12  1.1000000000000D-01 -6.6865020828582D-01  1.2136339316289D-01
13  1.2000000000000D-01 -7.2592031075807D-01  1.3257637434537D-01
14  1.3000000000000D-01 -7.8224762562767D-01  1.4373384490400D-01
15  1.4000000000000D-01 -8.3754403723813D-01  1.5479121754115D-01
16  1.5000000000000D-01 -8.9171971955960D-01  1.6569579411364D-01
17  1.6000000000000D-01 -9.4468321496628D-01  1.7638667867346D-01
18  1.7000000000000D-01 -9.9634155305172D-01  1.8679479374374D-01
19  1.8000000000000D-01 -1.0466004100889D+00  1.9684300163720D-01
20  1.9000000000000D-01 -1.0953643092474D+00  2.0644633176825D-01
21  2.0000000000000D-01 -1.1425368616636D+00  2.1551231408209D-01
22  2.1000000000000D-01 -1.1880210470536D+00  2.2394141705006D-01
23  2.2000000000000D-01 -1.2317195338570D+00  2.3162758905273D-01
24  2.3000000000000D-01 -1.2735350363244D+00  2.3845889895995D-01
25  2.4000000000000D-01 -1.3133707080781D+00  2.4431827371383D-01
26  2.5000000000000D-01 -1.3511305677500D+00  2.4908432458975D-01
27  2.6000000000000D-01 -1.3867199573116D+00  2.5263226152191D-01
28  2.7000000000000D-01 -1.4200460254021D+00  2.5483488057458D-01
29  2.8000000000000D-01 -1.4510182391113D+00  2.5556362917364D-01
30  2.9000000000000D-01 -1.4795489132448D+00  2.5468972728184D-01
31  3.0000000000000D-01 -1.5055537575049D+00  2.5208534326484D-01
32  3.1000000000000D-01 -1.5289524360780D+00  2.4762481226200D-01
33  3.2000000000000D-01 -1.5496691397985D+00  2.4118589637844D-01
34  3.3000000000000D-01 -1.5676331550906D+00  2.3265105275319D-01
35  3.4000000000000D-01 -1.5827794306795D+00  2.2190870934196D-01
36  3.5000000000000D-01 -1.5950491582552D+00  2.0885458298360D-01
37  3.6000000000000D-01 -1.6043903060201D+00  1.9339290719104D-01
38  3.7000000000000D-01 -1.6107581749769D+00  1.7543771908135D-01
39  3.8000000000000D-01 -1.6141159103209D+00  1.5491405841769D-01
40  3.9000000000000D-01 -1.6144349895234D+00  1.3175912383089D-01
41  4.0000000000000D-01 -1.6116956845847D+00  1.0592338022335D-01
42  4.1000000000000D-01 -1.6058874942083D+00  7.7371607836399D-02
43  4.2000000000000D-01 -1.5970095258705D+00  4.6083846888699D-02
44  4.3000000000000D-01 -1.5850708349245D+00  1.2056252895131D-02
45  4.4000000000000D-01 -1.5700907192683D+00 -2.4698140838281D-02
46  4.5000000000000D-01 -1.5520989570575D+00 -6.4148782965218D-02
47  4.6000000000000D-01 -1.5311359952343D+00 -1.0624706813792D-01
48  4.7000000000000D-01 -1.5072530797447D+00 -1.5092592625477D-01
49  4.8000000000000D-01 -1.4805123124659D+00 -1.9809957387539D-01
50  4.9000000000000D-01 -1.4509866529783D+00 -2.4766338445047D-01
51  5.0000000000000D-01 -1.4187598433020D+00 -2.9949393298086D-01
52  5.1000000000000D-01 -1.3839263044230D+00 -3.5344908650827D-01
53  5.2000000000000D-01 -1.3465909131938D+00 -4.0936837466000D-01
54  5.3000000000000D-01 -1.3068687257521D+00 -4.6707348712526D-01
55  5.4000000000000D-01 -1.2648846722441D+00 -5.2636879135951D-01
56  5.5000000000000D-01 -1.2207731215687D+00 -5.8704219784026D-01
57  5.6000000000000D-01 -1.1746774306638D+00 -6.4886601216414D-01
58  5.7000000000000D-01 -1.1267493979513D+00 -7.1159802102574D-01
59  5.8000000000000D-01 -1.0771486773813D+00 -7.7498266452006D-01
60  5.9000000000000D-01 -1.0260421171976D+00 -8.3875237085739D-01
61  6.0000000000000D-01 -9.7360302656942D-01 -9.0262903832271D-01
62  6.1000000000000D-01 -9.2001049996740D-01 -9.6632544363354D-01
63  6.2000000000000D-01 -8.6544843221187D-01 -1.0295472185016D+00
64  6.3000000000000D-01 -8.1010486691266D-01 -1.0919942397398D+00
65  6.4000000000000D-01 -7.5417099155534D-01 -1.1533626755145D+00
66  6.5000000000000D-01 -6.9784014653162D-01 -1.2133470273761D+00
67  6.6000000000000D-01 -6.4130703936695D-01 -1.2716417752278D+00
68  6.7000000000000D-01 -5.8476676449525D-01 -1.3279433949063D+00
69  6.8000000000000D-01 -5.2841354231235D-01 -1.3819529372520D+00
70  6.9000000000000D-01 -4.7244002719055D-01 -1.4333774763424D+00
71  7.0000000000000D-01 -4.1703622571215D-01 -1.4819323207373D+00
72  7.1000000000000D-01 -3.6238863859607D-01 -1.5273427712168D+00
73  7.2000000000000D-01 -3.0867888848058D-01 -1.5693468996475D+00
74  7.3000000000000D-01 -2.5608311477953D-01 -1.6076967770252D+00
75  7.4000000000000D-01 -2.0477097576555D-01 -1.6421604735360D+00
76  7.5000000000000D-01 -1.5490473812703D-01 -1.6725238669344D+00
77  7.6000000000000D-01 -1.0663842156481D-01 -1.6985923219221D+00
78  7.7000000000000D-01 -6.0116990094059D-02 -1.7201922553950D+00
79  7.8000000000000D-01 -1.5475667327515D-02 -1.7371724332569D+00
80  7.9000000000000D-01  2.7160945292182D-02 -1.7494056321339D+00
81  8.0000000000000D-01  6.7679390425747D-02 -1.7567895591789D+00
82  8.1000000000000D-01  1.0597787624814D-01 -1.7592477464982D+00
83  8.2000000000000D-01  1.4196680858272D-01 -1.7567304369109D+00
84  8.3000000000000D-01  1.7556920685267D-01 -1.7492152099641D+00
85  8.4000000000000D-01  2.0672103991247D-01 -1.7367074191505D+00
86  8.5000000000000D-01  2.3537147900911D-01 -1.7192404346420D+00
87  8.6000000000000D-01  2.6148306572505D-01 -1.6968756873341D+00
88  8.7000000000000D-01  2.8503179338107D-01 -1.6697025115379D+00
89  8.8000000000000D-01  3.0600710102704D-01 -1.6378377852480D+00
90  8.9000000000000D-01  3.2441177982538D-01 -1.6014253685843D+00
91  9.0000000000000D-01  3.4026179233613D-01 -1.5606353427261D+00
92  9.1000000000000D-01  3.5358596953322D-01 -1.5156630009897D+00
93  9.2000000000000D-01  3.6442570342820D-01 -1.4667277865840D+00
94  9.3000000000000D-01  3.7283462870829D-01 -1.4140721034883D+00
95  9.4000000000000D-01  3.7887792171146D-01 -1.3579595302309D+00
96  9.5000000000000D-01  3.8263178751859D-01 -1.2986732623575D+00
97  9.6000000000000D-01  3.8418280314231D-01 -1.2365142881320D+00
98  9.7000000000000D-01  3.8362719584061D-01 -1.1717994262001D+00
99  9.8000000000000D-01  3.8107006296044D-01 -1.1048592417872D+00
100  9.9000000000000D-01  3.7662454053700D-01 -1.0360358598865D+00
101  1.0000000000000D+00  3.7041099754639D-01 -9.6568108244420D-01
102  1.0100000000000D+00  3.6255604163786D-01 -8.9415324794511D-01
103  1.0200000000000D+00  3.5319149119344D-01 -8.2181504503846D-01
104  1.0300000000000D+00  3.4245346006229D-01 -7.4903123994689D-01
105  1.0400000000000D+00  3.3048136002499D-01 -6.7616613383691D-01
106  1.0500000000000D+00  3.1741698155013D-01 -6.0358136101787D-01
107  1.0600000000000D+00  3.0340381048668D-01 -5.3163436630118D-01
108  1.0700000000000D+00  2.8858475739435D-01 -4.6067203801506D-01
109  1.0800000000000D+00  2.7310231174369D-01 -3.9103211948790D-01
110  1.0900000000000D+00  2.5709729110292D-01 -3.2303993285167D-01
111  1.1000000000000D+00  2.4070853372135D-01 -2.5700794748483D-01
112  1.1100000000000D+00  2.2407077618301D-01 -1.9323017333238D-01
113  1.1200000000000D+00  2.0731368739455D-01 -1.3198014215174D-01
114  1.1300000000000D+00  1.9056219170173D-01 -7.3512250110155D-02
115  1.1400000000000D+00  1.7393618468569D-01 -1.8061238509177D-02
116  1.1500000000000D+00  1.5754807543178D-01  3.4164042808828D-02
117  1.1600000000000D+00  1.4150188031104D-01  8.2982414302373D-02
118  1.1700000000000D+00  1.2589461390648D-01  1.2823636028521D-01
119  1.1800000000000D+00  1.1081685226512D-01  1.6979048023397D-01
120  1.1900000000000D+00  9.6346985921814D-02  2.0754563695025D-01
121  1.2000000000000D+00  8.2555269946499D-02  2.4142813997631D-01
122  1.2100000000000D+00  6.9504281576553D-02  2.7138851296019D-01
123  1.2200000000000D+00  5.7246078437097D-02  2.9740819111540D-01
124  1.2300000000000D+00  4.5821360210572D-02  3.1950076957415D-01
125  1.2400000000000D+00  3.5263519452481D-02  3.3770206883380D-01
126  1.2500000000000D+00  2.5596798483241D-02  3.5207441584281D-01
127  1.2600000000000D+00  1.6832900140274D-02  3.6271340652628D-01
128  1.2700000000000D+00  8.9772107002899D-03  3.6973346567115D-01
129  1.2800000000000D+00  2.0267268521962D-03  3.7327253360860D-01
130  1.2900000000000D+00 -4.0330052043478D-03  3.7349712141233D-01
131  1.3000000000000D+00 -9.2214401180393D-03  3.7058862280256D-01
132  1.3100000000000D+00 -1.3566039911133D-02  3.6474932749451D-01
133  1.3200000000000D+00 -1.7102691066358D-02  3.5620094853568D-01
134  1.3300000000000D+00 -1.9871107603728D-02  3.4517685618521D-01
135  1.3400000000000D+00 -2.1918166126127D-02  3.3192637262845D-01
136  1.3500000000000D+00 -2.3295212648094D-02  3.1670788721763D-01
137  1.3600000000000D+00 -2.4056877187442D-02  2.9979009685537D-01
138  1.3700000000000D+00 -2.4262253651012D-02  2.8144638705654D-01
139  1.3800000000000D+00 -2.3972008470811D-02  2.6195433233372D-01
140  1.3900000000000D+00 -2.3249475685506D-02  2.4159651189719D-01
141  1.4000000000000D+00 -2.2157777099903D-02  2.2064784216722D-01
142  1.4100000000000D+00 -2.0761959780588D-02  1.9939023256325D-01
143  1.4200000000000D+00 -1.9124997067307D-02  1.7809146532596D-01
144  1.4300000000000D+00 -1.7309245347780D-02  1.5701621620377D-01
145  1.4400000000000D+00 -1.5376566998092D-02  1.3642492454260D-01
146  1.4500000000000D+00 -1.3382979210839D-02  1.1655375873367D-01
147  1.4600000000000D+00 -1.1386928985968D-02  9.7647981900409D-02
148  1.4700000000000D+00 -9.4371182940375D-03  7.9914351273350D-02
149  1.4800000000000D+00 -7.5833774534982D-03  6.3564185117154D-02
150  1.4900000000000D+00 -5.8687617262038D-03  4.8782689462136D-02
151  1.5000000000000D+00 -4.3314566545315D-03  3.5737169685128D-02
152  1.5100000000000D+00 -3.0089736012216D-03  2.4591396360279D-02
153  1.5200000000000D+00 -1.9224945933375D-03  1.5452373190415D-02
154  1.5300000000000D+00 -1.0988285331935D-03  8.4461789012428D-03
155  1.5400000000000D+00 -5.4267215815072D-04  3.6521182155219D-03
156  1.5500000000000D+00 -2.7261358995208D-04  1.2246260568986D-03
157  1.5600000000000D+00 -1.3362563505792D-04  2.0609436107783D-04
158  1.5700000000000D+00 -3.1724740591546D-05 -5.5087618294413D-05
159  1.5800000000000D+00  9.5179691899066D-06 -2.2918251407335D-05
160  1.5900000000000D+00  7.1045143016911D-06 -1.7106910270925D-05
161  1.6000000000000D+00  0.0000000000000D+00  0.0000000000000D+00
162  1.6100000000000D+00  0.0000000000000D+00  0.0000000000000D+00
163  1.6200000000000D+00  0.0000000000000D+00  0.0000000000000D+00
164  1.6300000000000D+00  0.0000000000000D+00  0.0000000000000D+00
165  1.6400000000000D+00  0.0000000000000D+00  0.0000000000000D+00
166  1.6500000000000D+00  0.0000000000000D+00  0.0000000000000D+00
167  1.6600000000000D+00  0.0000000000000D+00  0.0000000000000D+00
168  1.6700000000000D+00  0.0000000000000D+00  0.0000000000000D+00
169  1.6800000000000D+00  0.0000000000000D+00  0.0000000000000D+00
170  1.6900000000000D+00  0.0000000000000D+00  0.0000000000000D+00
171  1.7000000000000D+00  0.0000000000000D+00  0.0000000000000D+00
172  1.7100000000000D+00  0.0000000000000D+00  0.0000000000000D+00
173  1.7200000000000D+00  0.0000000000000D+00  0.0000000000000D+00
174  1.7300000000000D+00  0.0000000000000D+00  0.0000000000000D+00
175  1.7400000000000D+00  0.0000000000000D+00  0.0000000000000D+00
176  1.7500000000000D+00  0.0000000000000D+00  0.0000000000000D+00
177  1.7600000000000D+00  0.0000000000000D+00  0.0000000000000D+00
178  1.7700000000000D+00  0.0000000000000D+00  0.0000000000000D+00
179  1.7800000000000D+00  0.0000000000000D+00  0.0000000000000D+00
180  1.7900000000000D+00  0.0000000000000D+00  0.0000000000000D+00
181  1.8000000000000D+00  0.0000000000000D+00  0.0000000000000D+00
182  1.8100000000000D+00  0.0000000000000D+00  0.0000000000000D+00
183  1.8200000000000D+00  0.0000000000000D+00  0.0000000000000D+00
184  1.8300000000000D+00  0.0000000000000D+00  0.0000000000000D+00
185  1.8400000000000D+00  0.0000000000000D+00  0.0000000000000D+00
186  1.8500000000000D+00  0.0000000000000D+00  0.0000000000000D+00
187  1.8600000000000D+00  0.0000000000000D+00  0.0000000000000D+00
188  1.8700000000000D+00  0.0000000000000D+00  0.0000000000000D+00
189  1.8800000000000D+00  0.0000000000000D+00  0.0000000000000D+00
190  1.8900000000000D+00  0.0000000000000D+00  0.0000000000000D+00
191  1.9000000000000D+00  0.0000000000000D+00  0.0000000000000D+00
192  1.9100000000000D+00  0.0000000000000D+00  0.0000000000000D+00
193  1.9200000000000D+00  0.0000000000000D+00  0.0000000000000D+00
194  1.9300000000000D+00  0.0000000000000D+00  0.0000000000000D+00
195  1.9400000000000D+00  0.0000000000000D+00  0.0000000000000D+00
196  1.9500000000000D+00  0.0000000000000D+00  0.0000000000000D+00
197  1.9600000000000D+00  0.0000000000000D+00  0.0000000000000D+00
198  1.9700000000000D+00  0.0000000000000D+00  0.0000000000000D+00
199  1.9800000000000D+00  0.0000000000000D+00  0.0000000000000D+00
200  1.9900000000000D+00  0.0000000000000D+00  0.0000000000000D+00
201  2.0000000000000D+00  0.0000000000000D+00  0.0000000000000D+00
202  2.0100000000000D+00  0.0000000000000D+00  0.0000000000000D+00
203  2.0200000000000D+00  0.0000000000000D+00  0.0000000000000D+00
204  2.0300000000000D+00  0.0000000000000D+00  0.0000000000000D+00
205  2.0400000000000D+00  0.0000000000000D+00  0.0000000000000D+00
206  2.0500000000000D+00  0.0000000000000D+00  0.0000000000000D+00
207  2.0600000000000D+00  0.0000000000000D+00  0.0000000000000D+00
208  2.0700000000000D+00  0.0000000000000D+00  0.0000000000000D+00
209  2.0800000000000D+00  0.0000000000000D+00  0.0000000000000D+00
210  2.0900000000000D+00  0.0000000000000D+00  0.0000000000000D+00
211  2.1000000000000D+00  0.0000000000000D+00  0.0000000000000D+00
212  2.1100000000000D+00  0.0000000000000D+00  0.0000000000000D+00
213  2.1200000000000D+00  0.0000000000000D+00  0.0000000000000D+00
214  2.1300000000000D+00  0.0000000000000D+00  0.0000000000000D+00
215  2.1400000000000D+00  0.0000000000000D+00  0.0000000000000D+00
216  2.1500000000000D+00  0.0000000000000D+00  0.0000000000000D+00
217  2.1600000000000D+00  0.0000000000000D+00  0.0000000000000D+00
218  2.1700000000000D+00  0.0000000000000D+00  0.0000000000000D+00
219  2.1800000000000D+00  0.0000000000000D+00  0.0000000000000D+00
220  2.1900000000000D+00  0.0000000000000D+00  0.0000000000000D+00
221  2.2000000000000D+00  0.0000000000000D+00  0.0000000000000D+00
222  2.2100000000000D+00  0.0000000000000D+00  0.0000000000000D+00
223  2.2200000000000D+00  0.0000000000000D+00  0.0000000000000D+00
224  2.2300000000000D+00  0.0000000000000D+00  0.0000000000000D+00
225  2.2400000000000D+00  0.0000000000000D+00  0.0000000000000D+00
226  2.2500000000000D+00  0.0000000000000D+00  0.0000000000000D+00
227  2.2600000000000D+00  0.0000000000000D+00  0.0000000000000D+00
228  2.2700000000000D+00  0.0000000000000D+00  0.0000000000000D+00
229  2.2800000000000D+00  0.0000000000000D+00  0.0000000000000D+00
230  2.2900000000000D+00  0.0000000000000D+00  0.0000000000000D+00
231  2.3000000000000D+00  0.0000000000000D+00  0.0000000000000D+00
232  2.3100000000000D+00  0.0000000000000D+00  0.0000000000000D+00
233  2.3200000000000D+00  0.0000000000000D+00  0.0000000000000D+00
234  2.3300000000000D+00  0.0000000000000D+00  0.0000000000000D+00
235  2.3400000000000D+00  0.0000000000000D+00  0.0000000000000D+00
236  2.3500000000000D+00  0.0000000000000D+00  0.0000000000000D+00
237  2.3600000000000D+00  0.0000000000000D+00  0.0000000000000D+00
238  2.3700000000000D+00  0.0000000000000D+00  0.0000000000000D+00
239  2.3800000000000D+00  0.0000000000000D+00  0.0000000000000D+00
240  2.3900000000000D+00  0.0000000000000D+00  0.0000000000000D+00
241  2.4000000000000D+00  0.0000000000000D+00  0.0000000000000D+00
242  2.4100000000000D+00  0.0000000000000D+00  0.0000000000000D+00
243  2.4200000000000D+00  0.0000000000000D+00  0.0000000000000D+00
244  2.4300000000000D+00  0.0000000000000D+00  0.0000000000000D+00
245  2.4400000000000D+00  0.0000000000000D+00  0.0000000000000D+00
246  2.4500000000000D+00  0.0000000000000D+00  0.0000000000000D+00
247  2.4600000000000D+00  0.0000000000000D+00  0.0000000000000D+00
248  2.4700000000000D+00  0.0000000000000D+00  0.0000000000000D+00
249  2.4800000000000D+00  0.0000000000000D+00  0.0000000000000D+00
250  2.4900000000000D+00  0.0000000000000D+00  0.0000000000000D+00
251  2.5000000000000D+00  0.0000000000000D+00  0.0000000000000D+00
252  2.5100000000000D+00  0.0000000000000D+00  0.0000000000000D+00
253  2.5200000000000D+00  0.0000000000000D+00  0.0000000000000D+00
254  2.5300000000000D+00  0.0000000000000D+00  0.0000000000000D+00
255  2.5400000000000D+00  0.0000000000000D+00  0.0000000000000D+00
256  2.5500000000000D+00  0.0000000000000D+00  0.0000000000000D+00
257  2.5600000000000D+00  0.0000000000000D+00  0.0000000000000D+00
258  2.5700000000000D+00  0.0000000000000D+00  0.0000000000000D+00
259  2.5800000000000D+00  0.0000000000000D+00  0.0000000000000D+00
260  2.5900000000000D+00  0.0000000000000D+00  0.0000000000000D+00
261  2.6000000000000D+00  0.0000000000000D+00  0.0000000000000D+00
262  2.6100000000000D+00  0.0000000000000D+00  0.0000000000000D+00
263  2.6200000000000D+00  0.0000000000000D+00  0.0000000000000D+00
264  2.6300000000000D+00  0.0000000000000D+00  0.0000000000000D+00
265  2.6400000000000D+00  0.0000000000000D+00  0.0000000000000D+00
266  2.6500000000000D+00  0.0000000000000D+00  0.0000000000000D+00
267  2.6600000000000D+00  0.0000000000000D+00  0.0000000000000D+00
268  2.6700000000000D+00  0.0000000000000D+00  0.0000000000000D+00
269  2.6800000000000D+00  0.0000000000000D+00  0.0000000000000D+00
270  2.6900000000000D+00  0.0000000000000D+00  0.0000000000000D+00
271  2.7000000000000D+00  0.0000000000000D+00  0.0000000000000D+00
272  2.7100000000000D+00  0.0000000000000D+00  0.0000000000000D+00
273  2.7200000000000D+00  0.0000000000000D+00  0.0000000000000D+00
274  2.7300000000000D+00  0.0000000000000D+00  0.0000000000000D+00
275  2.7400000000000D+00  0.0000000000000D+00  0.0000000000000D+00
276  2.7500000000000D+00  0.0000000000000D+00  0.0000000000000D+00
277  2.7600000000000D+00  0.0000000000000D+00  0.0000000000000D+00
278  2.7700000000000D+00  0.0000000000000D+00  0.0000000000000D+00
279  2.7800000000000D+00  0.0000000000000D+00  0.0000000000000D+00
280  2.7900000000000D+00  0.0000000000000D+00  0.0000000000000D+00
281  2.8000000000000D+00  0.0000000000000D+00  0.0000000000000D+00
282  2.8100000000000D+00  0.0000000000000D+00  0.0000000000000D+00
283  2.8200000000000D+00  0.0000000000000D+00  0.0000000000000D+00
284  2.8300000000000D+00  0.0000000000000D+00  0.0000000000000D+00
285  2.8400000000000D+00  0.0000000000000D+00  0.0000000000000D+00
286  2.8500000000000D+00  0.0000000000000D+00  0.0000000000000D+00
287  2.8600000000000D+00  0.0000000000000D+00  0.0000000000000D+00
288  2.8700000000000D+00  0.0000000000000D+00  0.0000000000000D+00
289  2.8800000000000D+00  0.0000000000000D+00  0.0000000000000D+00
290  2.8900000000000D+00  0.0000000000000D+00  0.0000000000000D+00
291  2.9000000000000D+00  0.0000000000000D+00  0.0000000000000D+00
292  2.9100000000000D+00  0.0000000000000D+00  0.0000000000000D+00
293  2.9200000000000D+00  0.0000000000000D+00  0.0000000000000D+00
294  2.9300000000000D+00  0.0000000000000D+00  0.0000000000000D+00
295  2.9400000000000D+00  0.0000000000000D+00  0.0000000000000D+00
296  2.9500000000000D+00  0.0000000000000D+00  0.0000000000000D+00
297  2.9600000000000D+00  0.0000000000000D+00  0.0000000000000D+00
298  2.9700000000000D+00  0.0000000000000D+00  0.0000000000000D+00
299  2.9800000000000D+00  0.0000000000000D+00  0.0000000000000D+00
300  2.9900000000000D+00  0.0000000000000D+00  0.0000000000000D+00
301  3.0000000000000D+00  0.0000000000000D+00  0.0000000000000D+00
302  3.0100000000000D+00  0.0000000000000D+00  0.0000000000000D+00
303  3.0200000000000D+00  0.0000000000000D+00  0.0000000000000D+00
304  3.0300000000000D+00  0.0000000000000D+00  0.0000000000000D+00
305  3.0400000000000D+00  0.0000000000000D+00  0.0000000000000D+00
306  3.0500000000000D+00  0.0000000000000D+00  0.0000000000000D+00
307  3.0600000000000D+00  0.0000000000000D+00  0.0000000000000D+00
308  3.0700000000000D+00  0.0000000000000D+00  0.0000000000000D+00
309  3.0800000000000D+00  0.0000000000000D+00  0.0000000000000D+00
310  3.0900000000000D+00  0.0000000000000D+00  0.0000000000000D+00
311  3.1000000000000D+00  0.0000000000000D+00  0.0000000000000D+00
312  3.1100000000000D+00  0.0000000000000D+00  0.0000000000000D+00
313  3.1200000000000D+00  0.0000000000000D+00  0.0000000000000D+00
314  3.1300000000000D+00  0.0000000000000D+00  0.0000000000000D+00
315  3.1400000000000D+00  0.0000000000000D+00  0.0000000000000D+00
316  3.1500000000000D+00  0.0000000000000D+00  0.0000000000000D+00
317  3.1600000000000D+00  0.0000000000000D+00  0.0000000000000D+00
318  3.1700000000000D+00  0.0000000000000D+00  0.0000000000000D+00
319  3.1800000000000D+00  0.0000000000000D+00  0.0000000000000D+00
320  3.1900000000000D+00  0.0000000000000D+00  0.0000000000000D+00
321  3.2000000000000D+00  0.0000000000000D+00  0.0000000000000D+00
322  3.2100000000000D+00  0.0000000000000D+00  0.0000000000000D+00
323  3.2200000000000D+00  0.0000000000000D+00  0.0000000000000D+00
324  3.2300000000000D+00  0.0000000000000D+00  0.0000000000000D+00
325  3.2400000000000D+00  0.0000000000000D+00  0.0000000000000D+00
326  3.2500000000000D+00  0.0000000000000D+00  0.0000000000000D+00
327  3.2600000000000D+00  0.0000000000000D+00  0.0000000000000D+00
328  3.2700000000000D+00  0.0000000000000D+00  0.0000000000000D+00
329  3.2800000000000D+00  0.0000000000000D+00  0.0000000000000D+00
330  3.2900000000000D+00  0.0000000000000D+00  0.0000000000000D+00
331  3.3000000000000D+00  0.0000000000000D+00  0.0000000000000D+00
332  3.3100000000000D+00  0.0000000000000D+00  0.0000000000000D+00
333  3.3200000000000D+00  0.0000000000000D+00  0.0000000000000D+00
334  3.3300000000000D+00  0.0000000000000D+00  0.0000000000000D+00
335  3.3400000000000D+00  0.0000000000000D+00  0.0000000000000D+00
336  3.3500000000000D+00  0.0000000000000D+00  0.0000000000000D+00
337  3.3600000000000D+00  0.0000000000000D+00  0.0000000000000D+00
338  3.3700000000000D+00  0.0000000000000D+00  0.0000000000000D+00
339  3.3800000000000D+00  0.0000000000000D+00  0.0000000000000D+00
340  3.3900000000000D+00  0.0000000000000D+00  0.0000000000000D+00
341  3.4000000000000D+00  0.0000000000000D+00  0.0000000000000D+00
342  3.4100000000000D+00  0.0000000000000D+00  0.0000000000000D+00
343  3.4200000000000D+00  0.0000000000000D+00  0.0000000000000D+00
344  3.4300000000000D+00  0.0000000000000D+00  0.0000000000000D+00
345  3.4400000000000D+00  0.0000000000000D+00  0.0000000000000D+00
346  3.4500000000000D+00  0.0000000000000D+00  0.0000000000000D+00
347  3.4600000000000D+00  0.0000000000000D+00  0.0000000000000D+00
348  3.4700000000000D+00  0.0000000000000D+00  0.0000000000000D+00
349  3.4800000000000D+00  0.0000000000000D+00  0.0000000000000D+00
350  3.4900000000000D+00  0.0000000000000D+00  0.0000000000000D+00
351  3.5000000000000D+00  0.0000000000000D+00  0.0000000000000D+00
352  3.5100000000000D+00  0.0000000000000D+00  0.0000000000000D+00
353  3.5200000000000D+00  0.0000000000000D+00  0.0000000000000D+00
354  3.5300000000000D+00  0.0000000000000D+00  0.0000000000000D+00
355  3.5400000000000D+00  0.0000000000000D+00  0.0000000000000D+00
356  3.5500000000000D+00  0.0000000000000D+00  0.0000000000000D+00
357  3.5600000000000D+00  0.0000000000000D+00  0.0000000000000D+00
358  3.5700000000000D+00  0.0000000000000D+00  0.0000000000000D+00
359  3.5800000000000D+00  0.0000000000000D+00  0.0000000000000D+00
360  3.5900000000000D+00  0.0000000000000D+00  0.0000000000000D+00
361  3.6000000000000D+00  0.0000000000000D+00  0.0000000000000D+00
362  3.6100000000000D+00  0.0000000000000D+00  0.0000000000000D+00
363  3.6200000000000D+00  0.0000000000000D+00  0.0000000000000D+00
364  3.6300000000000D+00  0.0000000000000D+00  0.0000000000000D+00
365  3.6400000000000D+00  0.0000000000000D+00  0.0000000000000D+00
366  3.6500000000000D+00  0.0000000000000D+00  0.0000000000000D+00
367  3.6600000000000D+00  0.0000000000000D+00  0.0000000000000D+00
368  3.6700000000000D+00  0.0000000000000D+00  0.0000000000000D+00
369  3.6800000000000D+00  0.0000000000000D+00  0.0000000000000D+00
370  3.6900000000000D+00  0.0000000000000D+00  0.0000000000000D+00
371  3.7000000000000D+00  0.0000000000000D+00  0.0000000000000D+00
372  3.7100000000000D+00  0.0000000000000D+00  0.0000000000000D+00
373  3.7200000000000D+00  0.0000000000000D+00  0.0000000000000D+00
374  3.7300000000000D+00  0.0000000000000D+00  0.0000000000000D+00
375  3.7400000000000D+00  0.0000000000000D+00  0.0000000000000D+00
376  3.7500000000000D+00  0.0000000000000D+00  0.0000000000000D+00
377  3.7600000000000D+00  0.0000000000000D+00  0.0000000000000D+00
378  3.7700000000000D+00  0.0000000000000D+00  0.0000000000000D+00
379  3.7800000000000D+00  0.0000000000000D+00  0.0000000000000D+00
380  3.7900000000000D+00  0.0000000000000D+00  0.0000000000000D+00
381  3.8000000000000D+00  0.0000000000000D+00  0.0000000000000D+00
382  3.8100000000000D+00  0.0000000000000D+00  0.0000000000000D+00
383  3.8200000000000D+00  0.0000000000000D+00  0.0000000000000D+00
384  3.8300000000000D+00  0.0000000000000D+00  0.0000000000000D+00
385  3.8400000000000D+00  0.0000000000000D+00  0.0000000000000D+00
386  3.8500000000000D+00  0.0000000000000D+00  0.0000000000000D+00
387  3.8600000000000D+00  0.0000000000000D+00  0.0000000000000D+00
388  3.8700000000000D+00  0.0000000000000D+00  0.0000000000000D+00
389  3.8800000000000D+00  0.0000000000000D+00  0.0000000000000D+00
390  3.8900000000000D+00  0.0000000000000D+00  0.0000000000000D+00
391  3.9000000000000D+00  0.0000000000000D+00  0.0000000000000D+00
392  3.9100000000000D+00  0.0000000000000D+00  0.0000000000000D+00
393  3.9200000000000D+00  0.0000000000000D+00  0.0000000000000D+00
394  3.9300000000000D+00  0.0000000000000D+00  0.0000000000000D+00
395  3.9400000000000D+00  0.0000000000000D+00  0.0000000000000D+00
396  3.9500000000000D+00  0.0000000000000D+00  0.0000000000000D+00
397  3.9600000000000D+00  0.0000000000000D+00  0.0000000000000D+00
398  3.9700000000000D+00  0.0000000000000D+00  0.0000000000000D+00
399  3.9800000000000D+00  0.0000000000000D+00  0.0000000000000D+00
400  3.9900000000000D+00  0.0000000000000D+00  0.0000000000000D+00
401  4.0000000000000D+00  0.0000000000000D+00  0.0000000000000D+00
402  4.0100000000000D+00  0.0000000000000D+00  0.0000000000000D+00
403  4.0200000000000D+00  0.0000000000000D+00  0.0000000000000D+00
404  4.0300000000000D+00  0.0000000000000D+00  0.0000000000000D+00
405  4.0400000000000D+00  0.0000000000000D+00  0.0000000000000D+00
406  4.0500000000000D+00  0.0000000000000D+00  0.0000000000000D+00
407  4.0600000000000D+00  0.0000000000000D+00  0.0000000000000D+00
408  4.0700000000000D+00  0.0000000000000D+00  0.0000000000000D+00
409  4.0800000000000D+00  0.0000000000000D+00  0.0000000000000D+00
410  4.0900000000000D+00  0.0000000000000D+00  0.0000000000000D+00
411  4.1000000000000D+00  0.0000000000000D+00  0.0000000000000D+00
412  4.1100000000000D+00  0.0000000000000D+00  0.0000000000000D+00
413  4.1200000000000D+00  0.0000000000000D+00  0.0000000000000D+00
414  4.1300000000000D+00  0.0000000000000D+00  0.0000000000000D+00
415  4.1400000000000D+00  0.0000000000000D+00  0.0000000000000D+00
416  4.1500000000000D+00  0.0000000000000D+00  0.0000000000000D+00
417  4.1600000000000D+00  0.0000000000000D+00  0.0000000000000D+00
418  4.1700000000000D+00  0.0000000000000D+00  0.0000000000000D+00
419  4.1800000000000D+00  0.0000000000000D+00  0.0000000000000D+00
420  4.1900000000000D+00  0.0000000000000D+00  0.0000000000000D+00
421  4.2000000000000D+00  0.0000000000000D+00  0.0000000000000D+00
422  4.2100000000000D+00  0.0000000000000D+00  0.0000000000000D+00
423  4.2200000000000D+00  0.0000000000000D+00  0.0000000000000D+00
424  4.2300000000000D+00  0.0000000000000D+00  0.0000000000000D+00
425  4.2400000000000D+00  0.0000000000000D+00  0.0000000000000D+00
426  4.2500000000000D+00  0.0000000000000D+00  0.0000000000000D+00
427  4.2600000000000D+00  0.0000000000000D+00  0.0000000000000D+00
428  4.2700000000000D+00  0.0000000000000D+00  0.0000000000000D+00
429  4.2800000000000D+00  0.0000000000000D+00  0.0000000000000D+00
430  4.2900000000000D+00  0.0000000000000D+00  0.0000000000000D+00
431  4.3000000000000D+00  0.0000000000000D+00  0.0000000000000D+00
432  4.3100000000000D+00  0.0000000000000D+00  0.0000000000000D+00
433  4.3200000000000D+00  0.0000000000000D+00  0.0000000000000D+00
434  4.3300000000000D+00  0.0000000000000D+00  0.0000000000000D+00
435  4.3400000000000D+00  0.0000000000000D+00  0.0000000000000D+00
436  4.3500000000000D+00  0.0000000000000D+00  0.0000000000000D+00
437  4.3600000000000D+00  0.0000000000000D+00  0.0000000000000D+00
438  4.3700000000000D+00  0.0000000000000D+00  0.0000000000000D+00
439  4.3800000000000D+00  0.0000000000000D+00  0.0000000000000D+00
440  4.3900000000000D+00  0.0000000000000D+00  0.0000000000000D+00
441  4.4000000000000D+00  0.0000000000000D+00  0.0000000000000D+00
442  4.4100000000000D+00  0.0000000000000D+00  0.0000000000000D+00
443  4.4200000000000D+00  0.0000000000000D+00  0.0000000000000D+00
444  4.4300000000000D+00  0.0000000000000D+00  0.0000000000000D+00