Ce    ONCVPSP-3.2.3.1  r_core=   2.00703   1.60001   1.86840   1.65831
58.0000     12.0000      170510    zatom,zion,pspd
8      11   3     4   600     0    pspcod,pspxc,lmax,lloc,mmax,r2well
5.99000000  0.25000000  0.00000000    rchrg fchrg qchrg
2     2     2     2     0    nproj
1     1           extension_switch
0                         7.0137431605470D+00  5.8674154919079D-01
1  0.0000000000000D+00 -1.7686019315732D-11  1.1919822073825D-10
2  1.0000000000000D-02  3.3587294479010D-02 -1.4112148573463D-02
3  2.0000000000000D-02  6.7150303628565D-02 -2.8150160950107D-02
4  3.0000000000000D-02  1.0066479432236D-01 -4.2040436530771D-02
5  4.0000000000000D-02  1.3410663735374D-01 -5.5710441731506D-02
6  5.0000000000000D-02  1.6745185818344D-01 -6.9089233071230D-02
7  6.0000000000000D-02  2.0067668624538D-01 -8.2107967840028D-02
8  7.0000000000000D-02  2.3375760235069D-01 -9.4700398348710D-02
9  8.0000000000000D-02  2.6667138374799D-01 -1.0680334587948D-01
10  9.0000000000000D-02  2.9939514641953D-01 -1.1835715060504D-01
11  1.0000000000000D-01  3.3190638421889D-01 -1.2930609391874D-01
12  1.1000000000000D-01  3.6418300448562D-01 -1.3959878981918D-01
13  1.2000000000000D-01  3.9620335980533D-01 -1.4918854221969D-01
14  1.3000000000000D-01  4.2794627562055D-01 -1.5803366530242D-01
15  1.4000000000000D-01  4.5939107343731D-01 -1.6609776430899D-01
16  1.5000000000000D-01  4.9051758941489D-01 -1.7334997445141D-01
17  1.6000000000000D-01  5.2130618817118D-01 -1.7976515593745D-01
18  1.7000000000000D-01  5.5173777168281D-01 -1.8532404343092D-01
19  1.8000000000000D-01  5.8179378320841D-01 -1.9001334860779D-01
20  1.9000000000000D-01  6.1145620621303D-01 -1.9382581482151D-01
21  2.0000000000000D-01  6.4070755832285D-01 -1.9676022325229D-01
22  2.1000000000000D-01  6.6953088039092D-01 -1.9882135028341D-01
23  2.2000000000000D-01  6.9790972080610D-01 -2.0001987622090D-01
24  2.3000000000000D-01  7.2582811522872D-01 -2.0037224584698D-01
25  2.4000000000000D-01  7.5327056198685D-01 -1.9990048167167D-01
26  2.5000000000000D-01  7.8022199341625D-01 -1.9863195111669D-01
27  2.6000000000000D-01  8.0666774347473D-01 -1.9659908922998D-01
28  2.7000000000000D-01  8.3259351200685D-01 -1.9383907888371D-01
29  2.8000000000000D-01  8.5798532607784D-01 -1.9039349075203D-01
30  2.9000000000000D-01  8.8282949883555D-01 -1.8630788569407D-01
31  3.0000000000000D-01  9.0711258639565D-01 -1.8163138247962D-01
32  3.1000000000000D-01  9.3082134327796D-01 -1.7641619408852D-01
33  3.2000000000000D-01  9.5394267695054D-01 -1.7071713608581D-01
34  3.3000000000000D-01  9.7646360206220D-01 -1.6459111082274D-01
35  3.4000000000000D-01  9.9837119496316D-01 -1.5809657143483D-01
36  3.5000000000000D-01  1.0196525491283D+00 -1.5129296980259D-01
37  3.6000000000000D-01  1.0402947321056D+00 -1.4424019280328D-01
38  3.7000000000000D-01  1.0602847446163D+00 -1.3699799131561D-01
39  3.8000000000000D-01  1.0796094824306D+00 -1.2962540653809D-01
40  3.9000000000000D-01  1.0982557016341D+00 -1.2218019824748D-01
41  4.0000000000000D-01  1.1162099878868D+00 -1.1471827965428D-01
42  4.1000000000000D-01  1.1334587302544D+00 -1.0729316350708D-01
43  4.2000000000000D-01  1.1499881001681D+00 -9.9955424055419D-02
44  4.3000000000000D-01  1.1657840360343D+00 -9.2752179403589D-02
45  4.4000000000000D-01  1.1808322339786D+00 -8.5726598672826D-02
46  4.5000000000000D-01  1.1951181451656D+00 -7.8917438239126D-02
47  4.6000000000000D-01  1.2086269800845D+00 -7.2358611127793D-02
48  4.7000000000000D-01  1.2213437201403D+00 -6.6078793425999D-02
49  4.8000000000000D-01  1.2332531368258D+00 -6.0101071320182D-02
50  4.9000000000000D-01  1.2443398186912D+00 -5.4442632080547D-02
51  5.0000000000000D-01  1.2545882062575D+00 -4.9114501998796D-02
52  5.1000000000000D-01  1.2639826349495D+00 -4.4121333942696D-02
53  5.2000000000000D-01  1.2725073860496D+00 -3.9461246821430D-02
54  5.3000000000000D-01  1.2801467455995D+00 -3.5125718864771D-02
55  5.4000000000000D-01  1.2868850710937D+00 -3.1099536206398D-02
56  5.5000000000000D-01  1.2927068657351D+00 -2.7360797833856D-02
57  5.6000000000000D-01  1.2975968599382D+00 -2.3880977523545D-02
58  5.7000000000000D-01  1.3015400996878D+00 -2.0625042928371D-02
59  5.8000000000000D-01  1.3045220412836D+00 -1.7551631523854D-02
60  5.9000000000000D-01  1.3065286519215D+00 -1.4613282658758D-02
61  6.0000000000000D-01  1.3075465154903D+00 -1.1756724492549D-02
62  6.1000000000000D-01  1.3075629428907D+00 -8.9232141485761D-03
63  6.2000000000000D-01  1.3065660861168D+00 -6.0489289621627D-03
64  6.3000000000000D-01  1.3045450552784D+00 -3.0654062706377D-03
65  6.4000000000000D-01  1.3014900376860D+00  9.9971225167479D-05
66  6.5000000000000D-01  1.2973924180704D+00  3.5234478953717D-03
67  6.6000000000000D-01  1.2922448989664D+00  7.2843291486334D-03
68  6.7000000000000D-01  1.2860416202546D+00  1.1464381013654D-02
69  6.8000000000000D-01  1.2787782768279D+00  1.6147199726647D-02
70  6.9000000000000D-01  1.2704522333327D+00  2.1417555991573D-02
71  7.0000000000000D-01  1.2610626349248D+00  2.7360718817739D-02
72  7.1000000000000D-01  1.2506105129814D+00  3.4061764036281D-02
73  7.2000000000000D-01  1.2390988847233D+00  4.1604872749624D-02
74  7.3000000000000D-01  1.2265328457188D+00  5.0072625076733D-02
75  7.4000000000000D-01  1.2129196542789D+00  5.9545294616953D-02
76  7.5000000000000D-01  1.1982688067888D+00  7.0100149069601D-02
77  7.6000000000000D-01  1.1825921030793D+00  8.1810762409556D-02
78  7.7000000000000D-01  1.1659037010011D+00  9.4746343935087D-02
79  7.8000000000000D-01  1.1482201594393D+00  1.0897108937055D-01
80  7.9000000000000D-01  1.1295604690882D+00  1.2454355902492D-01
81  8.0000000000000D-01  1.1099460703971D+00  1.4151608777971D-01
82  8.1000000000000D-01  1.0894008581982D+00  1.5993423140659D-01
83  8.2000000000000D-01  1.0679511726357D+00  1.7983625340019D-01
84  8.3000000000000D-01  1.0456257761294D+00  2.0125265615663D-01
85  8.4000000000000D-01  1.0224558162256D+00  2.2420575993780D-01
86  8.5000000000000D-01  9.9847477431356D-01  2.4870933263775D-01
87  8.6000000000000D-01  9.7371840031487D-01  2.7476827291756D-01
88  8.7000000000000D-01  9.4822463358329D-01  3.0237834879941D-01
89  8.8000000000000D-01  9.2203351038386D-01  3.3152599332001D-01
90  8.9000000000000D-01  8.9518705845258D-01  3.6218815833743D-01
91  9.0000000000000D-01  8.6772917926659D-01  3.9433222707502D-01
92  9.1000000000000D-01  8.3970551878074D-01  4.2791598547349D-01
93  9.2000000000000D-01  8.1116332750774D-01  4.6288765191590D-01
94  9.3000000000000D-01  7.8215131093285D-01  4.9918596439592D-01
95  9.4000000000000D-01  7.5271947136093D-01  5.3674032372288D-01
96  9.5000000000000D-01  7.2291894238950D-01  5.7547099090602D-01
97  9.6000000000000D-01  6.9280181728741D-01  6.1528933643872D-01
98  9.7000000000000D-01  6.6242097263086D-01  6.5609813881994D-01
99  9.8000000000000D-01  6.3182988860742D-01  6.9779192930829D-01
100  9.9000000000000D-01  6.0108246744197D-01  7.4025737960870D-01
101  1.0000000000000D+00  5.7023285142480D-01  7.8337372895612D-01
102  1.0100000000000D+00  5.3933524203228D-01  8.2701324687013D-01
103  1.0200000000000D+00  5.0844372162058D-01  8.7104172773525D-01
104  1.0300000000000D+00  4.7761207914488D-01  9.1531901330268D-01
105  1.0400000000000D+00  4.4689364130925D-01  9.5969953921479D-01
106  1.0500000000000D+00  4.1634111048126D-01  1.0040329017345D+00
107  1.0600000000000D+00  3.8600641062260D-01  1.0481644409962D+00
108  1.0700000000000D+00  3.5594054237663D-01  1.0919358373075D+00
109  1.0800000000000D+00  3.2619344832430D-01  1.1351857173128D+00
110  1.0900000000000D+00  2.9681388927899D-01  1.1777502671589D+00
111  1.1000000000000D+00  2.6784933231313D-01  1.2194638502362D+00
112  1.1100000000000D+00  2.3934585105597D-01  1.2601596274505D+00
113  1.1200000000000D+00  2.1134803857835D-01  1.2996701785541D+00
114  1.1300000000000D+00  1.8389893298636D-01  1.3378281235729D+00
115  1.1400000000000D+00  1.5703995560938D-01  1.3744667439755D+00
116  1.1500000000000D+00  1.3081086147079D-01  1.4094206037518D+00
117  1.1600000000000D+00  1.0524970146879D-01  1.4425261712399D+00
118  1.1700000000000D+00  8.0392795459404D-02  1.4736224431478D+00
119  1.1800000000000D+00  5.6274715179727D-02  1.5025515728347D+00
120  1.1900000000000D+00  3.2928275788973D-02  1.5291595053180D+00
121  1.2000000000000D+00  1.0384534480629D-02  1.5532966222336D+00
122  1.2100000000000D+00 -1.1327205547040D-02  1.5748184003014D+00
123  1.2200000000000D+00 -3.2179387660782D-02  1.5935860872005D+00
124  1.2300000000000D+00 -5.2146192986378D-02  1.6094673991267D+00
125  1.2400000000000D+00 -7.1203532506029D-02  1.6223372444984D+00
126  1.2500000000000D+00 -8.9329042395285D-02  1.6320784781130D+00
127  1.2600000000000D+00 -1.0650208504984D-01  1.6385826902797D+00
128  1.2700000000000D+00 -1.2270375833945D-01  1.6417510349378D+00
129  1.2800000000000D+00 -1.3791691550689D-01  1.6414950999539D+00
130  1.2900000000000D+00 -1.5212619825179D-01  1.6377378231392D+00
131  1.3000000000000D+00 -1.6531808529659D-01  1.6304144554235D+00
132  1.3100000000000D+00 -1.7748095847066D-01  1.6194735713792D+00
133  1.3200000000000D+00 -1.8860518851257D-01  1.6048781277766D+00
134  1.3300000000000D+00 -1.9868324192158D-01  1.5866065660232D+00
135  1.3400000000000D+00 -2.0770981004235D-01  1.5646539538454D+00
136  1.3500000000000D+00 -2.1568196153090D-01  1.5390331609624D+00
137  1.3600000000000D+00 -2.2259931759753D-01  1.5097760550896D+00
138  1.3700000000000D+00 -2.2846425008803D-01  1.4769347078595D+00
139  1.3800000000000D+00 -2.3328210116343D-01  1.4405825937738D+00
140  1.3900000000000D+00 -2.3706142105590D-01  1.4008157552175D+00
141  1.4000000000000D+00 -2.3981422292145D-01  1.3577539177921D+00
142  1.4100000000000D+00 -2.4155624805321D-01  1.3115415143743D+00
143  1.4200000000000D+00 -2.4230723687481D-01  1.2623485861896D+00
144  1.4300000000000D+00 -2.4209119966194D-01  1.2103715222247D+00
145  1.4400000000000D+00 -2.4093667461925D-01  1.1558335712054D+00
146  1.4500000000000D+00 -2.3887696863008D-01  1.0989850933636D+00
147  1.4600000000000D+00 -2.3595036233520D-01  1.0401034604161D+00
148  1.4700000000000D+00 -2.3220026935449D-01  9.7949254736900D-01
149  1.4800000000000D+00 -2.2767533227996D-01  9.1748172871792D-01
150  1.4900000000000D+00 -2.2242943270630D-01  8.5442426928139D-01
151  1.5000000000000D+00 -2.1652160213953D-01  7.9069504004352D-01
152  1.5100000000000D+00 -2.1001579614157D-01  7.2668738630870D-01
153  1.5200000000000D+00 -2.0298052011393D-01  6.6280908505067D-01
154  1.5300000000000D+00 -1.9548825978482D-01  5.9947717972702D-01
155  1.5400000000000D+00 -1.8761469480440D-01  5.3711158735957D-01
156  1.5500000000000D+00 -1.7943763466065D-01  4.7612716056529D-01
157  1.5600000000000D+00 -1.7103573208375D-01  4.1692472890616D-01
158  1.5700000000000D+00 -1.6248653266334D-01  3.5987804734366D-01
159  1.5800000000000D+00 -1.5386512369868D-01  3.0532568501698D-01
160  1.5900000000000D+00 -1.4524078730053D-01  2.5355026058627D-01
161  1.6000000000000D+00 -1.3667259966579D-01  2.0474954724315D-01
162  1.6100000000000D+00 -1.2821036908656D-01  1.5905010332243D-01
163  1.6200000000000D+00 -1.1989471458904D-01  1.1651549568357D-01
164  1.6300000000000D+00 -1.1176025810315D-01  7.7171417777091D-02
165  1.6400000000000D+00 -1.0383959471886D-01  4.1037564380706D-02
166  1.6500000000000D+00 -9.6161752370567D-02  8.1163219825291D-03
167  1.6600000000000D+00 -8.8751880345307D-02 -2.1610061957623D-02
168  1.6700000000000D+00 -8.1631739365559D-02 -4.8175047629516D-02
169  1.6800000000000D+00 -7.4819516770729D-02 -7.1629203263121D-02
170  1.6900000000000D+00 -6.8329963335262D-02 -9.2039064640209D-02
171  1.7000000000000D+00 -6.2174455958257D-02 -1.0948664924767D-01
172  1.7100000000000D+00 -5.6361099900781D-02 -1.2406872942170D-01
173  1.7200000000000D+00 -5.0894851046121D-02 -1.3589601088867D-01
174  1.7300000000000D+00 -4.5777659022309D-02 -1.4509221284539D-01
175  1.7400000000000D+00 -4.1008627998989D-02 -1.5179306557873D-01
176  1.7500000000000D+00 -3.6584195829060D-02 -1.5614522265788D-01
177  1.7600000000000D+00 -3.2498328010603D-02 -1.5830510527887D-01
178  1.7700000000000D+00 -2.8742726937965D-02 -1.5843767686114D-01
179  1.7800000000000D+00 -2.5307052780146D-02 -1.5671516605036D-01
180  1.7900000000000D+00 -2.2179156026228D-02 -1.5331573841323D-01
181  1.8000000000000D+00 -1.9345318340213D-02 -1.4842213339036D-01
182  1.8100000000000D+00 -1.6790500943990D-02 -1.4222027086005D-01
183  1.8200000000000D+00 -1.4498597877480D-02 -1.3489784036637D-01
184  1.8300000000000D+00 -1.2452692462912D-02 -1.2664288170554D-01
185  1.8400000000000D+00 -1.0635314962517D-02 -1.1764236681437D-01
186  1.8500000000000D+00 -9.0286992334446D-03 -1.0808079410275D-01
187  1.8600000000000D+00 -7.6150367171025D-03 -9.8138803510367D-02
188  1.8700000000000D+00 -6.3767255833246D-03 -8.7991823231766D-02
189  1.8800000000000D+00 -5.2966125888803D-03 -7.7808760528795D-02
190  1.8900000000000D+00 -4.3582268215031D-03 -6.7750740575649D-02
191  1.9000000000000D+00 -3.5460027600161D-03 -5.7969905924786D-02
192  1.9100000000000D+00 -2.8454934272466D-03 -4.8608272575117D-02
193  1.9200000000000D+00 -2.2435656312142D-03 -3.9796684168117D-02
194  1.9300000000000D+00 -1.7285814521655D-03 -3.1653842380804D-02
195  1.9400000000000D+00 -1.2907105961557D-03 -2.4288348867540D-02
196  1.9500000000000D+00 -9.2168654556985D-04 -1.7790121861876D-02
197  1.9600000000000D+00 -6.1464018339302D-04 -1.2223361780237D-02
198  1.9700000000000D+00 -3.6493720209148D-04 -7.6299405029601D-03
199  1.9800000000000D+00 -1.7362718923573D-04 -4.1491989741538D-03
200  1.9900000000000D+00 -4.0972767673751D-05 -1.8581789127337D-03
201  2.0000000000000D+00  3.3574991666484D-05 -5.9807881870053D-04
202  2.0100000000000D+00  5.3787436862989D-05 -6.3132421776064D-05
203  2.0200000000000D+00  3.3433748491603D-05  6.1241740781135D-05
204  2.0300000000000D+00  2.9265728656497D-06  8.4173272129479D-06
205  2.0400000000000D+00 -8.3848225624517D-06 -2.8979482313120D-05
206  2.0500000000000D+00 -4.7620583449344D-06 -1.8434412159584D-05
207  2.0600000000000D+00  1.1185802923917D-06  2.7673002466924D-06
208  2.0700000000000D+00  1.6643044515830D-06  4.5055069007120D-06
209  2.0800000000000D+00  3.0799815552297D-08  8.8978297927734D-08
210  2.0900000000000D+00 -1.4822047391000D-07  4.6672229520992D-07
211  2.1000000000000D+00 -8.6680541956793D-08  2.7294300459921D-07
212  2.1100000000000D+00  0.0000000000000D+00  0.0000000000000D+00
213  2.1200000000000D+00  0.0000000000000D+00  0.0000000000000D+00
214  2.1300000000000D+00  0.0000000000000D+00  0.0000000000000D+00
215  2.1400000000000D+00  0.0000000000000D+00  0.0000000000000D+00
216  2.1500000000000D+00  0.0000000000000D+00  0.0000000000000D+00
217  2.1600000000000D+00  0.0000000000000D+00  0.0000000000000D+00
218  2.1700000000000D+00  0.0000000000000D+00  0.0000000000000D+00
219  2.1800000000000D+00  0.0000000000000D+00  0.0000000000000D+00
220  2.1900000000000D+00  0.0000000000000D+00  0.0000000000000D+00
221  2.2000000000000D+00  0.0000000000000D+00  0.0000000000000D+00
222  2.2100000000000D+00  0.0000000000000D+00  0.0000000000000D+00
223  2.2200000000000D+00  0.0000000000000D+00  0.0000000000000D+00
224  2.2300000000000D+00  0.0000000000000D+00  0.0000000000000D+00
225  2.2400000000000D+00  0.0000000000000D+00  0.0000000000000D+00
226  2.2500000000000D+00  0.0000000000000D+00  0.0000000000000D+00
227  2.2600000000000D+00  0.0000000000000D+00  0.0000000000000D+00
228  2.2700000000000D+00  0.0000000000000D+00  0.0000000000000D+00
229  2.2800000000000D+00  0.0000000000000D+00  0.0000000000000D+00
230  2.2900000000000D+00  0.0000000000000D+00  0.0000000000000D+00
231  2.3000000000000D+00  0.0000000000000D+00  0.0000000000000D+00
232  2.3100000000000D+00  0.0000000000000D+00  0.0000000000000D+00
233  2.3200000000000D+00  0.0000000000000D+00  0.0000000000000D+00
234  2.3300000000000D+00  0.0000000000000D+00  0.0000000000000D+00
235  2.3400000000000D+00  0.0000000000000D+00  0.0000000000000D+00
236  2.3500000000000D+00  0.0000000000000D+00  0.0000000000000D+00
237  2.3600000000000D+00  0.0000000000000D+00  0.0000000000000D+00
238  2.3700000000000D+00  0.0000000000000D+00  0.0000000000000D+00
239  2.3800000000000D+00  0.0000000000000D+00  0.0000000000000D+00
240  2.3900000000000D+00  0.0000000000000D+00  0.0000000000000D+00
241  2.4000000000000D+00  0.0000000000000D+00  0.0000000000000D+00
242  2.4100000000000D+00  0.0000000000000D+00  0.0000000000000D+00
243  2.4200000000000D+00  0.0000000000000D+00  0.0000000000000D+00
244  2.4300000000000D+00  0.0000000000000D+00  0.0000000000000D+00
245  2.4400000000000D+00  0.0000000000000D+00  0.0000000000000D+00
246  2.4500000000000D+00  0.0000000000000D+00  0.0000000000000D+00
247  2.4600000000000D+00  0.0000000000000D+00  0.0000000000000D+00
248  2.4700000000000D+00  0.0000000000000D+00  0.0000000000000D+00
249  2.4800000000000D+00  0.0000000000000D+00  0.0000000000000D+00
250  2.4900000000000D+00  0.0000000000000D+00  0.0000000000000D+00
251  2.5000000000000D+00  0.0000000000000D+00  0.0000000000000D+00
252  2.5100000000000D+00  0.0000000000000D+00  0.0000000000000D+00
253  2.5200000000000D+00  0.0000000000000D+00  0.0000000000000D+00
254  2.5300000000000D+00  0.0000000000000D+00  0.0000000000000D+00
255  2.5400000000000D+00  0.0000000000000D+00  0.0000000000000D+00
256  2.5500000000000D+00  0.0000000000000D+00  0.0000000000000D+00
257  2.5600000000000D+00  0.0000000000000D+00  0.0000000000000D+00
258  2.5700000000000D+00  0.0000000000000D+00  0.0000000000000D+00
259  2.5800000000000D+00  0.0000000000000D+00  0.0000000000000D+00
260  2.5900000000000D+00  0.0000000000000D+00  0.0000000000000D+00
261  2.6000000000000D+00  0.0000000000000D+00  0.0000000000000D+00
262  2.6100000000000D+00  0.0000000000000D+00  0.0000000000000D+00
263  2.6200000000000D+00  0.0000000000000D+00  0.0000000000000D+00
264  2.6300000000000D+00  0.0000000000000D+00  0.0000000000000D+00
265  2.6400000000000D+00  0.0000000000000D+00  0.0000000000000D+00
266  2.6500000000000D+00  0.0000000000000D+00  0.0000000000000D+00
267  2.6600000000000D+00  0.0000000000000D+00  0.0000000000000D+00
268  2.6700000000000D+00  0.0000000000000D+00  0.0000000000000D+00
269  2.6800000000000D+00  0.0000000000000D+00  0.0000000000000D+00
270  2.6900000000000D+00  0.0000000000000D+00  0.0000000000000D+00
271  2.7000000000000D+00  0.0000000000000D+00  0.0000000000000D+00
272  2.7100000000000D+00  0.0000000000000D+00  0.0000000000000D+00
273  2.7200000000000D+00  0.0000000000000D+00  0.0000000000000D+00
274  2.7300000000000D+00  0.0000000000000D+00  0.0000000000000D+00
275  2.7400000000000D+00  0.0000000000000D+00  0.0000000000000D+00
276  2.7500000000000D+00  0.0000000000000D+00  0.0000000000000D+00
277  2.7600000000000D+00  0.0000000000000D+00  0.0000000000000D+00
278  2.7700000000000D+00  0.0000000000000D+00  0.0000000000000D+00
279  2.7800000000000D+00  0.0000000000000D+00  0.0000000000000D+00
280  2.7900000000000D+00  0.0000000000000D+00  0.0000000000000D+00
281  2.8000000000000D+00  0.0000000000000D+00  0.0000000000000D+00
282  2.8100000000000D+00  0.0000000000000D+00  0.0000000000000D+00
283  2.8200000000000D+00  0.0000000000000D+00  0.0000000000000D+00
284  2.8300000000000D+00  0.0000000000000D+00  0.0000000000000D+00
285  2.8400000000000D+00  0.0000000000000D+00  0.0000000000000D+00
286  2.8500000000000D+00  0.0000000000000D+00  0.0000000000000D+00
287  2.8600000000000D+00  0.0000000000000D+00  0.0000000000000D+00
288  2.8700000000000D+00  0.0000000000000D+00  0.0000000000000D+00
289  2.8800000000000D+00  0.0000000000000D+00  0.0000000000000D+00
290  2.8900000000000D+00  0.0000000000000D+00  0.0000000000000D+00
291  2.9000000000000D+00  0.0000000000000D+00  0.0000000000000D+00
292  2.9100000000000D+00  0.0000000000000D+00  0.0000000000000D+00
293  2.9200000000000D+00  0.0000000000000D+00  0.0000000000000D+00
294  2.9300000000000D+00  0.0000000000000D+00  0.0000000000000D+00
295  2.9400000000000D+00  0.0000000000000D+00  0.0000000000000D+00
296  2.9500000000000D+00  0.0000000000000D+00  0.0000000000000D+00
297  2.9600000000000D+00  0.0000000000000D+00  0.0000000000000D+00
298  2.9700000000000D+00  0.0000000000000D+00  0.0000000000000D+00
299  2.9800000000000D+00  0.0000000000000D+00  0.0000000000000D+00
300  2.9900000000000D+00  0.0000000000000D+00  0.0000000000000D+00
301  3.0000000000000D+00  0.0000000000000D+00  0.0000000000000D+00
302  3.0100000000000D+00  0.0000000000000D+00  0.0000000000000D+00
303  3.0200000000000D+00  0.0000000000000D+00  0.0000000000000D+00
304  3.0300000000000D+00  0.0000000000000D+00  0.0000000000000D+00
305  3.0400000000000D+00  0.0000000000000D+00  0.0000000000000D+00
306  3.0500000000000D+00  0.0000000000000D+00  0.0000000000000D+00
307  3.0600000000000D+00  0.0000000000000D+00  0.0000000000000D+00
308  3.0700000000000D+00  0.0000000000000D+00  0.0000000000000D+00
309  3.0800000000000D+00  0.0000000000000D+00  0.0000000000000D+00
310  3.0900000000000D+00  0.0000000000000D+00  0.0000000000000D+00
311  3.1000000000000D+00  0.0000000000000D+00  0.0000000000000D+00
312  3.1100000000000D+00  0.0000000000000D+00  0.0000000000000D+00
313  3.1200000000000D+00  0.0000000000000D+00  0.0000000000000D+00
314  3.1300000000000D+00  0.0000000000000D+00  0.0000000000000D+00
315  3.1400000000000D+00  0.0000000000000D+00  0.0000000000000D+00
316  3.1500000000000D+00  0.0000000000000D+00  0.0000000000000D+00
317  3.1600000000000D+00  0.0000000000000D+00  0.0000000000000D+00
318  3.1700000000000D+00  0.0000000000000D+00  0.0000000000000D+00
319  3.1800000000000D+00  0.0000000000000D+00  0.0000000000000D+00
320  3.1900000000000D+00  0.0000000000000D+00  0.0000000000000D+00
321  3.2000000000000D+00  0.0000000000000D+00  0.0000000000000D+00
322  3.2100000000000D+00  0.0000000000000D+00  0.0000000000000D+00
323  3.2200000000000D+00  0.0000000000000D+00  0.0000000000000D+00
324  3.2300000000000D+00  0.0000000000000D+00  0.0000000000000D+00
325  3.2400000000000D+00  0.0000000000000D+00  0.0000000000000D+00
326  3.2500000000000D+00  0.0000000000000D+00  0.0000000000000D+00
327  3.2600000000000D+00  0.0000000000000D+00  0.0000000000000D+00
328  3.2700000000000D+00  0.0000000000000D+00  0.0000000000000D+00
329  3.2800000000000D+00  0.0000000000000D+00  0.0000000000000D+00
330  3.2900000000000D+00  0.0000000000000D+00  0.0000000000000D+00
331  3.3000000000000D+00  0.0000000000000D+00  0.0000000000000D+00
332  3.3100000000000D+00  0.0000000000000D+00  0.0000000000000D+00
333  3.3200000000000D+00  0.0000000000000D+00  0.0000000000000D+00
334  3.3300000000000D+00  0.0000000000000D+00  0.0000000000000D+00
335  3.3400000000000D+00  0.0000000000000D+00  0.0000000000000D+00
336  3.3500000000000D+00  0.0000000000000D+00  0.0000000000000D+00
337  3.3600000000000D+00  0.0000000000000D+00  0.0000000000000D+00
338  3.3700000000000D+00  0.0000000000000D+00  0.0000000000000D+00
339  3.3800000000000D+00  0.0000000000000D+00  0.0000000000000D+00
340  3.3900000000000D+00  0.0000000000000D+00  0.0000000000000D+00
341  3.4000000000000D+00  0.0000000000000D+00  0.0000000000000D+00
342  3.4100000000000D+00  0.0000000000000D+00  0.0000000000000D+00
343  3.4200000000000D+00  0.0000000000000D+00  0.0000000000000D+00
344  3.4300000000000D+00  0.0000000000000D+00  0.0000000000000D+00
345  3.4400000000000D+00  0.0000000000000D+00  0.0000000000000D+00
346  3.4500000000000D+00  0.0000000000000D+00  0.0000000000000D+00
347  3.4600000000000D+00  0.0000000000000D+00  0.0000000000000D+00
348  3.4700000000000D+00  0.0000000000000D+00  0.0000000000000D+00
349  3.4800000000000D+00  0.0000000000000D+00  0.0000000000000D+00
350  3.4900000000000D+00  0.0000000000000D+00  0.0000000000000D+00
351  3.5000000000000D+00  0.0000000000000D+00  0.0000000000000D+00
352  3.5100000000000D+00  0.0000000000000D+00  0.0000000000000D+00
353  3.5200000000000D+00  0.0000000000000D+00  0.0000000000000D+00
354  3.5300000000000D+00  0.0000000000000D+00  0.0000000000000D+00
355  3.5400000000000D+00  0.0000000000000D+00  0.0000000000000D+00
356  3.5500000000000D+00  0.0000000000000D+00  0.0000000000000D+00
357  3.5600000000000D+00  0.0000000000000D+00  0.0000000000000D+00
358  3.5700000000000D+00  0.0000000000000D+00  0.0000000000000D+00
359  3.5800000000000D+00  0.0000000000000D+00  0.0000000000000D+00
360  3.5900000000000D+00  0.0000000000000D+00  0.0000000000000D+00
361  3.6000000000000D+00  0.0000000000000D+00  0.0000000000000D+00
362  3.6100000000000D+00  0.0000000000000D+00  0.0000000000000D+00
363  3.6200000000000D+00  0.0000000000000D+00  0.0000000000000D+00
364  3.6300000000000D+00  0.0000000000000D+00  0.0000000000000D+00
365  3.6400000000000D+00  0.0000000000000D+00  0.0000000000000D+00
366  3.6500000000000D+00  0.0000000000000D+00  0.0000000000000D+00
367  3.6600000000000D+00  0.0000000000000D+00  0.0000000000000D+00
368  3.6700000000000D+00  0.0000000000000D+00  0.0000000000000D+00
369  3.6800000000000D+00  0.0000000000000D+00  0.0000000000000D+00
370  3.6900000000000D+00  0.0000000000000D+00  0.0000000000000D+00
371  3.7000000000000D+00  0.0000000000000D+00  0.0000000000000D+00
372  3.7100000000000D+00  0.0000000000000D+00  0.0000000000000D+00
373  3.7200000000000D+00  0.0000000000000D+00  0.0000000000000D+00
374  3.7300000000000D+00  0.0000000000000D+00  0.0000000000000D+00
375  3.7400000000000D+00  0.0000000000000D+00  0.0000000000000D+00
376  3.7500000000000D+00  0.0000000000000D+00  0.0000000000000D+00
377  3.7600000000000D+00  0.0000000000000D+00  0.0000000000000D+00
378  3.7700000000000D+00  0.0000000000000D+00  0.0000000000000D+00
379  3.7800000000000D+00  0.0000000000000D+00  0.0000000000000D+00
380  3.7900000000000D+00  0.0000000000000D+00  0.0000000000000D+00
381  3.8000000000000D+00  0.0000000000000D+00  0.0000000000000D+00
382  3.8100000000000D+00  0.0000000000000D+00  0.0000000000000D+00
383  3.8200000000000D+00  0.0000000000000D+00  0.0000000000000D+00
384  3.8300000000000D+00  0.0000000000000D+00  0.0000000000000D+00
385  3.8400000000000D+00  0.0000000000000D+00  0.0000000000000D+00
386  3.8500000000000D+00  0.0000000000000D+00  0.0000000000000D+00
387  3.8600000000000D+00  0.0000000000000D+00  0.0000000000000D+00
388  3.8700000000000D+00  0.0000000000000D+00  0.0000000000000D+00
389  3.8800000000000D+00  0.0000000000000D+00  0.0000000000000D+00
390  3.8900000000000D+00  0.0000000000000D+00  0.0000000000000D+00
391  3.9000000000000D+00  0.0000000000000D+00  0.0000000000000D+00
392  3.9100000000000D+00  0.0000000000000D+00  0.0000000000000D+00
393  3.9200000000000D+00  0.0000000000000D+00  0.0000000000000D+00
394  3.9300000000000D+00  0.0000000000000D+00  0.0000000000000D+00
395  3.9400000000000D+00  0.0000000000000D+00  0.0000000000000D+00
396  3.9500000000000D+00  0.0000000000000D+00  0.0000000000000D+00
397  3.9600000000000D+00  0.0000000000000D+00  0.0000000000000D+00
398  3.9700000000000D+00  0.0000000000000D+00  0.0000000000000D+00
399  3.9800000000000D+00  0.0000000000000D+00  0.0000000000000D+00
400  3.9900000000000D+00  0.0000000000000D+00  0.0000000000000D+00
401  4.0000000000000D+00  0.0000000000000D+00  0.0000000000000D+00
402  4.0100000000000D+00  0.0000000000000D+00  0.0000000000000D+00
403  4.0200000000000D+00  0.0000000000000D+00  0.0000000000000D+00
404  4.0300000000000D+00  0.0000000000000D+00  0.0000000000000D+00
405  4.0400000000000D+00  0.0000000000000D+00  0.0000000000000D+00
406  4.0500000000000D+00  0.0000000000000D+00  0.0000000000000D+00
407  4.0600000000000D+00  0.0000000000000D+00  0.0000000000000D+00
408  4.0700000000000D+00  0.0000000000000D+00  0.0000000000000D+00
409  4.0800000000000D+00  0.0000000000000D+00  0.0000000000000D+00
410  4.0900000000000D+00  0.0000000000000D+00  0.0000000000000D+00
411  4.1000000000000D+00  0.0000000000000D+00  0.0000000000000D+00
412  4.1100000000000D+00  0.0000000000000D+00  0.0000000000000D+00
413  4.1200000000000D+00  0.0000000000000D+00  0.0000000000000D+00
414  4.1300000000000D+00  0.0000000000000D+00  0.0000000000000D+00
415  4.1400000000000D+00  0.0000000000000D+00  0.0000000000000D+00
416  4.1500000000000D+00  0.0000000000000D+00  0.0000000000000D+00
417  4.1600000000000D+00  0.0000000000000D+00  0.0000000000000D+00
418  4.1700000000000D+00  0.0000000000000D+00  0.0000000000000D+00
419  4.1800000000000D+00  0.0000000000000D+00  0.0000000000000D+00
420  4.1900000000000D+00  0.0000000000000D+00  0.0000000000000D+00
421  4.2000000000000D+00  0.0000000000000D+00  0.0000000000000D+00
422  4.2100000000000D+00  0.0000000000000D+00  0.0000000000000D+00
423  4.2200000000000D+00  0.0000000000000D+00  0.0000000000000D+00
424  4.2300000000000D+00  0.0000000000000D+00  0.0000000000000D+00
425  4.2400000000000D+00  0.0000000000000D+00  0.0000000000000D+00
426  4.2500000000000D+00  0.0000000000000D+00  0.0000000000000D+00
427  4.2600000000000D+00  0.0000000000000D+00  0.0000000000000D+00
428  4.2700000000000D+00  0.0000000000000D+00  0.0000000000000D+00
429  4.2800000000000D+00  0.0000000000000D+00  0.0000000000000D+00
430  4.2900000000000D+00  0.0000000000000D+00  0.0000000000000D+00
431  4.3000000000000D+00  0.0000000000000D+00  0.0000000000000D+00
432  4.3100000000000D+00  0.0000000000000D+00  0.0000000000000D+00
433  4.3200000000000D+00  0.0000000000000D+00  0.0000000000000D+00
434  4.3300000000000D+00  0.0000000000000D+00  0.0000000000000D+00
435  4.3400000000000D+00  0.0000000000000D+00  0.0000000000000D+00
436  4.3500000000000D+00  0.0000000000000D+00  0.0000000000000D+00
437  4.3600000000000D+00  0.0000000000000D+00  0.0000000000000D+00
438  4.3700000000000D+00  0.0000000000000D+00  0.0000000000000D+00
439  4.3800000000000D+00  0.0000000000000D+00  0.0000000000000D+00
440  4.3900000000000D+00  0.0000000000000D+00  0.0000000000000D+00
441  4.4000000000000D+00  0.0000000000000D+00  0.0000000000000D+00
442  4.4100000000000D+00  0.0000000000000D+00  0.0000000000000D+00
443  4.4200000000000D+00  0.0000000000000D+00  0.0000000000000D+00