Ce    ONCVPSP-3.2.3.1  r_core=   2.10511   1.91351   1.91351   2.51758
58.0000     11.0000      170510    zatom,zion,pspd
8      11   3     4   600     0    pspcod,pspxc,lmax,lloc,mmax,r2well
5.99000000  0.25000000  0.00000000    rchrg fchrg qchrg
2     2     2     1     0    nproj
1     1           extension_switch
0                         5.8102486764510D+00  4.9137934951966D-01
1  0.0000000000000D+00 -4.2403025535265D-11  1.6957499293646D-10
2  1.0000000000000D-02  4.2333875180654D-02 -2.0967622165010D-02
3  2.0000000000000D-02  8.4604018094780D-02 -4.1813099005335D-02
4  3.0000000000000D-02  1.2674694617643D-01 -6.2415104642291D-02
5  4.0000000000000D-02  1.6869967470205D-01 -8.2653946135335D-02
6  5.0000000000000D-02  2.1039996182550D-01 -1.0241236510965D-01
7  6.0000000000000D-02  2.5178654897989D-01 -1.2157632169446D-01
8  7.0000000000000D-02  2.9279939515159D-01 -1.4003575507559D-01
9  8.0000000000000D-02  3.3337990357461D-01 -1.5768531513525D-01
10  9.0000000000000D-02  3.7347113944545D-01 -1.7442505986164D-01
11  1.0000000000000D-01  4.1301803732097D-01 -1.9016111345908D-01
12  1.1000000000000D-01  4.5196759693297D-01 -2.0480628037421D-01
13  1.2000000000000D-01  4.9026906623310D-01 -2.1828061077339D-01
14  1.3000000000000D-01  5.2787411056997D-01 -2.3051191335852D-01
15  1.4000000000000D-01  5.6473696699606D-01 -2.4143621179003D-01
16  1.5000000000000D-01  6.0081458280422D-01 -2.5099814139502D-01
17  1.6000000000000D-01  6.3606673750276D-01 -2.5915128327132D-01
18  1.7000000000000D-01  6.7045614755141D-01 -2.6585843335252D-01
19  1.8000000000000D-01  7.0394855329973D-01 -2.7109180447058D-01
20  1.9000000000000D-01  7.3651278769121D-01 -2.7483315993895D-01
21  2.0000000000000D-01  7.6812082642170D-01 -2.7707387767627D-01
22  2.1000000000000D-01  7.9874781936801D-01 -2.7781494439441D-01
23  2.2000000000000D-01  8.2837210323047D-01 -2.7706687988344D-01
24  2.3000000000000D-01  8.5697519546171D-01 -2.7484959193294D-01
25  2.4000000000000D-01  8.8454176968173D-01 -2.7119216293423D-01
26  2.5000000000000D-01  9.1105961290508D-01 -2.6613256970458D-01
27  2.6000000000000D-01  9.3651956502987D-01 -2.5971733856049D-01
28  2.7000000000000D-01  9.6091544115824D-01 -2.5200113813938D-01
29  2.8000000000000D-01  9.8424393743421D-01 -2.4304631292270D-01
30  2.9000000000000D-01  1.0065045211958D+00 -2.3292236084681D-01
31  3.0000000000000D-01  1.0276993063432D+00 -2.2170535879701D-01
32  3.1000000000000D-01  1.0478329149249D+00 -2.0947734016249D-01
33  3.2000000000000D-01  1.0669123260329D+00 -1.9632562898181D-01
34  3.3000000000000D-01  1.0849467131844D+00 -1.8234213552960D-01
35  3.4000000000000D-01  1.1019472714420D+00 -1.6762261848008D-01
36  3.5000000000000D-01  1.1179270355904D+00 -1.5226591903297D-01
37  3.6000000000000D-01  1.1329006907445D+00 -1.3637317259773D-01
38  3.7000000000000D-01  1.1468843768143D+00 -1.2004700380348D-01
39  3.8000000000000D-01  1.1598954882851D+00 -1.0339071073230D-01
40  3.9000000000000D-01  1.1719524708021D+00 -8.6507444361161D-02
41  4.0000000000000D-01  1.1830746160637D+00 -6.9499389244360D-02
42  4.1000000000000D-01  1.1932818565347D+00 -5.2466951470031D-02
43  4.2000000000000D-01  1.2025945614858D+00 -3.5507959885198D-02
44  4.3000000000000D-01  1.2110333358500D+00 -1.8716886500049D-02
45  4.4000000000000D-01  1.2186188233647D+00 -2.1840918582660D-03
46  4.5000000000000D-01  1.2253715154273D+00  1.4004899006724D-02
47  4.6000000000000D-01  1.2313115670516D+00  2.9770084614990D-02
48  4.7000000000000D-01  1.2364586212540D+00  4.5037633913433D-02
49  4.8000000000000D-01  1.2408316431365D+00  5.9740487091239D-02
50  4.9000000000000D-01  1.2444487648576D+00  7.3818905765723D-02
51  5.0000000000000D-01  1.2473271426033D+00  8.7220968316604D-02
52  5.1000000000000D-01  1.2494828265804D+00  9.9903006525905D-02
53  5.2000000000000D-01  1.2509306449577D+00  1.1182998008786D-01
54  5.3000000000000D-01  1.2516841025784D+00  1.2297578598614D-01
55  5.4000000000000D-01  1.2517552951600D+00  1.3332350018852D-01
56  5.5000000000000D-01  1.2511548395830D+00  1.4286554958308D-01
57  5.6000000000000D-01  1.2498918207532D+00  1.5160381256769D-01
58  5.7000000000000D-01  1.2479737554022D+00  1.5954964720488D-01
59  5.8000000000000D-01  1.2454065730680D+00  1.6672384636427D-01
60  5.9000000000000D-01  1.2421946143708D+00  1.7315651978726D-01
61  6.0000000000000D-01  1.2383406465752D+00  1.7888690352734D-01
62  6.1000000000000D-01  1.2338458963055D+00  1.8396309773052D-01
63  6.2000000000000D-01  1.2287100991528D+00  1.8844173423180D-01
64  6.3000000000000D-01  1.2229315657935D+00  1.9238757594204D-01
65  6.4000000000000D-01  1.2165072641160D+00  1.9587305048716D-01
66  6.5000000000000D-01  1.2094329167367D+00  1.9897772103501D-01
67  6.6000000000000D-01  1.2017031131736D+00  2.0178769769643D-01
68  6.7000000000000D-01  1.1933114358384D+00  2.0439499331992D-01
69  6.8000000000000D-01  1.1842505989042D+00  2.0689682790484D-01
70  6.9000000000000D-01  1.1745125990145D+00  2.0939488623746D-01
71  7.0000000000000D-01  1.1640888767049D+00  2.1199453370114D-01
72  7.1000000000000D-01  1.1529704873334D+00  2.1480399552979D-01
73  7.2000000000000D-01  1.1411482802383D+00  2.1793350505310D-01
74  7.3000000000000D-01  1.1286130847818D+00  2.2149442672710D-01
75  7.4000000000000D-01  1.1153559018791D+00  2.2559835994900D-01
76  7.5000000000000D-01  1.1013680995708D+00  2.3035622982104D-01
77  7.6000000000000D-01  1.0866416111569D+00  2.3587737115349D-01
78  7.7000000000000D-01  1.0711691343890D+00  2.4226861207919D-01
79  7.8000000000000D-01  1.0549443301972D+00  2.4963336369205D-01
80  7.9000000000000D-01  1.0379620194267D+00  2.5807072212001D-01
81  8.0000000000000D-01  1.0202183760626D+00  2.6767458939611D-01
82  8.1000000000000D-01  1.0017111154369D+00  2.7853281940332D-01
83  8.2000000000000D-01  9.8243967593669D-01  2.9072639503757D-01
84  8.3000000000000D-01  9.6240539277041D-01  3.0432864256080D-01
85  8.4000000000000D-01  9.4161166239229D-01  3.1940448890253D-01
86  8.5000000000000D-01  9.2006409624181D-01  3.3600976741647D-01
87  8.6000000000000D-01  8.9777066251892D-01  3.5419057730787D-01
88  8.7000000000000D-01  8.7474181478912D-01  3.7398270162203D-01
89  8.8000000000000D-01  8.5099060629425D-01  3.9541108832365D-01
90  8.9000000000000D-01  8.2653278893424D-01  4.1848939860588D-01
91  9.0000000000000D-01  8.0138689598187D-01  4.4321962614660D-01
92  9.1000000000000D-01  7.7557430769609D-01  4.6959179058240D-01
93  9.2000000000000D-01  7.4911929910885D-01  4.9758370799984D-01
94  9.3000000000000D-01  7.2204906937515D-01  5.2716084075159D-01
95  9.4000000000000D-01  6.9439375219542D-01  5.5827622839604D-01
96  9.5000000000000D-01  6.6618640694229D-01  5.9087050103496D-01
97  9.6000000000000D-01  6.3746299025031D-01  6.2487197578917D-01
98  9.7000000000000D-01  6.0826230795515D-01  6.6019683660999D-01
99  9.8000000000000D-01  5.7862594739855D-01  6.9674939707856D-01
100  9.9000000000000D-01  5.4859819024719D-01  7.3442244529174D-01
101  1.0000000000000D+00  5.1822590610010D-01  7.7309766940276D-01
102  1.0100000000000D+00  4.8755842729156D-01  8.1264616183362D-01
103  1.0200000000000D+00  4.5664740542227D-01  8.5292899965239D-01
104  1.0300000000000D+00  4.2554665027508D-01  8.9379789809638D-01
105  1.0400000000000D+00  3.9431195189212D-01  9.3509593372402D-01
106  1.0500000000000D+00  3.6300088670893D-01  9.7665833319021D-01
107  1.0600000000000D+00  3.3167260874645D-01  1.0183133232068D+00
108  1.0700000000000D+00  3.0038762697185D-01  1.0598830368026D+00
109  1.0800000000000D+00  2.6920757003673D-01  1.1011844705994D+00
110  1.0900000000000D+00  2.3819493969033D-01  1.1420304874621D+00
111  1.1000000000000D+00  2.0741285425301D-01  1.1822308585305D+00
112  1.1100000000000D+00  1.7692478360117D-01  1.2215933383778D+00
113  1.1200000000000D+00  1.4679427719176D-01  1.2599247667397D+00
114  1.1300000000000D+00  1.1708468670418D-01  1.2970321900652D+00
115  1.1400000000000D+00  8.7858884926358D-02  1.3327239959592D+00
116  1.1500000000000D+00  5.9178982544181D-02  1.3668110534652D+00
117  1.1600000000000D+00  3.1106044525673D-02  1.3991078520278D+00
118  1.1700000000000D+00  3.6998078034190D-03  1.4294336319449D+00
119  1.1800000000000D+00 -2.2981598041149D-02  1.4576134991412D+00
120  1.1900000000000D+00 -4.8881925386330D-02  1.4834795171054D+00
121  1.2000000000000D+00 -7.3947076788195D-02  1.5068717689563D+00
122  1.2100000000000D+00 -9.8125365157070D-02  1.5276393827576D+00
123  1.2200000000000D+00 -1.2136776427816D-01  1.5456415133771D+00
124  1.2300000000000D+00 -1.4362814809813D-01  1.5607482743604D+00
125  1.2400000000000D+00 -1.6486351728442D-01  1.5728416136717D+00
126  1.2500000000000D+00 -1.8503421163388D-01  1.5818161274706D+00
127  1.2600000000000D+00 -2.0410410693505D-01  1.5875798062184D+00
128  1.2700000000000D+00 -2.2204079505188D-01  1.5900547081353D+00
129  1.2800000000000D+00 -2.3881574607782D-01  1.5891775553797D+00
130  1.2900000000000D+00 -2.5440445142395D-01  1.5849002483942D+00
131  1.3000000000000D+00 -2.6878654695969D-01  1.5771902949713D+00
132  1.3100000000000D+00 -2.8194591538147D-01  1.5660311508370D+00
133  1.3200000000000D+00 -2.9387076701101D-01  1.5514224686679D+00
134  1.3300000000000D+00 -3.0455369856154D-01  1.5333802539121D+00
135  1.3400000000000D+00 -3.1399172938914D-01  1.5119369256864D+00
136  1.3500000000000D+00 -3.2218631485853D-01  1.4871412815145D+00
137  1.3600000000000D+00 -3.2914333681234D-01  1.4590583662018D+00
138  1.3700000000000D+00 -3.3487307098140D-01  1.4277692445010D+00
139  1.3800000000000D+00 -3.3939013150117D-01  1.3933706786186D+00
140  1.3900000000000D+00 -3.4271339292939D-01  1.3559747125878D+00
141  1.4000000000000D+00 -3.4486588990874D-01  1.3157081644693D+00
142  1.4100000000000D+00 -3.4587469530848D-01  1.2727120302644D+00
143  1.4200000000000D+00 -3.4577077735721D-01  1.2271408020609D+00
144  1.4300000000000D+00 -3.4458883657143D-01  1.1791617041721D+00
145  1.4400000000000D+00 -3.4236712362777D-01  1.1289538524613D+00
146  1.4500000000000D+00 -3.3914723890589D-01  1.0767073402899D+00
147  1.4600000000000D+00 -3.3497391523777D-01  1.0226222579012D+00
148  1.4700000000000D+00 -3.2989478488375D-01  9.6690764989967D-01
149  1.4800000000000D+00 -3.2396013223733D-01  9.0978041749918D-01
150  1.4900000000000D+00 -3.1722263375526D-01  8.5146417216241D-01
151  1.5000000000000D+00 -3.0973708651961D-01  7.9218804691950D-01
152  1.5100000000000D+00 -3.0156012726702D-01  7.3218547335708D-01
153  1.5200000000000D+00 -2.9274994331817D-01  6.7169293068273D-01
154  1.5300000000000D+00 -2.8336597734224D-01  6.1094867523732D-01
155  1.5400000000000D+00 -2.7346862754577D-01  5.5019145747860D-01
156  1.5500000000000D+00 -2.6311894517281D-01  4.8965923460958D-01
157  1.5600000000000D+00 -2.5237833100143D-01  4.2958788619822D-01
158  1.5700000000000D+00 -2.4130823272425D-01  3.7020994098706D-01
159  1.5800000000000D+00 -2.2996984479970D-01  3.1175332172584D-01
160  1.5900000000000D+00 -2.1842381276639D-01  2.5444011669791D-01
161  1.6000000000000D+00 -2.0672994329931D-01  1.9848538336416D-01
162  1.6100000000000D+00 -1.9494692220717D-01  1.4409599370159D-01
163  1.6200000000000D+00 -1.8313204115220D-01  9.1469524449784D-02
164  1.6300000000000D+00 -1.7134093553629D-01  4.0793202895382D-02
165  1.6400000000000D+00 -1.5962733380823D-01 -7.7570908975067D-03
166  1.6500000000000D+00 -1.4804282070109D-01 -5.4017754532138D-02
167  1.6600000000000D+00 -1.3663661424981D-01 -9.7838327238985D-02
168  1.6700000000000D+00 -1.2545535901306D-01 -1.3908227688064D-01
169  1.6800000000000D+00 -1.1454293493677D-01 -1.7762771261846D-01
170  1.6900000000000D+00 -1.0394028418121D-01 -2.1336801324745D-01
171  1.7000000000000D+00 -9.3685254855782D-02 -2.4621237593943D-01
172  1.7100000000000D+00 -8.3812463925332D-02 -2.7608627568095D-01
173  1.7200000000000D+00 -7.4353177618047D-02 -3.0293184278909D-01
174  1.7300000000000D+00 -6.5335211637165D-02 -3.2670814865061D-01
175  1.7400000000000D+00 -5.6782848742717D-02 -3.4739141035184D-01
176  1.7500000000000D+00 -4.8716776175692D-02 -3.6497510363545D-01
177  1.7600000000000D+00 -4.1154039580133D-02 -3.7946999876054D-01
178  1.7700000000000D+00 -3.4108016166695D-02 -3.9090410756083D-01
179  1.7800000000000D+00 -2.7588402865932D-02 -3.9932256016090D-01
180  1.7900000000000D+00 -2.1601222283765D-02 -4.0478739937935D-01
181  1.8000000000000D+00 -1.6148841830651D-02 -4.0737731287009D-01
182  1.8100000000000D+00 -1.1230008134831D-02 -4.0718729408167D-01
183  1.8200000000000D+00 -6.8398925875850D-03 -4.0432825000792D-01
184  1.8300000000000D+00 -2.9701488069155D-03 -3.9892655252271D-01
185  1.8400000000000D+00  3.9102119839204D-04 -3.9112354724050D-01
186  1.8500000000000D+00  3.2587963141163D-03 -3.8107503945221D-01
187  1.8600000000000D+00  5.6516464469249D-03 -3.6895068683620D-01
188  1.8700000000000D+00  7.5912589685668D-03 -3.5493346532454D-01
189  1.8800000000000D+00  9.1024841576557D-03 -3.3921922342421D-01
190  1.8900000000000D+00  1.0213063320756D-02 -3.2201521762649D-01
191  1.9000000000000D+00  1.0953742183822D-02 -3.0354040276360D-01
192  1.9100000000000D+00  1.1358660439520D-02 -2.8402714776429D-01
193  1.9200000000000D+00  1.1464213508825D-02 -2.6371557955372D-01
194  1.9300000000000D+00  1.1308353224592D-02 -2.4284998055010D-01
195  1.9400000000000D+00  1.0929719231543D-02 -2.2167464583702D-01
196  1.9500000000000D+00  1.0366506869626D-02 -2.0042857636369D-01
197  1.9600000000000D+00  9.6555462885495D-03 -1.7934117227214D-01
198  1.9700000000000D+00  8.8323530584974D-03 -1.5863259785220D-01
199  1.9800000000000D+00  7.9310272634071D-03 -1.3851351465906D-01
200  1.9900000000000D+00  6.9836982105602D-03 -1.1918249874917D-01
201  2.0000000000000D+00  6.0203347475868D-03 -1.0082527779404D-01
202  2.0100000000000D+00  5.0684754333739D-03 -8.3613560536071D-02
203  2.0200000000000D+00  4.1529778157555D-03 -6.7703950694112D-02
204  2.0300000000000D+00  3.2957994482906D-03 -5.3237005894360D-02
205  2.0400000000000D+00  2.5164963435734D-03 -4.0347790470357D-02
206  2.0500000000000D+00  1.8291422671595D-03 -2.9117516448090D-02
207  2.0600000000000D+00  1.2434984702393D-03 -1.9599995478325D-02
208  2.0700000000000D+00  7.7176125730733D-04 -1.1917030384794D-02
209  2.0800000000000D+00  4.2715243823748D-04 -6.2379706339477D-03
210  2.0900000000000D+00  2.1594669871879D-04 -2.6382385334274D-03
211  2.1000000000000D+00  1.0204598157244D-04 -7.0577894152008D-04
212  2.1100000000000D+00  4.4441195637593D-05  6.0195927839686D-05
213  2.1200000000000D+00  1.4069477924721D-05  1.6287381530602D-04
214  2.1300000000000D+00  3.0468871300138D-07  6.5077418474978D-06
215  2.1400000000000D+00 -2.0287252181017D-06 -6.8603777825007D-05
216  2.1500000000000D+00 -8.7344637016315D-07 -4.3293574801194D-05
217  2.1600000000000D+00  3.9166280705653D-07  6.2392830919733D-06
218  2.1700000000000D+00  6.2597968286210D-07  1.1692199499887D-05
219  2.1800000000000D+00  1.1741966529362D-07  2.4962996313426D-06
220  2.1900000000000D+00 -1.7283087057889D-07  5.1702388738039D-07
221  2.2000000000000D+00 -1.5417486914559D-07  4.6121442260302D-07
222  2.2100000000000D+00  0.0000000000000D+00  0.0000000000000D+00
223  2.2200000000000D+00  0.0000000000000D+00  0.0000000000000D+00
224  2.2300000000000D+00  0.0000000000000D+00  0.0000000000000D+00
225  2.2400000000000D+00  0.0000000000000D+00  0.0000000000000D+00
226  2.2500000000000D+00  0.0000000000000D+00  0.0000000000000D+00
227  2.2600000000000D+00  0.0000000000000D+00  0.0000000000000D+00
228  2.2700000000000D+00  0.0000000000000D+00  0.0000000000000D+00
229  2.2800000000000D+00  0.0000000000000D+00  0.0000000000000D+00
230  2.2900000000000D+00  0.0000000000000D+00  0.0000000000000D+00
231  2.3000000000000D+00  0.0000000000000D+00  0.0000000000000D+00
232  2.3100000000000D+00  0.0000000000000D+00  0.0000000000000D+00
233  2.3200000000000D+00  0.0000000000000D+00  0.0000000000000D+00
234  2.3300000000000D+00  0.0000000000000D+00  0.0000000000000D+00
235  2.3400000000000D+00  0.0000000000000D+00  0.0000000000000D+00
236  2.3500000000000D+00  0.0000000000000D+00  0.0000000000000D+00
237  2.3600000000000D+00  0.0000000000000D+00  0.0000000000000D+00
238  2.3700000000000D+00  0.0000000000000D+00  0.0000000000000D+00
239  2.3800000000000D+00  0.0000000000000D+00  0.0000000000000D+00
240  2.3900000000000D+00  0.0000000000000D+00  0.0000000000000D+00
241  2.4000000000000D+00  0.0000000000000D+00  0.0000000000000D+00
242  2.4100000000000D+00  0.0000000000000D+00  0.0000000000000D+00
243  2.4200000000000D+00  0.0000000000000D+00  0.0000000000000D+00
244  2.4300000000000D+00  0.0000000000000D+00  0.0000000000000D+00
245  2.4400000000000D+00  0.0000000000000D+00  0.0000000000000D+00
246  2.4500000000000D+00  0.0000000000000D+00  0.0000000000000D+00
247  2.4600000000000D+00  0.0000000000000D+00  0.0000000000000D+00
248  2.4700000000000D+00  0.0000000000000D+00  0.0000000000000D+00
249  2.4800000000000D+00  0.0000000000000D+00  0.0000000000000D+00
250  2.4900000000000D+00  0.0000000000000D+00  0.0000000000000D+00
251  2.5000000000000D+00  0.0000000000000D+00  0.0000000000000D+00
252  2.5100000000000D+00  0.0000000000000D+00  0.0000000000000D+00
253  2.5200000000000D+00  0.0000000000000D+00  0.0000000000000D+00
254  2.5300000000000D+00  0.0000000000000D+00  0.0000000000000D+00
255  2.5400000000000D+00  0.0000000000000D+00  0.0000000000000D+00
256  2.5500000000000D+00  0.0000000000000D+00  0.0000000000000D+00
257  2.5600000000000D+00  0.0000000000000D+00  0.0000000000000D+00
258  2.5700000000000D+00  0.0000000000000D+00  0.0000000000000D+00
259  2.5800000000000D+00  0.0000000000000D+00  0.0000000000000D+00
260  2.5900000000000D+00  0.0000000000000D+00  0.0000000000000D+00
261  2.6000000000000D+00  0.0000000000000D+00  0.0000000000000D+00
262  2.6100000000000D+00  0.0000000000000D+00  0.0000000000000D+00
263  2.6200000000000D+00  0.0000000000000D+00  0.0000000000000D+00
264  2.6300000000000D+00  0.0000000000000D+00  0.0000000000000D+00
265  2.6400000000000D+00  0.0000000000000D+00  0.0000000000000D+00
266  2.6500000000000D+00  0.0000000000000D+00  0.0000000000000D+00
267  2.6600000000000D+00  0.0000000000000D+00  0.0000000000000D+00
268  2.6700000000000D+00  0.0000000000000D+00  0.0000000000000D+00
269  2.6800000000000D+00  0.0000000000000D+00  0.0000000000000D+00
270  2.6900000000000D+00  0.0000000000000D+00  0.0000000000000D+00
271  2.7000000000000D+00  0.0000000000000D+00  0.0000000000000D+00
272  2.7100000000000D+00  0.0000000000000D+00  0.0000000000000D+00
273  2.7200000000000D+00  0.0000000000000D+00  0.0000000000000D+00
274  2.7300000000000D+00  0.0000000000000D+00  0.0000000000000D+00
275  2.7400000000000D+00  0.0000000000000D+00  0.0000000000000D+00
276  2.7500000000000D+00  0.0000000000000D+00  0.0000000000000D+00
277  2.7600000000000D+00  0.0000000000000D+00  0.0000000000000D+00
278  2.7700000000000D+00  0.0000000000000D+00  0.0000000000000D+00
279  2.7800000000000D+00  0.0000000000000D+00  0.0000000000000D+00
280  2.7900000000000D+00  0.0000000000000D+00  0.0000000000000D+00
281  2.8000000000000D+00  0.0000000000000D+00  0.0000000000000D+00
282  2.8100000000000D+00  0.0000000000000D+00  0.0000000000000D+00
283  2.8200000000000D+00  0.0000000000000D+00  0.0000000000000D+00
284  2.8300000000000D+00  0.0000000000000D+00  0.0000000000000D+00
285  2.8400000000000D+00  0.0000000000000D+00  0.0000000000000D+00
286  2.8500000000000D+00  0.0000000000000D+00  0.0000000000000D+00
287  2.8600000000000D+00  0.0000000000000D+00  0.0000000000000D+00
288  2.8700000000000D+00  0.0000000000000D+00  0.0000000000000D+00
289  2.8800000000000D+00  0.0000000000000D+00  0.0000000000000D+00
290  2.8900000000000D+00  0.0000000000000D+00  0.0000000000000D+00
291  2.9000000000000D+00  0.0000000000000D+00  0.0000000000000D+00
292  2.9100000000000D+00  0.0000000000000D+00  0.0000000000000D+00
293  2.9200000000000D+00  0.0000000000000D+00  0.0000000000000D+00
294  2.9300000000000D+00  0.0000000000000D+00  0.0000000000000D+00
295  2.9400000000000D+00  0.0000000000000D+00  0.0000000000000D+00
296  2.9500000000000D+00  0.0000000000000D+00  0.0000000000000D+00
297  2.9600000000000D+00  0.0000000000000D+00  0.0000000000000D+00
298  2.9700000000000D+00  0.0000000000000D+00  0.0000000000000D+00
299  2.9800000000000D+00  0.0000000000000D+00  0.0000000000000D+00
300  2.9900000000000D+00  0.0000000000000D+00  0.0000000000000D+00
301  3.0000000000000D+00  0.0000000000000D+00  0.0000000000000D+00
302  3.0100000000000D+00  0.0000000000000D+00  0.0000000000000D+00
303  3.0200000000000D+00  0.0000000000000D+00  0.0000000000000D+00
304  3.0300000000000D+00  0.0000000000000D+00  0.0000000000000D+00
305  3.0400000000000D+00  0.0000000000000D+00  0.0000000000000D+00
306  3.0500000000000D+00  0.0000000000000D+00  0.0000000000000D+00
307  3.0600000000000D+00  0.0000000000000D+00  0.0000000000000D+00
308  3.0700000000000D+00  0.0000000000000D+00  0.0000000000000D+00
309  3.0800000000000D+00  0.0000000000000D+00  0.0000000000000D+00
310  3.0900000000000D+00  0.0000000000000D+00  0.0000000000000D+00
311  3.1000000000000D+00  0.0000000000000D+00  0.0000000000000D+00
312  3.1100000000000D+00  0.0000000000000D+00  0.0000000000000D+00
313  3.1200000000000D+00  0.0000000000000D+00  0.0000000000000D+00
314  3.1300000000000D+00  0.0000000000000D+00  0.0000000000000D+00
315  3.1400000000000D+00  0.0000000000000D+00  0.0000000000000D+00
316  3.1500000000000D+00  0.0000000000000D+00  0.0000000000000D+00
317  3.1600000000000D+00  0.0000000000000D+00  0.0000000000000D+00
318  3.1700000000000D+00  0.0000000000000D+00  0.0000000000000D+00
319  3.1800000000000D+00  0.0000000000000D+00  0.0000000000000D+00
320  3.1900000000000D+00  0.0000000000000D+00  0.0000000000000D+00
321  3.2000000000000D+00  0.0000000000000D+00  0.0000000000000D+00
322  3.2100000000000D+00  0.0000000000000D+00  0.0000000000000D+00
323  3.2200000000000D+00  0.0000000000000D+00  0.0000000000000D+00
324  3.2300000000000D+00  0.0000000000000D+00  0.0000000000000D+00
325  3.2400000000000D+00  0.0000000000000D+00  0.0000000000000D+00
326  3.2500000000000D+00  0.0000000000000D+00  0.0000000000000D+00
327  3.2600000000000D+00  0.0000000000000D+00  0.0000000000000D+00
328  3.2700000000000D+00  0.0000000000000D+00  0.0000000000000D+00
329  3.2800000000000D+00  0.0000000000000D+00  0.0000000000000D+00
330  3.2900000000000D+00  0.0000000000000D+00  0.0000000000000D+00
331  3.3000000000000D+00  0.0000000000000D+00  0.0000000000000D+00
332  3.3100000000000D+00  0.0000000000000D+00  0.0000000000000D+00
333  3.3200000000000D+00  0.0000000000000D+00  0.0000000000000D+00
334  3.3300000000000D+00  0.0000000000000D+00  0.0000000000000D+00
335  3.3400000000000D+00  0.0000000000000D+00  0.0000000000000D+00
336  3.3500000000000D+00  0.0000000000000D+00  0.0000000000000D+00
337  3.3600000000000D+00  0.0000000000000D+00  0.0000000000000D+00
338  3.3700000000000D+00  0.0000000000000D+00  0.0000000000000D+00
339  3.3800000000000D+00  0.0000000000000D+00  0.0000000000000D+00
340  3.3900000000000D+00  0.0000000000000D+00  0.0000000000000D+00
341  3.4000000000000D+00  0.0000000000000D+00  0.0000000000000D+00
342  3.4100000000000D+00  0.0000000000000D+00  0.0000000000000D+00
343  3.4200000000000D+00  0.0000000000000D+00  0.0000000000000D+00
344  3.4300000000000D+00  0.0000000000000D+00  0.0000000000000D+00
345  3.4400000000000D+00  0.0000000000000D+00  0.0000000000000D+00
346  3.4500000000000D+00  0.0000000000000D+00  0.0000000000000D+00
347  3.4600000000000D+00  0.0000000000000D+00  0.0000000000000D+00
348  3.4700000000000D+00  0.0000000000000D+00  0.0000000000000D+00
349  3.4800000000000D+00  0.0000000000000D+00  0.0000000000000D+00
350  3.4900000000000D+00  0.0000000000000D+00  0.0000000000000D+00
351  3.5000000000000D+00  0.0000000000000D+00  0.0000000000000D+00
352  3.5100000000000D+00  0.0000000000000D+00  0.0000000000000D+00
353  3.5200000000000D+00  0.0000000000000D+00  0.0000000000000D+00
354  3.5300000000000D+00  0.0000000000000D+00  0.0000000000000D+00
355  3.5400000000000D+00  0.0000000000000D+00  0.0000000000000D+00
356  3.5500000000000D+00  0.0000000000000D+00  0.0000000000000D+00
357  3.5600000000000D+00  0.0000000000000D+00  0.0000000000000D+00
358  3.5700000000000D+00  0.0000000000000D+00  0.0000000000000D+00
359  3.5800000000000D+00  0.0000000000000D+00  0.0000000000000D+00
360  3.5900000000000D+00  0.0000000000000D+00  0.0000000000000D+00
361  3.6000000000000D+00  0.0000000000000D+00  0.0000000000000D+00
362  3.6100000000000D+00  0.0000000000000D+00  0.0000000000000D+00
363  3.6200000000000D+00  0.0000000000000D+00  0.0000000000000D+00
364  3.6300000000000D+00  0.0000000000000D+00  0.0000000000000D+00
365  3.6400000000000D+00  0.0000000000000D+00  0.0000000000000D+00
366  3.6500000000000D+00  0.0000000000000D+00  0.0000000000000D+00
367  3.6600000000000D+00  0.0000000000000D+00  0.0000000000000D+00
368  3.6700000000000D+00  0.0000000000000D+00  0.0000000000000D+00
369  3.6800000000000D+00  0.0000000000000D+00  0.0000000000000D+00
370  3.6900000000000D+00  0.0000000000000D+00  0.0000000000000D+00
371  3.7000000000000D+00  0.0000000000000D+00  0.0000000000000D+00
372  3.7100000000000D+00  0.0000000000000D+00  0.0000000000000D+00
373  3.7200000000000D+00  0.0000000000000D+00  0.0000000000000D+00
374  3.7300000000000D+00  0.0000000000000D+00  0.0000000000000D+00
375  3.7400000000000D+00  0.0000000000000D+00  0.0000000000000D+00
376  3.7500000000000D+00  0.0000000000000D+00  0.0000000000000D+00
377  3.7600000000000D+00  0.0000000000000D+00  0.0000000000000D+00
378  3.7700000000000D+00  0.0000000000000D+00  0.0000000000000D+00
379  3.7800000000000D+00  0.0000000000000D+00  0.0000000000000D+00
380  3.7900000000000D+00  0.0000000000000D+00  0.0000000000000D+00
381  3.8000000000000D+00  0.0000000000000D+00  0.0000000000000D+00
382  3.8100000000000D+00  0.0000000000000D+00  0.0000000000000D+00
383  3.8200000000000D+00  0.0000000000000D+00  0.0000000000000D+00
384  3.8300000000000D+00  0.0000000000000D+00  0.0000000000000D+00
385  3.8400000000000D+00  0.0000000000000D+00  0.0000000000000D+00
386  3.8500000000000D+00  0.0000000000000D+00  0.0000000000000D+00
387  3.8600000000000D+00  0.0000000000000D+00  0.0000000000000D+00
388  3.8700000000000D+00  0.0000000000000D+00  0.0000000000000D+00
389  3.8800000000000D+00  0.0000000000000D+00  0.0000000000000D+00
390  3.8900000000000D+00  0.0000000000000D+00  0.0000000000000D+00
391  3.9000000000000D+00  0.0000000000000D+00  0.0000000000000D+00
392  3.9100000000000D+00  0.0000000000000D+00  0.0000000000000D+00
393  3.9200000000000D+00  0.0000000000000D+00  0.0000000000000D+00
394  3.9300000000000D+00  0.0000000000000D+00  0.0000000000000D+00
395  3.9400000000000D+00  0.0000000000000D+00  0.0000000000000D+00
396  3.9500000000000D+00  0.0000000000000D+00  0.0000000000000D+00
397  3.9600000000000D+00  0.0000000000000D+00  0.0000000000000D+00
398  3.9700000000000D+00  0.0000000000000D+00  0.0000000000000D+00
399  3.9800000000000D+00  0.0000000000000D+00  0.0000000000000D+00
400  3.9900000000000D+00  0.0000000000000D+00  0.0000000000000D+00
401  4.0000000000000D+00  0.0000000000000D+00  0.0000000000000D+00
402  4.0100000000000D+00  0.0000000000000D+00  0.0000000000000D+00
403  4.0200000000000D+00  0.0000000000000D+00  0.0000000000000D+00
404  4.0300000000000D+00  0.0000000000000D+00  0.0000000000000D+00
405  4.0400000000000D+00  0.0000000000000D+00  0.0000000000000D+00
406  4.0500000000000D+00  0.0000000000000D+00  0.0000000000000D+00
407  4.0600000000000D+00  0.0000000000000D+00  0.0000000000000D+00
408  4.0700000000000D+00  0.0000000000000D+00  0.0000000000000D+00
409  4.0800000000000D+00  0.0000000000000D+00  0.0000000000000D+00
410  4.0900000000000D+00  0.0000000000000D+00  0.0000000000000D+00
411  4.1000000000000D+00  0.0000000000000D+00  0.0000000000000D+00
412  4.1100000000000D+00  0.0000000000000D+00  0.0000000000000D+00
413  4.1200000000000D+00  0.0000000000000D+00  0.0000000000000D+00
414  4.1300000000000D+00  0.0000000000000D+00  0.0000000000000D+00
415  4.1400000000000D+00  0.0000000000000D+00  0.0000000000000D+00
416  4.1500000000000D+00  0.0000000000000D+00  0.0000000000000D+00
417  4.1600000000000D+00  0.0000000000000D+00  0.0000000000000D+00
418  4.1700000000000D+00  0.0000000000000D+00  0.0000000000000D+00
419  4.1800000000000D+00  0.0000000000000D+00  0.0000000000000D+00
420  4.1900000000000D+00  0.0000000000000D+00  0.0000000000000D+00
421  4.2000000000000D+00  0.0000000000000D+00  0.0000000000000D+00
422  4.2100000000000D+00  0.0000000000000D+00  0.0000000000000D+00
423  4.2200000000000D+00  0.0000000000000D+00  0.0000000000000D+00
424  4.2300000000000D+00  0.0000000000000D+00  0.0000000000000D+00
425  4.2400000000000D+00  0.0000000000000D+00  0.0000000000000D+00
426  4.2500000000000D+00  0.0000000000000D+00  0.0000000000000D+00
427  4.2600000000000D+00  0.0000000000000D+00  0.0000000000000D+00
428  4.2700000000000D+00  0.0000000000000D+00  0.0000000000000D+00
429  4.2800000000000D+00  0.0000000000000D+00  0.0000000000000D+00
430  4.2900000000000D+00  0.0000000000000D+00  0.0000000000000D+00
431  4.3000000000000D+00  0.0000000000000D+00  0.0000000000000D+00
432  4.3100000000000D+00  0.0000000000000D+00  0.0000000000000D+00
433  4.3200000000000D+00  0.0000000000000D+00  0.0000000000000D+00
434  4.3300000000000D+00  0.0000000000000D+00  0.0000000000000D+00
435  4.3400000000000D+00  0.0000000000000D+00  0.0000000000000D+00
436  4.3500000000000D+00  0.0000000000000D+00  0.0000000000000D+00
437  4.3600000000000D+00  0.0000000000000D+00  0.0000000000000D+00
438  4.3700000000000D+00  0.0000000000000D+00  0.0000000000000D+00
439  4.3800000000000D+00  0.0000000000000D+00  0.0000000000000D+00
440  4.3900000000000D+00  0.0000000000000D+00  0.0000000000000D+00
441  4.4000000000000D+00  0.0000000000000D+00  0.0000000000000D+00
442  4.4100000000000D+00  0.0000000000000D+00  0.0000000000000D+00
443  4.4200000000000D+00  0.0000000000000D+00  0.0000000000000D+00