Ru    ONCVPSP-3.2.3.1  r_core=   1.35650   1.40592   1.30881
44.0000     16.0000      170429    zatom,zion,pspd
8      11   2     4   600     0    pspcod,pspxc,lmax,lloc,mmax,r2well
5.99000000  7.00000000  0.00000000    rchrg fchrg qchrg
2     2     2     0     0    nproj
1     1           extension_switch
0                         1.4629791333786D+01  1.1531908624076D+00
1  0.0000000000000D+00 -8.4731444083275D-10  4.3275517613850D-09
2  1.0000000000000D-02  7.1797329268890D-02 -4.1039151358433D-02
3  2.0000000000000D-02  1.4342826839127D-01 -8.1748681987915D-02
4  3.0000000000000D-02  2.1472734746279D-01 -1.2180296666814D-01
5  4.0000000000000D-02  2.8553092433555D-01 -1.6088430515277D-01
6  5.0000000000000D-02  3.5567806689783D-01 -1.9868672067592D-01
7  6.0000000000000D-02  4.2501139805089D-01 -2.3491956482162D-01
8  7.0000000000000D-02  4.9337789196301D-01 -2.6931086938759D-01
9  8.0000000000000D-02  5.6062961102797D-01 -3.0161039020237D-01
10  9.0000000000000D-02  6.2662437398758D-01 -3.3159229312889D-01
11  1.0000000000000D-01  6.9122634687632D-01 -3.5905743862117D-01
12  1.1000000000000D-01  7.5430654979251D-01 -3.8383522809237D-01
13  1.2000000000000D-01  8.1574327396924D-01 -4.0578498288746D-01
14  1.3000000000000D-01  8.7542240518707D-01 -4.2479683470781D-01
15  1.4000000000000D-01  9.3323765120978D-01 -4.4079211477274D-01
16  1.5000000000000D-01  9.8909067260822D-01 -4.5372323768483D-01
17  1.6000000000000D-01  1.0428911180350D+00 -4.6357308474467D-01
18  1.7000000000000D-01  1.0945565666949D+00 -4.7035390019011D-01
19  1.8000000000000D-01  1.1440123823952D+00 -4.7410572236541D-01
20  1.9000000000000D-01  1.1911914851223D+00 -4.7489438001433D-01
21  2.0000000000000D-01  1.2360340475573D+00 -4.7280909159466D-01
22  2.1000000000000D-01  1.2784871252763D+00 -4.6795971259902D-01
23  2.2000000000000D-01  1.3185042305657D+00 -4.6047368221324D-01
24  2.3000000000000D-01  1.3560448607931D+00 -4.5049272613649D-01
25  2.4000000000000D-01  1.3910739930888D+00 -4.3816937692785D-01
26  2.5000000000000D-01  1.4235615577030D+00 -4.2366337674835D-01
27  2.6000000000000D-01  1.4534819027854D+00 -4.0713802976758D-01
28  2.7000000000000D-01  1.4808132634899D+00 -3.8875657275087D-01
29  2.8000000000000D-01  1.5055372482254D+00 -3.6867863240432D-01
30  2.9000000000000D-01  1.5276383545504D+00 -3.4705683692208D-01
31  3.0000000000000D-01  1.5471035266588D+00 -3.2403364685695D-01
32  3.1000000000000D-01  1.5639217656177D+00 -2.9973846695525D-01
33  3.2000000000000D-01  1.5780838025194D+00 -2.7428509600248D-01
34  3.3000000000000D-01  1.5895818435092D+00 -2.4776956608810D-01
35  3.4000000000000D-01  1.5984093942604D+00 -2.2026841609904D-01
36  3.5000000000000D-01  1.6045611699210D+00 -1.9183743679430D-01
37  3.6000000000000D-01  1.6080330948684D+00 -1.6251091661455D-01
38  3.7000000000000D-01  1.6088223948111D+00 -1.3230140857311D-01
39  3.8000000000000D-01  1.6069277818984D+00 -1.0120002929838D-01
40  3.9000000000000D-01  1.6023497315704D+00 -6.9177291708142D-02
41  4.0000000000000D-01  1.5950908479392D+00 -3.6184463050007D-02
42  4.1000000000000D-01  1.5851563125647D+00 -2.1554303053130D-03
43  4.2000000000000D-01  1.5725544096145D+00  3.2990954609320D-02
44  4.3000000000000D-01  1.5572971186091D+00  6.9348086630620D-02
45  4.4000000000000D-01  1.5394007642809D+00  1.0701842183697D-01
46  4.5000000000000D-01  1.5188867115548D+00  1.4610994780900D-01
47  4.6000000000000D-01  1.4957820923150D+00  1.8673237089566D-01
48  4.7000000000000D-01  1.4701205494852D+00  2.2899308753810D-01
49  4.8000000000000D-01  1.4419429830408D+00  2.7299301206463D-01
50  4.9000000000000D-01  1.4112982819143D+00  3.1882233746169D-01
51  5.0000000000000D-01  1.3782440253636D+00  3.6655630846571D-01
52  5.1000000000000D-01  1.3428471372600D+00  4.1625108783779D-01
53  5.2000000000000D-01  1.3051844769275D+00  4.6793979683208D-01
54  5.3000000000000D-01  1.2653433506289D+00  5.2162880962282D-01
55  5.4000000000000D-01  1.2234219285481D+00  5.7729437882031D-01
56  5.5000000000000D-01  1.1795295531549D+00  6.3487966518810D-01
57  5.6000000000000D-01  1.1337869261409D+00  6.9429223933907D-01
58  5.7000000000000D-01  1.0863261626831D+00  7.5540211658693D-01
59  5.8000000000000D-01  1.0372907035830D+00  8.1804037835590D-01
60  5.9000000000000D-01  9.8683507783752D-01  8.8199842473203D-01
61  6.0000000000000D-01  9.3512451038509D-01  9.4702789297048D-01
62  6.1000000000000D-01  8.8233437210432D-01  1.0128412662436D+00
63  6.2000000000000D-01  8.2864947159100D-01  1.0791131857659D+00
64  6.3000000000000D-01  7.7426319076814D-01  1.1454824678055D+00
65  6.4000000000000D-01  7.1937646892983D-01  1.2115548152987D+00
66  6.5000000000000D-01  6.6419664238599D-01  1.2769062018131D+00
67  6.6000000000000D-01  6.0893614937153D-01  1.3410868938583D+00
68  6.7000000000000D-01  5.5381111229229D-01  1.4036260661305D+00
69  6.8000000000000D-01  4.9903981167252D-01  1.4640369533198D+00
70  6.9000000000000D-01  4.4484106827095D-01  1.5218224719583D+00
71  7.0000000000000D-01  3.9143255173403D-01  1.5764812365065D+00
72  7.1000000000000D-01  3.3902903581147D-01  1.6275138856617D+00
73  7.2000000000000D-01  2.8784062154066D-01  1.6744296278844D+00
74  7.3000000000000D-01  2.3807095087923D-01  1.7167529095352D+00
75  7.4000000000000D-01  1.8991543401501D-01  1.7540301048691D+00
76  7.5000000000000D-01  1.4355951398416D-01  1.7858361245679D+00
77  7.6000000000000D-01  9.9176992274378D-02  1.8117808385615D+00
78  7.7000000000000D-01  5.6928438766076D-02  1.8315152096407D+00
79  7.8000000000000D-01  1.6959708676119D-02  1.8447370368189D+00
80  7.9000000000000D-01 -2.0599411883779D-02  1.8511962115226D+00
81  8.0000000000000D-01 -5.5636411527137D-02  1.8506993954691D+00
82  8.1000000000000D-01 -8.8057091925309D-02  1.8431140364318D+00
83  8.2000000000000D-01 -1.1778642244223D-01  1.8283716469114D+00
84  8.3000000000000D-01 -1.4476919700281D-01  1.8064702809080D+00
85  8.4000000000000D-01 -1.6897048172226D-01  1.7774761553660D+00
86  8.5000000000000D-01 -1.9037584463652D-01  1.7415243752857D+00
87  8.6000000000000D-01 -2.0899136186146D-01  1.6988187347651D+00
88  8.7000000000000D-01 -2.2484339762749D-01  1.6496305801503D+00
89  8.8000000000000D-01 -2.3797815883715D-01  1.5942967358200D+00
90  8.9000000000000D-01 -2.4846102802829D-01  1.5332165076719D+00
91  9.0000000000000D-01 -2.5637568184288D-01  1.4668477938906D+00
92  9.1000000000000D-01 -2.6182300524962D-01  1.3957023468130D+00
93  9.2000000000000D-01 -2.6491981479809D-01  1.3203402434375D+00
94  9.3000000000000D-01 -2.6579740704165D-01  1.2413636351174D+00
95  9.4000000000000D-01 -2.6459995091006D-01  1.1594098590084D+00
96  9.5000000000000D-01 -2.6148274519479D-01  1.0751440047083D+00
97  9.6000000000000D-01 -2.5661036439055D-01  9.8925103903156D-01
98  9.7000000000000D-01 -2.5015471787823D-01  9.0242759983633D-01
99  9.8000000000000D-01 -2.4229304881041D-01  8.1537357613601D-01
100  9.9000000000000D-01 -2.3320590002012D-01  7.2878359614427D-01
101  1.0000000000000D+00 -2.2307507486477D-01  6.4333854763940D-01
102  1.0100000000000D+00 -2.1208162102471D-01  5.5969725555817D-01
103  1.0200000000000D+00 -2.0040386498413D-01  4.7848844042321D-01
104  1.0300000000000D+00 -1.8821552419212D-01  4.0030307789033D-01
105  1.0400000000000D+00 -1.7568392270820D-01  3.2568727425609D-01
106  1.0500000000000D+00 -1.6296833459103D-01  2.5513576569586D-01
107  1.0600000000000D+00 -1.5021847737005D-01  1.8908614021460D-01
108  1.0700000000000D+00 -1.3757317549679D-01  1.2791387009125D-01
109  1.0800000000000D+00 -1.2515921113760D-01  7.1928230964293D-02
110  1.0900000000000D+00 -1.1309037658073D-01  2.1369169522321D-02
111  1.1000000000000D+00 -1.0146673951622D-01 -2.3594832086457D-02
112  1.1100000000000D+00 -9.0374129045888D-02 -6.2867862641218D-02
113  1.1200000000000D+00 -7.9883846561530D-02 -9.6426643651824D-02
114  1.1300000000000D+00 -7.0052602200236D-02 -1.2431954696394D-01
115  1.1400000000000D+00 -6.0922673785444D-02 -1.4666458603206D-01
116  1.1500000000000D+00 -5.2522282055397D-02 -1.6364641301499D-01
117  1.1600000000000D+00 -4.4866171623066D-02 -1.7551237388856D-01
118  1.1700000000000D+00 -3.7956384254949D-02 -1.8256768690038D-01
119  1.1800000000000D+00 -3.1783207913154D-02 -1.8516982413241D-01
120  1.1900000000000D+00 -2.6326282020109D-02 -1.8372218965047D-01
121  1.2000000000000D+00 -2.1555836397652D-02 -1.7866720151265D-01
122  1.2100000000000D+00 -1.7434039329797D-02 -1.7047889405398D-01
123  1.2200000000000D+00 -1.3916428751876D-02 -1.5965516349979D-01
124  1.2300000000000D+00 -1.0953397965940D-02 -1.4670979180601D-01
125  1.2400000000000D+00 -8.4917071366151D-03 -1.3216438418893D-01
126  1.2500000000000D+00 -6.4759910116896D-03 -1.1654035946144D-01
127  1.2600000000000D+00 -4.8502326783840D-03 -1.0035113503605D-01
128  1.2700000000000D+00 -3.5591716627140D-03 -8.4094657099600D-02
129  1.2800000000000D+00 -2.5496289008824D-03 -6.8246349692004D-02
130  1.2900000000000D+00 -1.7717031731126D-03 -5.3252711710105D-02
131  1.3000000000000D+00 -1.1799145030373D-03 -3.9525134606572D-02
132  1.3100000000000D+00 -7.3364556078639D-04 -2.7439157695524D-02
133  1.3200000000000D+00 -3.9902019780748D-04 -1.7322310587379D-02
134  1.3300000000000D+00 -1.5208316751079D-04 -9.3802031748534D-03
135  1.3400000000000D+00  2.2458131060506D-05 -3.9479539046373D-03
136  1.3500000000000D+00  1.2994736206080D-04 -1.2212220953072D-03
137  1.3600000000000D+00  1.2071507427234D-04 -2.5003855152670D-04
138  1.3700000000000D+00  2.3774202851864D-05 -1.1765045411282D-05
139  1.3800000000000D+00 -1.6970318172852D-05 -8.9153700084679D-07
140  1.3900000000000D+00  6.6163042703510D-07 -4.6943871303746D-07
141  1.4000000000000D+00  3.1655750310357D-06 -1.5566950962029D-06
142  1.4100000000000D+00 -3.0126649127342D-07  1.0104581324954D-06
143  1.4200000000000D+00 -1.8908287508845D-07  6.3419044063329D-07
144  1.4300000000000D+00  0.0000000000000D+00  0.0000000000000D+00
145  1.4400000000000D+00  0.0000000000000D+00  0.0000000000000D+00
146  1.4500000000000D+00  0.0000000000000D+00  0.0000000000000D+00
147  1.4600000000000D+00  0.0000000000000D+00  0.0000000000000D+00
148  1.4700000000000D+00  0.0000000000000D+00  0.0000000000000D+00
149  1.4800000000000D+00  0.0000000000000D+00  0.0000000000000D+00
150  1.4900000000000D+00  0.0000000000000D+00  0.0000000000000D+00
151  1.5000000000000D+00  0.0000000000000D+00  0.0000000000000D+00
152  1.5100000000000D+00  0.0000000000000D+00  0.0000000000000D+00
153  1.5200000000000D+00  0.0000000000000D+00  0.0000000000000D+00
154  1.5300000000000D+00  0.0000000000000D+00  0.0000000000000D+00
155  1.5400000000000D+00  0.0000000000000D+00  0.0000000000000D+00
156  1.5500000000000D+00  0.0000000000000D+00  0.0000000000000D+00
157  1.5600000000000D+00  0.0000000000000D+00  0.0000000000000D+00
158  1.5700000000000D+00  0.0000000000000D+00  0.0000000000000D+00
159  1.5800000000000D+00  0.0000000000000D+00  0.0000000000000D+00
160  1.5900000000000D+00  0.0000000000000D+00  0.0000000000000D+00
161  1.6000000000000D+00  0.0000000000000D+00  0.0000000000000D+00
162  1.6100000000000D+00  0.0000000000000D+00  0.0000000000000D+00
163  1.6200000000000D+00  0.0000000000000D+00  0.0000000000000D+00
164  1.6300000000000D+00  0.0000000000000D+00  0.0000000000000D+00
165  1.6400000000000D+00  0.0000000000000D+00  0.0000000000000D+00
166  1.6500000000000D+00  0.0000000000000D+00  0.0000000000000D+00
167  1.6600000000000D+00  0.0000000000000D+00  0.0000000000000D+00
168  1.6700000000000D+00  0.0000000000000D+00  0.0000000000000D+00
169  1.6800000000000D+00  0.0000000000000D+00  0.0000000000000D+00
170  1.6900000000000D+00  0.0000000000000D+00  0.0000000000000D+00
171  1.7000000000000D+00  0.0000000000000D+00  0.0000000000000D+00
172  1.7100000000000D+00  0.0000000000000D+00  0.0000000000000D+00
173  1.7200000000000D+00  0.0000000000000D+00  0.0000000000000D+00
174  1.7300000000000D+00  0.0000000000000D+00  0.0000000000000D+00
175  1.7400000000000D+00  0.0000000000000D+00  0.0000000000000D+00
176  1.7500000000000D+00  0.0000000000000D+00  0.0000000000000D+00
177  1.7600000000000D+00  0.0000000000000D+00  0.0000000000000D+00
178  1.7700000000000D+00  0.0000000000000D+00  0.0000000000000D+00
179  1.7800000000000D+00  0.0000000000000D+00  0.0000000000000D+00
180  1.7900000000000D+00  0.0000000000000D+00  0.0000000000000D+00
181  1.8000000000000D+00  0.0000000000000D+00  0.0000000000000D+00
182  1.8100000000000D+00  0.0000000000000D+00  0.0000000000000D+00
183  1.8200000000000D+00  0.0000000000000D+00  0.0000000000000D+00
184  1.8300000000000D+00  0.0000000000000D+00  0.0000000000000D+00
185  1.8400000000000D+00  0.0000000000000D+00  0.0000000000000D+00
186  1.8500000000000D+00  0.0000000000000D+00  0.0000000000000D+00
187  1.8600000000000D+00  0.0000000000000D+00  0.0000000000000D+00
188  1.8700000000000D+00  0.0000000000000D+00  0.0000000000000D+00
189  1.8800000000000D+00  0.0000000000000D+00  0.0000000000000D+00
190  1.8900000000000D+00  0.0000000000000D+00  0.0000000000000D+00
191  1.9000000000000D+00  0.0000000000000D+00  0.0000000000000D+00
192  1.9100000000000D+00  0.0000000000000D+00  0.0000000000000D+00
193  1.9200000000000D+00  0.0000000000000D+00  0.0000000000000D+00
194  1.9300000000000D+00  0.0000000000000D+00  0.0000000000000D+00
195  1.9400000000000D+00  0.0000000000000D+00  0.0000000000000D+00
196  1.9500000000000D+00  0.0000000000000D+00  0.0000000000000D+00
197  1.9600000000000D+00  0.0000000000000D+00  0.0000000000000D+00
198  1.9700000000000D+00  0.0000000000000D+00  0.0000000000000D+00
199  1.9800000000000D+00  0.0000000000000D+00  0.0000000000000D+00
200  1.9900000000000D+00  0.0000000000000D+00  0.0000000000000D+00
201  2.0000000000000D+00  0.0000000000000D+00  0.0000000000000D+00
202  2.0100000000000D+00  0.0000000000000D+00  0.0000000000000D+00
203  2.0200000000000D+00  0.0000000000000D+00  0.0000000000000D+00
204  2.0300000000000D+00  0.0000000000000D+00  0.0000000000000D+00
205  2.0400000000000D+00  0.0000000000000D+00  0.0000000000000D+00
206  2.0500000000000D+00  0.0000000000000D+00  0.0000000000000D+00
207  2.0600000000000D+00  0.0000000000000D+00  0.0000000000000D+00
208  2.0700000000000D+00  0.0000000000000D+00  0.0000000000000D+00
209  2.0800000000000D+00  0.0000000000000D+00  0.0000000000000D+00
210  2.0900000000000D+00  0.0000000000000D+00  0.0000000000000D+00
211  2.1000000000000D+00  0.0000000000000D+00  0.0000000000000D+00
212  2.1100000000000D+00  0.0000000000000D+00  0.0000000000000D+00
213  2.1200000000000D+00  0.0000000000000D+00  0.0000000000000D+00
214  2.1300000000000D+00  0.0000000000000D+00  0.0000000000000D+00
215  2.1400000000000D+00  0.0000000000000D+00  0.0000000000000D+00
216  2.1500000000000D+00  0.0000000000000D+00  0.0000000000000D+00
217  2.1600000000000D+00  0.0000000000000D+00  0.0000000000000D+00
218  2.1700000000000D+00  0.0000000000000D+00  0.0000000000000D+00
219  2.1800000000000D+00  0.0000000000000D+00  0.0000000000000D+00
220  2.1900000000000D+00  0.0000000000000D+00  0.0000000000000D+00
221  2.2000000000000D+00  0.0000000000000D+00  0.0000000000000D+00
222  2.2100000000000D+00  0.0000000000000D+00  0.0000000000000D+00
223  2.2200000000000D+00  0.0000000000000D+00  0.0000000000000D+00
224  2.2300000000000D+00  0.0000000000000D+00  0.0000000000000D+00
225  2.2400000000000D+00  0.0000000000000D+00  0.0000000000000D+00
226  2.2500000000000D+00  0.0000000000000D+00  0.0000000000000D+00
227  2.2600000000000D+00  0.0000000000000D+00  0.0000000000000D+00
228  2.2700000000000D+00  0.0000000000000D+00  0.0000000000000D+00
229  2.2800000000000D+00  0.0000000000000D+00  0.0000000000000D+00
230  2.2900000000000D+00  0.0000000000000D+00  0.0000000000000D+00
231  2.3000000000000D+00  0.0000000000000D+00  0.0000000000000D+00
232  2.3100000000000D+00  0.0000000000000D+00  0.0000000000000D+00
233  2.3200000000000D+00  0.0000000000000D+00  0.0000000000000D+00
234  2.3300000000000D+00  0.0000000000000D+00  0.0000000000000D+00
235  2.3400000000000D+00  0.0000000000000D+00  0.0000000000000D+00
236  2.3500000000000D+00  0.0000000000000D+00  0.0000000000000D+00
237  2.3600000000000D+00  0.0000000000000D+00  0.0000000000000D+00
238  2.3700000000000D+00  0.0000000000000D+00  0.0000000000000D+00
239  2.3800000000000D+00  0.0000000000000D+00  0.0000000000000D+00
240  2.3900000000000D+00  0.0000000000000D+00  0.0000000000000D+00
241  2.4000000000000D+00  0.0000000000000D+00  0.0000000000000D+00
242  2.4100000000000D+00  0.0000000000000D+00  0.0000000000000D+00
243  2.4200000000000D+00  0.0000000000000D+00  0.0000000000000D+00
244  2.4300000000000D+00  0.0000000000000D+00  0.0000000000000D+00
245  2.4400000000000D+00  0.0000000000000D+00  0.0000000000000D+00
246  2.4500000000000D+00  0.0000000000000D+00  0.0000000000000D+00
247  2.4600000000000D+00  0.0000000000000D+00  0.0000000000000D+00
248  2.4700000000000D+00  0.0000000000000D+00  0.0000000000000D+00
249  2.4800000000000D+00  0.0000000000000D+00  0.0000000000000D+00
250  2.4900000000000D+00  0.0000000000000D+00  0.0000000000000D+00
251  2.5000000000000D+00  0.0000000000000D+00  0.0000000000000D+00
252  2.5100000000000D+00  0.0000000000000D+00  0.0000000000000D+00
253  2.5200000000000D+00  0.0000000000000D+00  0.0000000000000D+00
254  2.5300000000000D+00  0.0000000000000D+00  0.0000000000000D+00
255  2.5400000000000D+00  0.0000000000000D+00  0.0000000000000D+00
256  2.5500000000000D+00  0.0000000000000D+00  0.0000000000000D+00
257  2.5600000000000D+00  0.0000000000000D+00  0.0000000000000D+00
258  2.5700000000000D+00  0.0000000000000D+00  0.0000000000000D+00
259  2.5800000000000D+00  0.0000000000000D+00  0.0000000000000D+00
260  2.5900000000000D+00  0.0000000000000D+00  0.0000000000000D+00
261  2.6000000000000D+00  0.0000000000000D+00  0.0000000000000D+00
262  2.6100000000000D+00  0.0000000000000D+00  0.0000000000000D+00
263  2.6200000000000D+00  0.0000000000000D+00  0.0000000000000D+00
264  2.6300000000000D+00  0.0000000000000D+00  0.0000000000000D+00
265  2.6400000000000D+00  0.0000000000000D+00  0.0000000000000D+00
266  2.6500000000000D+00  0.0000000000000D+00  0.0000000000000D+00
267  2.6600000000000D+00  0.0000000000000D+00  0.0000000000000D+00
268  2.6700000000000D+00  0.0000000000000D+00  0.0000000000000D+00
269  2.6800000000000D+00  0.0000000000000D+00  0.0000000000000D+00
270  2.6900000000000D+00  0.0000000000000D+00  0.0000000000000D+00
271  2.7000000000000D+00  0.0000000000000D+00  0.0000000000000D+00
272  2.7100000000000D+00  0.0000000000000D+00  0.0000000000000D+00
273  2.7200000000000D+00  0.0000000000000D+00  0.0000000000000D+00
274  2.7300000000000D+00  0.0000000000000D+00  0.0000000000000D+00
275  2.7400000000000D+00  0.0000000000000D+00  0.0000000000000D+00
276  2.7500000000000D+00  0.0000000000000D+00  0.0000000000000D+00
277  2.7600000000000D+00  0.0000000000000D+00  0.0000000000000D+00
278  2.7700000000000D+00  0.0000000000000D+00  0.0000000000000D+00
279  2.7800000000000D+00  0.0000000000000D+00  0.0000000000000D+00
280  2.7900000000000D+00  0.0000000000000D+00  0.0000000000000D+00
281  2.8000000000000D+00  0.0000000000000D+00  0.0000000000000D+00
282  2.8100000000000D+00  0.0000000000000D+00  0.0000000000000D+00
283  2.8200000000000D+00  0.0000000000000D+00  0.0000000000000D+00
284  2.8300000000000D+00  0.0000000000000D+00  0.0000000000000D+00
285  2.8400000000000D+00  0.0000000000000D+00  0.0000000000000D+00
286  2.8500000000000D+00  0.0000000000000D+00  0.0000000000000D+00
287  2.8600000000000D+00  0.0000000000000D+00  0.0000000000000D+00
288  2.8700000000000D+00  0.0000000000000D+00  0.0000000000000D+00
289  2.8800000000000D+00  0.0000000000000D+00  0.0000000000000D+00
290  2.8900000000000D+00  0.0000000000000D+00  0.0000000000000D+00
291  2.9000000000000D+00  0.0000000000000D+00  0.0000000000000D+00
292  2.9100000000000D+00  0.0000000000000D+00  0.0000000000000D+00
293  2.9200000000000D+00  0.0000000000000D+00  0.0000000000000D+00
294  2.9300000000000D+00  0.0000000000000D+00  0.0000000000000D+00
295  2.9400000000000D+00  0.0000000000000D+00  0.0000000000000D+00
296  2.9500000000000D+00  0.0000000000000D+00  0.0000000000000D+00
297  2.9600000000000D+00  0.0000000000000D+00  0.0000000000000D+00
298  2.9700000000000D+00  0.0000000000000D+00  0.0000000000000D+00
299  2.9800000000000D+00  0.0000000000000D+00  0.0000000000000D+00
300  2.9900000000000D+00  0.0000000000000D+00  0.0000000000000D+00
301  3.0000000000000D+00  0.0000000000000D+00  0.0000000000000D+00
302  3.0100000000000D+00  0.0000000000000D+00  0.0000000000000D+00
303  3.0200000000000D+00  0.0000000000000D+00  0.0000000000000D+00
304  3.0300000000000D+00  0.0000000000000D+00  0.0000000000000D+00
305  3.0400000000000D+00  0.0000000000000D+00  0.0000000000000D+00
306  3.0500000000000D+00  0.0000000000000D+00  0.0000000000000D+00
307  3.0600000000000D+00  0.0000000000000D+00  0.0000000000000D+00
308  3.0700000000000D+00  0.0000000000000D+00  0.0000000000000D+00
309  3.0800000000000D+00  0.0000000000000D+00  0.0000000000000D+00
310  3.0900000000000D+00  0.0000000000000D+00  0.0000000000000D+00
311  3.1000000000000D+00  0.0000000000000D+00  0.0000000000000D+00
312  3.1100000000000D+00  0.0000000000000D+00  0.0000000000000D+00
313  3.1200000000000D+00  0.0000000000000D+00  0.0000000000000D+00
314  3.1300000000000D+00  0.0000000000000D+00  0.0000000000000D+00
315  3.1400000000000D+00  0.0000000000000D+00  0.0000000000000D+00
316  3.1500000000000D+00  0.0000000000000D+00  0.0000000000000D+00
317  3.1600000000000D+00  0.0000000000000D+00  0.0000000000000D+00
318  3.1700000000000D+00  0.0000000000000D+00  0.0000000000000D+00
319  3.1800000000000D+00  0.0000000000000D+00  0.0000000000000D+00
320  3.1900000000000D+00  0.0000000000000D+00  0.0000000000000D+00
321  3.2000000000000D+00  0.0000000000000D+00  0.0000000000000D+00
322  3.2100000000000D+00  0.0000000000000D+00  0.0000000000000D+00
323  3.2200000000000D+00  0.0000000000000D+00  0.0000000000000D+00
324  3.2300000000000D+00  0.0000000000000D+00  0.0000000000000D+00
325  3.2400000000000D+00  0.0000000000000D+00  0.0000000000000D+00
326  3.2500000000000D+00  0.0000000000000D+00  0.0000000000000D+00
327  3.2600000000000D+00  0.0000000000000D+00  0.0000000000000D+00
328  3.2700000000000D+00  0.0000000000000D+00  0.0000000000000D+00
329  3.2800000000000D+00  0.0000000000000D+00  0.0000000000000D+00
330  3.2900000000000D+00  0.0000000000000D+00  0.0000000000000D+00
331  3.3000000000000D+00  0.0000000000000D+00  0.0000000000000D+00
332  3.3100000000000D+00  0.0000000000000D+00  0.0000000000000D+00
333  3.3200000000000D+00  0.0000000000000D+00  0.0000000000000D+00
334  3.3300000000000D+00  0.0000000000000D+00  0.0000000000000D+00
335  3.3400000000000D+00  0.0000000000000D+00  0.0000000000000D+00
336  3.3500000000000D+00  0.0000000000000D+00  0.0000000000000D+00
337  3.3600000000000D+00  0.0000000000000D+00  0.0000000000000D+00
338  3.3700000000000D+00  0.0000000000000D+00  0.0000000000000D+00
339  3.3800000000000D+00  0.0000000000000D+00  0.0000000000000D+00
340  3.3900000000000D+00  0.0000000000000D+00  0.0000000000000D+00
341  3.4000000000000D+00  0.0000000000000D+00  0.0000000000000D+00
342  3.4100000000000D+00  0.0000000000000D+00  0.0000000000000D+00
343  3.4200000000000D+00  0.0000000000000D+00  0.0000000000000D+00
344  3.4300000000000D+00  0.0000000000000D+00  0.0000000000000D+00
345  3.4400000000000D+00  0.0000000000000D+00  0.0000000000000D+00
346  3.4500000000000D+00  0.0000000000000D+00  0.0000000000000D+00
347  3.4600000000000D+00  0.0000000000000D+00  0.0000000000000D+00
348  3.4700000000000D+00  0.0000000000000D+00  0.0000000000000D+00
349  3.4800000000000D+00  0.0000000000000D+00  0.0000000000000D+00
350  3.4900000000000D+00  0.0000000000000D+00  0.0000000000000D+00
351  3.5000000000000D+00  0.0000000000000D+00  0.0000000000000D+00
352  3.5100000000000D+00  0.0000000000000D+00  0.0000000000000D+00
353  3.5200000000000D+00  0.0000000000000D+00  0.0000000000000D+00
354  3.5300000000000D+00  0.0000000000000D+00  0.0000000000000D+00
355  3.5400000000000D+00  0.0000000000000D+00  0.0000000000000D+00
356  3.5500000000000D+00  0.0000000000000D+00  0.0000000000000D+00
357  3.5600000000000D+00  0.0000000000000D+00  0.0000000000000D+00
358  3.5700000000000D+00  0.0000000000000D+00  0.0000000000000D+00
359  3.5800000000000D+00  0.0000000000000D+00  0.0000000000000D+00
360  3.5900000000000D+00  0.0000000000000D+00  0.0000000000000D+00
361  3.6000000000000D+00  0.0000000000000D+00  0.0000000000000D+00
362  3.6100000000000D+00  0.0000000000000D+00  0.0000000000000D+00
363  3.6200000000000D+00  0.0000000000000D+00  0.0000000000000D+00
364  3.6300000000000D+00  0.0000000000000D+00  0.0000000000000D+00
365  3.6400000000000D+00  0.0000000000000D+00  0.0000000000000D+00
366  3.6500000000000D+00  0.0000000000000D+00  0.0000000000000D+00
367  3.6600000000000D+00  0.0000000000000D+00  0.0000000000000D+00
368  3.6700000000000D+00  0.0000000000000D+00  0.0000000000000D+00
369  3.6800000000000D+00  0.0000000000000D+00  0.0000000000000D+00
370  3.6900000000000D+00  0.0000000000000D+00  0.0000000000000D+00
371  3.7000000000000D+00  0.0000000000000D+00  0.0000000000000D+00
372  3.7100000000000D+00  0.0000000000000D+00  0.0000000000000D+00
373  3.7200000000000D+00  0.0000000000000D+00  0.0000000000000D+00
374  3.7300000000000D+00  0.0000000000000D+00  0.0000000000000D+00
375  3.7400000000000D+00  0.0000000000000D+00  0.0000000000000D+00
376  3.7500000000000D+00  0.0000000000000D+00  0.0000000000000D+00
377  3.7600000000000D+00  0.0000000000000D+00  0.0000000000000D+00
378  3.7700000000000D+00  0.0000000000000D+00  0.0000000000000D+00
379  3.7800000000000D+00  0.0000000000000D+00  0.0000000000000D+00
380  3.7900000000000D+00  0.0000000000000D+00  0.0000000000000D+00
381  3.8000000000000D+00  0.0000000000000D+00  0.0000000000000D+00
382  3.8100000000000D+00  0.0000000000000D+00  0.0000000000000D+00
383  3.8200000000000D+00  0.0000000000000D+00  0.0000000000000D+00
384  3.8300000000000D+00  0.0000000000000D+00  0.0000000000000D+00
385  3.8400000000000D+00  0.0000000000000D+00  0.0000000000000D+00
386  3.8500000000000D+00  0.0000000000000D+00  0.0000000000000D+00
387  3.8600000000000D+00  0.0000000000000D+00  0.0000000000000D+00
388  3.8700000000000D+00  0.0000000000000D+00  0.0000000000000D+00
389  3.8800000000000D+00  0.0000000000000D+00  0.0000000000000D+00
390  3.8900000000000D+00  0.0000000000000D+00  0.0000000000000D+00
391  3.9000000000000D+00  0.0000000000000D+00  0.0000000000000D+00
392  3.9100000000000D+00  0.0000000000000D+00  0.0000000000000D+00
393  3.9200000000000D+00  0.0000000000000D+00  0.0000000000000D+00
394  3.9300000000000D+00  0.0000000000000D+00  0.0000000000000D+00
395  3.9400000000000D+00  0.0000000000000D+00  0.0000000000000D+00
396  3.9500000000000D+00  0.0000000000000D+00  0.0000000000000D+00
397  3.9600000000000D+00  0.0000000000000D+00  0.0000000000000D+00
398  3.9700000000000D+00  0.0000000000000D+00  0.0000000000000D+00
399  3.9800000000000D+00  0.0000000000000D+00  0.0000000000000D+00
400  3.9900000000000D+00  0.0000000000000D+00  0.0000000000000D+00
401  4.0000000000000D+00  0.0000000000000D+00  0.0000000000000D+00
402  4.0100000000000D+00  0.0000000000000D+00  0.0000000000000D+00
403  4.0200000000000D+00  0.0000000000000D+00  0.0000000000000D+00
404  4.0300000000000D+00  0.0000000000000D+00  0.0000000000000D+00
405  4.0400000000000D+00  0.0000000000000D+00  0.0000000000000D+00
406  4.0500000000000D+00  0.0000000000000D+00  0.0000000000000D+00
407  4.0600000000000D+00  0.0000000000000D+00  0.0000000000000D+00
408  4.0700000000000D+00  0.0000000000000D+00  0.0000000000000D+00
409  4.0800000000000D+00  0.0000000000000D+00  0.0000000000000D+00
410  4.0900000000000D+00  0.0000000000000D+00  0.0000000000000D+00
411  4.1000000000000D+00  0.0000000000000D+00  0.0000000000000D+00
412  4.1100000000000D+00  0.0000000000000D+00  0.0000000000000D+00
413  4.1200000000000D+00  0.0000000000000D+00  0.0000000000000D+00
414  4.1300000000000D+00  0.0000000000000D+00  0.0000000000000D+00
415  4.1400000000000D+00  0.0000000000000D+00  0.0000000000000D+00
416  4.1500000000000D+00  0.0000000000000D+00  0.0000000000000D+00
417  4.1600000000000D+00  0.0000000000000D+00  0.0000000000000D+00
418  4.1700000000000D+00  0.0000000000000D+00  0.0000000000000D+00
419  4.1800000000000D+00  0.0000000000000D+00  0.0000000000000D+00
420  4.1900000000000D+00  0.0000000000000D+00  0.0000000000000D+00
421  4.2000000000000D+00  0.0000000000000D+00  0.0000000000000D+00
422  4.2100000000000D+00  0.0000000000000D+00  0.0000000000000D+00
423  4.2200000000000D+00  0.0000000000000D+00  0.0000000000000D+00
424  4.2300000000000D+00  0.0000000000000D+00  0.0000000000000D+00
425  4.2400000000000D+00  0.0000000000000D+00  0.0000000000000D+00
426  4.2500000000000D+00  0.0000000000000D+00  0.0000000000000D+00
427  4.2600000000000D+00  0.0000000000000D+00  0.0000000000000D+00
428  4.2700000000000D+00  0.0000000000000D+00  0.0000000000000D+00
429  4.2800000000000D+00  0.0000000000000D+00  0.0000000000000D+00
430  4.2900000000000D+00  0.0000000000000D+00  0.0000000000000D+00
431  4.3000000000000D+00  0.0000000000000D+00  0.0000000000000D+00
432  4.3100000000000D+00  0.0000000000000D+00  0.0000000000000D+00
433  4.3200000000000D+00  0.0000000000000D+00  0.0000000000000D+00
434  4.3300000000000D+00  0.0000000000000D+00  0.0000000000000D+00
435  4.3400000000000D+00  0.0000000000000D+00  0.0000000000000D+00
436  4.3500000000000D+00  0.0000000000000D+00  0.0000000000000D+00
437  4.3600000000000D+00  0.0000000000000D+00  0.0000000000000D+00
438  4.3700000000000D+00  0.0000000000000D+00  0.0000000000000D+00
439  4.3800000000000D+00  0.0000000000000D+00  0.0000000000000D+00
440  4.3900000000000D+00  0.0000000000000D+00  0.0000000000000D+00
441  4.4000000000000D+00  0.0000000000000D+00  0.0000000000000D+00
442  4.4100000000000D+00  0.0000000000000D+00  0.0000000000000D+00
443  4.4200000000000D+00  0.0000000000000D+00  0.0000000000000D+00