Li    ONCVPSP-3.3.0  r_core=   1.40824   1.10935
3.0000      3.0000      180418    zatom,zion,pspd
8      11   1     4   400     0    pspcod,pspxc,lmax,lloc,mmax,r2well
3.99000000  0.00000000  0.00000000    rchrg fchrg qchrg
2     2     0     0    nproj
3     1           extension_switch
3     0     0    nprojso
0                        -4.9515453014112D+00 -1.5447986742449D+00
1  0.0000000000000D+00 -6.2442973014498D-10  1.8557395620178D-09
2  1.0000000000000D-02  9.4750553722490D-02 -4.3885203586814D-02
3  2.0000000000000D-02  1.8919163246414D-01 -8.7391836839466D-02
4  3.0000000000000D-02  2.8301534984904D-01 -1.3014445928234D-01
5  4.0000000000000D-02  3.7591698341204D-01 -1.7177385511949D-01
6  5.0000000000000D-02  4.6759652346808D-01 -2.1192005846271D-01
7  6.0000000000000D-02  5.5776018272932D-01 -2.5023527536689D-01
8  7.0000000000000D-02  6.4612185433034D-01 -2.8638667048989D-01
9  8.0000000000000D-02  7.3240450654656D-01 -3.2005898804953D-01
10  9.0000000000000D-02  8.1634150325417D-01 -3.5095697901776D-01
11  1.0000000000000D-01  8.9767784007191D-01 -3.7880760913731D-01
12  1.1000000000000D-01  9.7617128713221D-01 -4.0336202532981D-01
13  1.2000000000000D-01  1.0515934305374D+00 -4.2439726134239D-01
14  1.3000000000000D-01  1.1237306057502D+00 -4.4171766700326D-01
15  1.4000000000000D-01  1.1923847174300D+00 -4.5515604917385D-01
16  1.5000000000000D-01  1.2573739415376D+00 -4.6457451633994D-01
17  1.6000000000000D-01  1.3185333068766D+00 -4.6986502272083D-01
18  1.7000000000000D-01  1.3757151545954D+00 -4.7094961173491D-01
19  1.8000000000000D-01  1.4287894755252D+00 -4.6778036258419D-01
20  1.9000000000000D-01  1.4776441265562D+00 -4.6033904755170D-01
21  2.0000000000000D-01  1.5221849285352D+00 -4.4863651128751D-01
22  2.1000000000000D-01  1.5623356493923D+00 -4.3271178683858D-01
23  2.2000000000000D-01  1.5980378773474D+00 -4.1263096640351D-01
24  2.3000000000000D-01  1.6292507900997D+00 -3.8848584771882D-01
25  2.4000000000000D-01  1.6559508268506D+00 -3.6039237956759D-01
26  2.5000000000000D-01  1.6781312708345D+00 -3.2848893210707D-01
27  2.6000000000000D-01  1.6958017507344D+00 -2.9293441950808D-01
28  2.7000000000000D-01  1.7089876699176D+00 -2.5390630376267D-01
29  2.8000000000000D-01  1.7177295728468D+00 -2.1159850942893D-01
30  2.9000000000000D-01  1.7220824582932D+00 -1.6621927953290D-01
31  3.0000000000000D-01  1.7221150491036D+00 -1.1798900283373D-01
32  3.1000000000000D-01  1.7179090282451D+00 -6.7138042184026D-02
33  3.2000000000000D-01  1.7095582506887D+00 -1.3904592792262D-02
34  3.3000000000000D-01  1.6971679403803D+00  4.1467402161891D-02
35  3.4000000000000D-01  1.6808538811122D+00  9.8730252872611D-02
36  3.5000000000000D-01  1.6607416095449D+00  1.5763441766641D-01
37  3.6000000000000D-01  1.6369656179587D+00  2.1793027010672D-01
38  3.7000000000000D-01  1.6096685735435D+00  2.7936972015389D-01
39  3.8000000000000D-01  1.5790005601839D+00  3.4170767411687D-01
40  3.9000000000000D-01  1.5451183477752D+00  4.0470332136036D-01
41  4.0000000000000D-01  1.5081846931371D+00  4.6812123910374D-01
42  4.1000000000000D-01  1.4683676755840D+00  5.3173231011172D-01
43  4.2000000000000D-01  1.4258400691982D+00  5.9531445157255D-01
44  4.3000000000000D-01  1.3807787528278D+00  6.5865315693016D-01
45  4.4000000000000D-01  1.3333641578439D+00  7.2154185582550D-01
46  4.5000000000000D-01  1.2837797527285D+00  7.8378210055134D-01
47  4.6000000000000D-01  1.2322115626649D+00  8.4518359048301D-01
48  4.7000000000000D-01  1.1788477214729D+00  9.0556404876118D-01
49  4.8000000000000D-01  1.1238780524826D+00  9.6474896802802D-01
50  4.9000000000000D-01  1.0674936742960D+00  1.0225712442106D+00
51  5.0000000000000D-01  1.0098866268485D+00  1.0788707191695D+00
52  5.1000000000000D-01  9.5124951276416D-01  1.1334936544559D+00
53  5.2000000000000D-01  8.9177514870933D-01  1.1862921594228D+00
54  5.3000000000000D-01  8.3165622129021D-01  1.2371235974950D+00
55  5.4000000000000D-01  7.7108494201693D-01  1.2858499945162D+00
56  5.5000000000000D-01  7.1025269596930D-01  1.3323374727445D+00
57  5.6000000000000D-01  6.4934967904542D-01  1.3764557332800D+00
58  5.7000000000000D-01  5.8856451905111D-01  1.4180776084784D+00
59  5.8000000000000D-01  5.2808387638655D-01  1.4570787042603D+00
60  5.9000000000000D-01  4.6809202070220D-01  1.4933371501936D+00
61  6.0000000000000D-01  4.0877038061269D-01  1.5267334728357D+00
62  6.1000000000000D-01  3.5029706436926D-01  1.5571506051116D+00
63  6.2000000000000D-01  2.9284635027499D-01  1.5844740415328D+00
64  6.3000000000000D-01  2.3658814657923D-01  1.6085921458487D+00
65  6.4000000000000D-01  1.8168742157587D-01  1.6293966143637D+00
66  6.5000000000000D-01  1.2830360565050D-01  1.6467830946694D+00
67  6.6000000000000D-01  7.6589968048015D-02  1.6606519560015D+00
68  6.7000000000000D-01  2.6692972143206D-02  1.6709092039250D+00
69  6.8000000000000D-01 -2.1248386018014D-02  1.6774675285880D+00
70  6.9000000000000D-01 -6.7103250206644D-02  1.6802474724683D+00
71  7.0000000000000D-01 -1.1074958096327D-01  1.6791787004124D+00
72  7.1000000000000D-01 -1.5207482967431D-01  1.6742013518899D+00
73  7.2000000000000D-01 -1.9097660175132D-01  1.6652674528020D+00
74  7.3000000000000D-01 -2.2736330033603D-01  1.6523423619619D+00
75  7.4000000000000D-01 -2.6115474152509D-01  1.6354062255313D+00
76  7.5000000000000D-01 -2.9228273182125D-01  1.6144554112994D+00
77  7.6000000000000D-01 -3.2069159838223D-01  1.5895038937535D+00
78  7.7000000000000D-01 -3.4633866265948D-01  1.5605845604448D+00
79  7.8000000000000D-01 -3.6919464820296D-01  1.5277504102081D+00
80  7.9000000000000D-01 -3.8924401375475D-01  1.4910756143672D+00
81  8.0000000000000D-01 -4.0648520326359D-01  1.4506564131399D+00
82  8.1000000000000D-01 -4.2093080512082D-01  1.4066118210447D+00
83  8.2000000000000D-01 -4.3260761373907D-01  1.3590841171926D+00
84  8.3000000000000D-01 -4.4155658755937D-01  1.3082390988867D+00
85  8.4000000000000D-01 -4.4783269866948D-01  1.2542660799311D+00
86  8.5000000000000D-01 -4.5150467043160D-01  1.1973776184170D+00
87  8.6000000000000D-01 -4.5265460083568D-01  1.1378089624699D+00
88  8.7000000000000D-01 -4.5137747069798D-01  1.0758172064518D+00
89  8.8000000000000D-01 -4.4778053729273D-01  1.0116801543542D+00
90  8.9000000000000D-01 -4.4198261551797D-01  9.4569489154035D-01
91  9.0000000000000D-01 -4.3411325023206D-01  8.7817607051636D-01
92  9.1000000000000D-01 -4.2431178493274D-01  8.0945392097554D-01
93  9.2000000000000D-01 -4.1272633346216D-01  7.3987199889089D-01
94  9.3000000000000D-01 -3.9951266288642D-01  6.6978469385656D-01
95  9.4000000000000D-01 -3.8483299709346D-01  5.9955451813198D-01
96  9.5000000000000D-01 -3.6885475195613D-01  5.2954920485136D-01
97  9.6000000000000D-01 -3.5174921409589D-01  4.6013864655665D-01
98  9.7000000000000D-01 -3.3369017634759D-01  3.9169170857103D-01
99  9.8000000000000D-01 -3.1485254390601D-01  3.2457295454760D-01
100  9.9000000000000D-01 -2.9541092590580D-01  2.5913932406043D-01
101  1.0000000000000D+00 -2.7553822771405D-01  1.9573680391249D-01
102  1.0100000000000D+00 -2.5540425958613D-01  1.3469713619892D-01
103  1.0200000000000D+00 -2.3517437749188D-01  7.6334606898199D-02
104  1.0300000000000D+00 -2.1500817186801D-01  2.0942958887039D-02
105  1.0400000000000D+00 -1.9505821977264D-01 -3.1207527275892D-02
106  1.0500000000000D+00 -1.7546891549194D-01 -7.9872742451323D-02
107  1.0600000000000D+00 -1.5637539390452D-01 -1.2483720747236D-01
108  1.0700000000000D+00 -1.3790256006445D-01 -1.6591624296956D-01
109  1.0800000000000D+00 -1.2016423761545D-01 -2.0295781439201D-01
110  1.0900000000000D+00 -1.0326244740882D-01 -2.3584401970367D-01
111  1.1000000000000D+00 -8.7286810483138D-02 -2.6449224622810D-01
112  1.1100000000000D+00 -7.2314164980314D-02 -2.8885568610762D-01
113  1.1200000000000D+00 -5.8408137002886D-02 -3.0892413795897D-01
114  1.1300000000000D+00 -4.5618523665277D-02 -3.2472558737137D-01
115  1.1400000000000D+00 -3.3980780938360D-02 -3.3632744936499D-01
116  1.1500000000000D+00 -2.3516009664907D-02 -3.4383612837288D-01
117  1.1600000000000D+00 -1.4231233556655D-02 -3.4739565382714D-01
118  1.1700000000000D+00 -6.1197797283976D-03 -3.4718608607483D-01
119  1.1800000000000D+00  8.3817456906827D-04 -3.4342145233432D-01
120  1.1900000000000D+00  6.6749097827351D-03 -3.3634728431318D-01
121  1.2000000000000D+00  1.1434334988647D-02 -3.2623778171282D-01
122  1.2100000000000D+00  1.5171031832798D-02 -3.1339262989621D-01
123  1.2200000000000D+00  1.7949183242463D-02 -2.9813350563144D-01
124  1.2300000000000D+00  1.9841400448150D-02 -2.8080031006971D-01
125  1.2400000000000D+00  2.0927462783881D-02 -2.6174717086760D-01
126  1.2500000000000D+00  2.1292985568199D-02 -2.4133825781628D-01
127  1.2600000000000D+00  2.1028032957518D-02 -2.1994346107727D-01
128  1.2700000000000D+00  2.0225692626690D-02 -1.9793398105497D-01
129  1.2800000000000D+00  1.8980629756202D-02 -1.7567788077317D-01
130  1.2900000000000D+00  1.7387638310355D-02 -1.5353565321350D-01
131  1.3000000000000D+00  1.5540206812796D-02 -1.3185585381770D-01
132  1.3100000000000D+00  1.3529116554678D-02 -1.1097085049854D-01
133  1.3200000000000D+00  1.1441088821241D-02 -9.1192739670817D-02
134  1.3300000000000D+00  9.3574969342850D-03 -7.2809474492718D-02
135  1.3400000000000D+00  7.3531594412739D-03 -5.6081253101557D-02
136  1.3500000000000D+00  5.4952273498919D-03 -4.1237204656856D-02
137  1.3600000000000D+00  3.8423903780122D-03 -2.8473984894979D-02
138  1.3700000000000D+00  2.4437787230243D-03 -1.7951591880617D-02
139  1.3800000000000D+00  1.3316589204543D-03 -9.7425871447976D-03
140  1.3900000000000D+00  5.4708159643980D-04 -4.0251657096036D-03
141  1.4000000000000D+00  1.1933644187611D-04 -9.3410239861813D-04
142  1.4100000000000D+00 -2.6508843441302D-05  1.3111235421847D-04
143  1.4200000000000D+00 -1.9777030258396D-05  1.2356365094711D-04
144  1.4300000000000D+00  7.9142137154646D-06 -5.0698862304418D-05
145  1.4400000000000D+00  3.1390512017277D-06 -2.0353290815394D-05
146  1.4500000000000D+00 -1.7188071840803D-06  1.0861646965536D-05
147  1.4600000000000D+00  4.3865091046064D-09 -1.3609050052301D-08
148  1.4700000000000D+00  4.2004311114354D-08 -1.3031747084883D-07
149  1.4800000000000D+00  0.0000000000000D+00  0.0000000000000D+00
150  1.4900000000000D+00  0.0000000000000D+00  0.0000000000000D+00
151  1.5000000000000D+00  0.0000000000000D+00  0.0000000000000D+00
152  1.5100000000000D+00  0.0000000000000D+00  0.0000000000000D+00
153  1.5200000000000D+00  0.0000000000000D+00  0.0000000000000D+00
154  1.5300000000000D+00  0.0000000000000D+00  0.0000000000000D+00
155  1.5400000000000D+00  0.0000000000000D+00  0.0000000000000D+00
156  1.5500000000000D+00  0.0000000000000D+00  0.0000000000000D+00
157  1.5600000000000D+00  0.0000000000000D+00  0.0000000000000D+00
158  1.5700000000000D+00  0.0000000000000D+00  0.0000000000000D+00
159  1.5800000000000D+00  0.0000000000000D+00  0.0000000000000D+00
160  1.5900000000000D+00  0.0000000000000D+00  0.0000000000000D+00
161  1.6000000000000D+00  0.0000000000000D+00  0.0000000000000D+00
162  1.6100000000000D+00  0.0000000000000D+00  0.0000000000000D+00
163  1.6200000000000D+00  0.0000000000000D+00  0.0000000000000D+00
164  1.6300000000000D+00  0.0000000000000D+00  0.0000000000000D+00
165  1.6400000000000D+00  0.0000000000000D+00  0.0000000000000D+00
166  1.6500000000000D+00  0.0000000000000D+00  0.0000000000000D+00
167  1.6600000000000D+00  0.0000000000000D+00  0.0000000000000D+00
168  1.6700000000000D+00  0.0000000000000D+00  0.0000000000000D+00
169  1.6800000000000D+00  0.0000000000000D+00  0.0000000000000D+00
170  1.6900000000000D+00  0.0000000000000D+00  0.0000000000000D+00
171  1.7000000000000D+00  0.0000000000000D+00  0.0000000000000D+00
172  1.7100000000000D+00  0.0000000000000D+00  0.0000000000000D+00
173  1.7200000000000D+00  0.0000000000000D+00  0.0000000000000D+00
174  1.7300000000000D+00  0.0000000000000D+00  0.0000000000000D+00
175  1.7400000000000D+00  0.0000000000000D+00  0.0000000000000D+00
176  1.7500000000000D+00  0.0000000000000D+00  0.0000000000000D+00
177  1.7600000000000D+00  0.0000000000000D+00  0.0000000000000D+00
178  1.7700000000000D+00  0.0000000000000D+00  0.0000000000000D+00
179  1.7800000000000D+00  0.0000000000000D+00  0.0000000000000D+00
180  1.7900000000000D+00  0.0000000000000D+00  0.0000000000000D+00
181  1.8000000000000D+00  0.0000000000000D+00  0.0000000000000D+00
182  1.8100000000000D+00  0.0000000000000D+00  0.0000000000000D+00
183  1.8200000000000D+00  0.0000000000000D+00  0.0000000000000D+00
184  1.8300000000000D+00  0.0000000000000D+00  0.0000000000000D+00
185  1.8400000000000D+00  0.0000000000000D+00  0.0000000000000D+00
186  1.8500000000000D+00  0.0000000000000D+00  0.0000000000000D+00
187  1.8600000000000D+00  0.0000000000000D+00  0.0000000000000D+00
188  1.8700000000000D+00  0.0000000000000D+00  0.0000000000000D+00
189  1.8800000000000D+00  0.0000000000000D+00  0.0000000000000D+00
190  1.8900000000000D+00  0.0000000000000D+00  0.0000000000000D+00
191  1.9000000000000D+00  0.0000000000000D+00  0.0000000000000D+00
192  1.9100000000000D+00  0.0000000000000D+00  0.0000000000000D+00
193  1.9200000000000D+00  0.0000000000000D+00  0.0000000000000D+00
194  1.9300000000000D+00  0.0000000000000D+00  0.0000000000000D+00
195  1.9400000000000D+00  0.0000000000000D+00  0.0000000000000D+00
196  1.9500000000000D+00  0.0000000000000D+00  0.0000000000000D+00
197  1.9600000000000D+00  0.0000000000000D+00  0.0000000000000D+00
198  1.9700000000000D+00  0.0000000000000D+00  0.0000000000000D+00
199  1.9800000000000D+00  0.0000000000000D+00  0.0000000000000D+00
200  1.9900000000000D+00  0.0000000000000D+00  0.0000000000000D+00
201  2.0000000000000D+00  0.0000000000000D+00  0.0000000000000D+00
202  2.0100000000000D+00  0.0000000000000D+00  0.0000000000000D+00
203  2.0200000000000D+00  0.0000000000000D+00  0.0000000000000D+00
204  2.0300000000000D+00  0.0000000000000D+00  0.0000000000000D+00
205  2.0400000000000D+00  0.0000000000000D+00  0.0000000000000D+00
206  2.0500000000000D+00  0.0000000000000D+00  0.0000000000000D+00
207  2.0600000000000D+00  0.0000000000000D+00  0.0000000000000D+00
208  2.0700000000000D+00  0.0000000000000D+00  0.0000000000000D+00
209  2.0800000000000D+00  0.0000000000000D+00  0.0000000000000D+00
210  2.0900000000000D+00  0.0000000000000D+00  0.0000000000000D+00
211  2.1000000000000D+00  0.0000000000000D+00  0.0000000000000D+00
212  2.1100000000000D+00  0.0000000000000D+00  0.0000000000000D+00
213  2.1200000000000D+00  0.0000000000000D+00  0.0000000000000D+00
214  2.1300000000000D+00  0.0000000000000D+00  0.0000000000000D+00
215  2.1400000000000D+00  0.0000000000000D+00  0.0000000000000D+00
216  2.1500000000000D+00  0.0000000000000D+00  0.0000000000000D+00
217  2.1600000000000D+00  0.0000000000000D+00  0.0000000000000D+00
218  2.1700000000000D+00  0.0000000000000D+00  0.0000000000000D+00
219  2.1800000000000D+00  0.0000000000000D+00  0.0000000000000D+00
220  2.1900000000000D+00  0.0000000000000D+00  0.0000000000000D+00
221  2.2000000000000D+00  0.0000000000000D+00  0.0000000000000D+00
222  2.2100000000000D+00  0.0000000000000D+00  0.0000000000000D+00
223  2.2200000000000D+00  0.0000000000000D+00  0.0000000000000D+00
224  2.2300000000000D+00  0.0000000000000D+00  0.0000000000000D+00
225  2.2400000000000D+00  0.0000000000000D+00  0.0000000000000D+00
226  2.2500000000000D+00  0.0000000000000D+00  0.0000000000000D+00
227  2.2600000000000D+00  0.0000000000000D+00  0.0000000000000D+00
228  2.2700000000000D+00  0.0000000000000D+00  0.0000000000000D+00
229  2.2800000000000D+00  0.0000000000000D+00  0.0000000000000D+00
230  2.2900000000000D+00  0.0000000000000D+00  0.0000000000000D+00
231  2.3000000000000D+00  0.0000000000000D+00  0.0000000000000D+00
232  2.3100000000000D+00  0.0000000000000D+00  0.0000000000000D+00
233  2.3200000000000D+00  0.0000000000000D+00  0.0000000000000D+00
234  2.3300000000000D+00  0.0000000000000D+00  0.0000000000000D+00
235  2.3400000000000D+00  0.0000000000000D+00  0.0000000000000D+00
236  2.3500000000000D+00  0.0000000000000D+00  0.0000000000000D+00
237  2.3600000000000D+00  0.0000000000000D+00  0.0000000000000D+00
238  2.3700000000000D+00  0.0000000000000D+00  0.0000000000000D+00
239  2.3800000000000D+00  0.0000000000000D+00  0.0000000000000D+00
240  2.3900000000000D+00  0.0000000000000D+00  0.0000000000000D+00
241  2.4000000000000D+00  0.0000000000000D+00  0.0000000000000D+00
242  2.4100000000000D+00  0.0000000000000D+00  0.0000000000000D+00
243  2.4200000000000D+00  0.0000000000000D+00  0.0000000000000D+00
244  2.4300000000000D+00  0.0000000000000D+00  0.0000000000000D+00
245  2.4400000000000D+00  0.0000000000000D+00  0.0000000000000D+00
246  2.4500000000000D+00  0.0000000000000D+00  0.0000000000000D+00
247  2.4600000000000D+00  0.0000000000000D+00  0.0000000000000D+00
248  2.4700000000000D+00  0.0000000000000D+00  0.0000000000000D+00
249  2.4800000000000D+00  0.0000000000000D+00  0.0000000000000D+00
250  2.4900000000000D+00  0.0000000000000D+00  0.0000000000000D+00
251  2.5000000000000D+00  0.0000000000000D+00  0.0000000000000D+00
252  2.5100000000000D+00  0.0000000000000D+00  0.0000000000000D+00
253  2.5200000000000D+00  0.0000000000000D+00  0.0000000000000D+00
254  2.5300000000000D+00  0.0000000000000D+00  0.0000000000000D+00
255  2.5400000000000D+00  0.0000000000000D+00  0.0000000000000D+00
256  2.5500000000000D+00  0.0000000000000D+00  0.0000000000000D+00
257  2.5600000000000D+00  0.0000000000000D+00  0.0000000000000D+00
258  2.5700000000000D+00  0.0000000000000D+00  0.0000000000000D+00
259  2.5800000000000D+00  0.0000000000000D+00  0.0000000000000D+00
260  2.5900000000000D+00  0.0000000000000D+00  0.0000000000000D+00
261  2.6000000000000D+00  0.0000000000000D+00  0.0000000000000D+00
262  2.6100000000000D+00  0.0000000000000D+00  0.0000000000000D+00
263  2.6200000000000D+00  0.0000000000000D+00  0.0000000000000D+00
264  2.6300000000000D+00  0.0000000000000D+00  0.0000000000000D+00
265  2.6400000000000D+00  0.0000000000000D+00  0.0000000000000D+00
266  2.6500000000000D+00  0.0000000000000D+00  0.0000000000000D+00
267  2.6600000000000D+00  0.0000000000000D+00  0.0000000000000D+00
268  2.6700000000000D+00  0.0000000000000D+00  0.0000000000000D+00
269  2.6800000000000D+00  0.0000000000000D+00  0.0000000000000D+00
270  2.6900000000000D+00  0.0000000000000D+00  0.0000000000000D+00
271  2.7000000000000D+00  0.0000000000000D+00  0.0000000000000D+00
272  2.7100000000000D+00  0.0000000000000D+00  0.0000000000000D+00
273  2.7200000000000D+00  0.0000000000000D+00  0.0000000000000D+00
274  2.7300000000000D+00  0.0000000000000D+00  0.0000000000000D+00
275  2.7400000000000D+00  0.0000000000000D+00  0.0000000000000D+00
276  2.7500000000000D+00  0.0000000000000D+00  0.0000000000000D+00
277  2.7600000000000D+00  0.0000000000000D+00  0.0000000000000D+00
278  2.7700000000000D+00  0.0000000000000D+00  0.0000000000000D+00
279  2.7800000000000D+00  0.0000000000000D+00  0.0000000000000D+00
280  2.7900000000000D+00  0.0000000000000D+00  0.0000000000000D+00
281  2.8000000000000D+00  0.0000000000000D+00  0.0000000000000D+00
282  2.8100000000000D+00  0.0000000000000D+00  0.0000000000000D+00
283  2.8200000000000D+00  0.0000000000000D+00  0.0000000000000D+00
284  2.8300000000000D+00  0.0000000000000D+00  0.0000000000000D+00
285  2.8400000000000D+00  0.0000000000000D+00  0.0000000000000D+00
286  2.8500000000000D+00  0.0000000000000D+00  0.0000000000000D+00
287  2.8600000000000D+00  0.0000000000000D+00  0.0000000000000D+00
288  2.8700000000000D+00  0.0000000000000D+00  0.0000000000000D+00
289  2.8800000000000D+00  0.0000000000000D+00  0.0000000000000D+00
290  2.8900000000000D+00  0.0000000000000D+00  0.0000000000000D+00
291  2.9000000000000D+00  0.0000000000000D+00  0.0000000000000D+00
292  2.9100000000000D+00  0.0000000000000D+00  0.0000000000000D+00
293  2.9200000000000D+00  0.0000000000000D+00  0.0000000000000D+00
294  2.9300000000000D+00  0.0000000000000D+00  0.0000000000000D+00
295  2.9400000000000D+00  0.0000000000000D+00  0.0000000000000D+00
296  2.9500000000000D+00  0.0000000000000D+00  0.0000000000000D+00
297  2.9600000000000D+00  0.0000000000000D+00  0.0000000000000D+00
298  2.9700000000000D+00  0.0000000000000D+00  0.0000000000000D+00
299  2.9800000000000D+00  0.0000000000000D+00  0.0000000000000D+00
300  2.9900000000000D+00  0.0000000000000D+00  0.0000000000000D+00
301  3.0000000000000D+00  0.0000000000000D+00  0.0000000000000D+00
302  3.0100000000000D+00  0.0000000000000D+00  0.0000000000000D+00
303  3.0200000000000D+00  0.0000000000000D+00  0.0000000000000D+00
304  3.0300000000000D+00  0.0000000000000D+00  0.0000000000000D+00
305  3.0400000000000D+00  0.0000000000000D+00  0.0000000000000D+00
306  3.0500000000000D+00  0.0000000000000D+00  0.0000000000000D+00
307  3.0600000000000D+00  0.0000000000000D+00  0.0000000000000D+00
308  3.0700000000000D+00  0.0000000000000D+00  0.0000000000000D+00
309  3.0800000000000D+00  0.0000000000000D+00  0.0000000000000D+00
310  3.0900000000000D+00  0.0000000000000D+00  0.0000000000000D+00
311  3.1000000000000D+00  0.0000000000000D+00  0.0000000000000D+00
312  3.1100000000000D+00  0.0000000000000D+00  0.0000000000000D+00
313  3.1200000000000D+00  0.0000000000000D+00  0.0000000000000D+00
314  3.1300000000000D+00  0.0000000000000D+00  0.0000000000000D+00
315  3.1400000000000D+00  0.0000000000000D+00  0.0000000000000D+00
316  3.1500000000000D+00  0.0000000000000D+00  0.0000000000000D+00
317  3.1600000000000D+00  0.0000000000000D+00  0.0000000000000D+00
318  3.1700000000000D+00  0.0000000000000D+00  0.0000000000000D+00
319  3.1800000000000D+00  0.0000000000000D+00  0.0000000000000D+00
320  3.1900000000000D+00  0.0000000000000D+00  0.0000000000000D+00
321  3.2000000000000D+00  0.0000000000000D+00  0.0000000000000D+00
322  3.2100000000000D+00  0.0000000000000D+00  0.0000000000000D+00
323  3.2200000000000D+00  0.0000000000000D+00  0.0000000000000D+00
324  3.2300000000000D+00  0.0000000000000D+00  0.0000000000000D+00
325  3.2400000000000D+00  0.0000000000000D+00  0.0000000000000D+00
326  3.2500000000000D+00  0.0000000000000D+00  0.0000000000000D+00
327  3.2600000000000D+00  0.0000000000000D+00  0.0000000000000D+00
328  3.2700000000000D+00  0.0000000000000D+00  0.0000000000000D+00
329  3.2800000000000D+00  0.0000000000000D+00  0.0000000000000D+00
330  3.2900000000000D+00  0.0000000000000D+00  0.0000000000000D+00
331  3.3000000000000D+00  0.0000000000000D+00  0.0000000000000D+00
332  3.3100000000000D+00  0.0000000000000D+00  0.0000000000000D+00
333  3.3200000000000D+00  0.0000000000000D+00  0.0000000000000D+00
334  3.3300000000000D+00  0.0000000000000D+00  0.0000000000000D+00
335  3.3400000000000D+00  0.0000000000000D+00  0.0000000000000D+00
336  3.3500000000000D+00  0.0000000000000D+00  0.0000000000000D+00
337  3.3600000000000D+00  0.0000000000000D+00  0.0000000000000D+00
338  3.3700000000000D+00  0.0000000000000D+00  0.0000000000000D+00
339  3.3800000000000D+00  0.0000000000000D+00  0.0000000000000D+00
340  3.3900000000000D+00  0.0000000000000D+00  0.0000000000000D+00
341  3.4000000000000D+00  0.0000000000000D+00  0.0000000000000D+00
342  3.4100000000000D+00  0.0000000000000D+00  0.0000000000000D+00
343  3.4200000000000D+00  0.0000000000000D+00  0.0000000000000D+00
344  3.4300000000000D+00  0.0000000000000D+00  0.0000000000000D+00
345  3.4400000000000D+00  0.0000000000000D+00  0.0000000000000D+00
346  3.4500000000000D+00  0.0000000000000D+00  0.0000000000000D+00
347  3.4600000000000D+00  0.0000000000000D+00  0.0000000000000D+00
348  3.4700000000000D+00  0.0000000000000D+00  0.0000000000000D+00
349  3.4800000000000D+00  0.0000000000000D+00  0.0000000000000D+00
350  3.4900000000000D+00  0.0000000000000D+00  0.0000000000000D+00
351  3.5000000000000D+00  0.0000000000000D+00  0.0000000000000D+00
352  3.5100000000000D+00  0.0000000000000D+00  0.0000000000000D+00
353  3.5200000000000D+00  0.0000000000000D+00  0.0000000000000D+00
354  3.5300000000000D+00  0.0000000000000D+00  0.0000000000000D+00
355  3.5400000000000D+00  0.0000000000000D+00  0.0000000000000D+00
356  3.5500000000000D+00  0.0000000000000D+00  0.0000000000000D+00
357  3.5600000000000D+00  0.0000000000000D+00  0.0000000000000D+00
358  3.5700000000000D+00  0.0000000000000D+00  0.0000000000000D+00
359  3.5800000000000D+00  0.0000000000000D+00  0.0000000000000D+00
360  3.5900000000000D+00  0.0000000000000D+00  0.0000000000000D+00
361  3.6000000000000D+00  0.0000000000000D+00  0.0000000000000D+00
362  3.6100000000000D+00  0.0000000000000D+00  0.0000000000000D+00
363  3.6200000000000D+00  0.0000000000000D+00  0.0000000000000D+00
364  3.6300000000000D+00  0.0000000000000D+00  0.0000000000000D+00
365  3.6400000000000D+00  0.0000000000000D+00  0.0000000000000D+00
366  3.6500000000000D+00  0.0000000000000D+00  0.0000000000000D+00
367  3.6600000000000D+00  0.0000000000000D+00  0.0000000000000D+00
368  3.6700000000000D+00  0.0000000000000D+00  0.0000000000000D+00
369  3.6800000000000D+00  0.0000000000000D+00  0.0000000000000D+00
370  3.6900000000000D+00  0.0000000000000D+00  0.0000000000000D+00
371  3.7000000000000D+00  0.0000000000000D+00  0.0000000000000D+00
372  3.7100000000000D+00  0.0000000000000D+00  0.0000000000000D+00
373  3.7200000000000D+00  0.0000000000000D+00  0.0000000000000D+00
374  3.7300000000000D+00  0.0000000000000D+00  0.0000000000000D+00
375  3.7400000000000D+00  0.0000000000000D+00  0.0000000000000D+00
376  3.7500000000000D+00  0.0000000000000D+00  0.0000000000000D+00
377  3.7600000000000D+00  0.0000000000000D+00  0.0000000000000D+00
378  3.7700000000000D+00  0.0000000000000D+00  0.0000000000000D+00
379  3.7800000000000D+00  0.0000000000000D+00  0.0000000000000D+00
380  3.7900000000000D+00  0.0000000000000D+00  0.0000000000000D+00
381  3.8000000000000D+00  0.0000000000000D+00  0.0000000000000D+00
382  3.8100000000000D+00  0.0000000000000D+00  0.0000000000000D+00
383  3.8200000000000D+00  0.0000000000000D+00  0.0000000000000D+00
384  3.8300000000000D+00  0.0000000000000D+00  0.0000000000000D+00
385  3.8400000000000D+00  0.0000000000000D+00  0.0000000000000D+00
386  3.8500000000000D+00  0.0000000000000D+00  0.0000000000000D+00
387  3.8600000000000D+00  0.0000000000000D+00  0.0000000000000D+00
388  3.8700000000000D+00  0.0000000000000D+00  0.0000000000000D+00
389  3.8800000000000D+00  0.0000000000000D+00  0.0000000000000D+00
390  3.8900000000000D+00  0.0000000000000D+00  0.0000000000000D+00
391  3.9000000000000D+00  0.0000000000000D+00  0.0000000000000D+00
392  3.9100000000000D+00  0.0000000000000D+00  0.0000000000000D+00
393  3.9200000000000D+00  0.0000000000000D+00  0.0000000000000D+00
394  3.9300000000000D+00  0.0000000000000D+00  0.0000000000000D+00
395  3.9400000000000D+00  0.0000000000000D+00  0.0000000000000D+00
396  3.9500000000000D+00  0.0000000000000D+00  0.0000000000000D+00
397  3.9600000000000D+00  0.0000000000000D+00  0.0000000000000D+00
398  3.9700000000000D+00  0.0000000000000D+00  0.0000000000000D+00
399  3.9800000000000D+00  0.0000000000000D+00  0.0000000000000D+00
400  3.9900000000000D+00  0.0000000000000D+00  0.0000000000000D+00
1                        -2.2506617593857D+00 -4.7468588885328D-01
1  0.0000000000000D+00  6.2127922528799D-08 -1.5895920182918D-07
2  1.0000000000000D-02  4.0126563117573D-03 -3.9035836777893D-03
3  2.0000000000000D-02  1.5991743439177D-02 -1.5498269003437D-02
4  3.0000000000000D-02  3.5762024459140D-02 -3.4439289523409D-02
5  4.0000000000000D-02  6.3036092727795D-02 -6.0163366856735D-02
6  5.0000000000000D-02  9.7421215020823D-02 -9.1905351165684D-02
7  6.0000000000000D-02  1.3842863771362D-01 -1.2872081261353D-01
8  7.0000000000000D-02  1.8548509142834D-01 -1.6951390389934D-01
9  8.0000000000000D-02  2.3794616744697D-01 -2.1306965500053D-01
10  9.0000000000000D-02  2.9511118661379D-01 -2.5808972732659D-01
11  1.0000000000000D-01  3.5623913997134D-01 -3.0323054961704D-01
12  1.1000000000000D-01  4.2056525120846D-01 -3.4714268526862D-01
13  1.2000000000000D-01  4.8731769500227D-01 -3.8851024255616D-01
14  1.3000000000000D-01  5.5573400298837D-01 -4.2608913662896D-01
15  1.4000000000000D-01  6.2507670046455D-01 -4.5874304535140D-01
16  1.5000000000000D-01  6.9464774170428D-01 -4.8547596911109D-01
17  1.6000000000000D-01  7.6380134920574D-01 -5.0546040568446D-01
18  1.7000000000000D-01  8.3195491124453D-01 -5.1806028220643D-01
19  1.8000000000000D-01  8.9859765130260D-01 -5.2284794341522D-01
20  1.9000000000000D-01  9.6329685058380D-01 -5.1961467402917D-01
21  2.0000000000000D-01  1.0257014789205D+00 -5.0837442810546D-01
22  2.1000000000000D-01  1.0855431677516D+00 -4.8936064376975D-01
23  2.2000000000000D-01  1.1426345392107D+00 -4.6301623170893D-01
24  2.3000000000000D-01  1.1968649853395D+00 -4.2997703404451D-01
25  2.4000000000000D-01  1.2481940686733D+00 -3.9104925043525D-01
26  2.5000000000000D-01  1.2966427876480D+00 -3.4718151450301D-01
27  2.6000000000000D-01  1.3422830153112D+00 -2.9943247031459D-01
28  2.7000000000000D-01  1.3852254757305D+00 -2.4893484063347D-01
29  2.8000000000000D-01  1.4256066676100D+00 -1.9685709161922D-01
30  2.9000000000000D-01  1.4635751775731D+00 -1.4436387908797D-01
31  3.0000000000000D-01  1.4992778453272D+00 -9.2576506769513D-02
32  3.1000000000000D-01  1.5328462488523D+00 -4.2534635656463D-02
33  3.2000000000000D-01  1.5643839696218D+00  4.8395449493742D-03
34  3.3000000000000D-01  1.5939550758272D+00  4.8773539124179D-02
35  3.4000000000000D-01  1.6215742262353D+00  8.8672113065377D-02
36  3.5000000000000D-01  1.6471987496160D+00  1.2413929724975D-01
37  3.6000000000000D-01  1.6707229959750D+00  1.5499406886494D-01
38  3.7000000000000D-01  1.6919751877855D+00  1.8127914579310D-01
39  3.8000000000000D-01  1.7107169239578D+00  2.0326252651179D-01
40  3.9000000000000D-01  1.7266454086045D+00  2.2143162617585D-01
41  4.0000000000000D-01  1.7393983930794D+00  2.3648008157885D-01
42  4.1000000000000D-01  1.7485617357109D+00  2.4928752020229D-01
43  4.2000000000000D-01  1.7536794015925D+00  2.6089280456415D-01