Ga    ONCVPSP  r_core=  1.67  1.75  1.90
31.0000     13.0000      160905    zatom,zion,pspd
8   -1013   2     4   600     0    pspcod,pspxc,lmax,lloc,mmax,r2well
5.99000000  5.00000000  0.00000000    rchrg fchrg qchrg
2     2     2     0     0    nproj
1                 extension_switch
0                         6.7993463523008D+00  9.6020081464876D-01
1  0.0000000000000D+00  1.0388953725071D-09 -2.1869351329862D-09
2  1.0000000000000D-02  7.4882690220440D-03  3.1119881947744D-02
3  2.0000000000000D-02  1.5153609411518D-02  6.1868673158398D-02
4  3.0000000000000D-02  2.3170942136611D-02  9.1879729340337D-02
5  4.0000000000000D-02  3.1710911661519D-02  1.2079524824745D-01
6  5.0000000000000D-02  4.0937808163809D-02  1.4827056415010D-01
7  6.0000000000000D-02  5.1007561570828D-02  1.7397829201067D-01
8  7.0000000000000D-02  6.2065830122928D-02  1.9761227385855D-01
9  8.0000000000000D-02  7.4246205132388D-02  2.1889128204638D-01
10  9.0000000000000D-02  8.7668552329186D-02  2.3756243675895D-01
11  1.0000000000000D-01  1.0243750868201D-01  2.5340429830916D-01
12  1.1000000000000D-01  1.1864115187100D-01  2.6622959835826D-01
13  1.2000000000000D-01  1.3634985768628D-01  2.7588757820137D-01
14  1.3000000000000D-01  1.5561535855351D-01  2.8226590662060D-01
15  1.4000000000000D-01  1.7647001416661D-01  2.8529215448120D-01
16  1.5000000000000D-01  1.9892630286307D-01  2.8493480817874D-01
17  1.6000000000000D-01  2.2297653993264D-01  2.8120380918636D-01
18  1.7000000000000D-01  2.4859282653381D-01  2.7415061224339D-01
19  1.8000000000000D-01  2.7572723032970D-01  2.6386776011360D-01
20  1.9000000000000D-01  3.0431219637502D-01  2.5048797826447D-01
21  2.0000000000000D-01  3.3426118421541D-01  2.3418279821929D-01
22  2.1000000000000D-01  3.6546952462808D-01  2.1516072365235D-01
23  2.2000000000000D-01  3.9781548696632D-01  1.9366495847674D-01
24  2.3000000000000D-01  4.3116154569564D-01  1.6997072115618D-01
25  2.4000000000000D-01  4.6535583245375D-01  1.4438217420385D-01
26  2.5000000000000D-01  5.0023375785389D-01  1.1722900225818D-01
27  2.6000000000000D-01  5.3561978530503D-01  8.8862676200087D-02
28  2.7000000000000D-01  5.7132933736455D-01  5.9652444452603D-02
29  2.8000000000000D-01  6.0717081358964D-01  2.9981095839270D-02
30  2.9000000000000D-01  6.4294769752886D-01  2.4054113809626D-04
31  3.0000000000000D-01  6.7846072941232D-01 -2.9172737282501D-02
32  3.1000000000000D-01  7.1351012026837D-01 -5.7862316642861D-02
33  3.2000000000000D-01  7.4789778262795D-01 -8.5436493484733D-02
34  3.3000000000000D-01  7.8142955268186D-01 -1.1151291910725D-01
35  3.4000000000000D-01  8.1391737873450D-01 -1.3572315784820D-01
36  3.5000000000000D-01  8.4518145105321D-01 -1.5771711592724D-01
37  3.6000000000000D-01  8.7505224874204D-01 -1.7716728972197D-01
38  3.7000000000000D-01  9.0337248006900D-01 -1.9377278407164D-01
39  3.8000000000000D-01  9.2999889373964D-01 -2.0726305348097D-01
40  3.9000000000000D-01  9.5480393992501D-01 -2.1740132190590D-01
41  4.0000000000000D-01  9.7767726140830D-01 -2.2398764011671D-01
42  4.1000000000000D-01  9.9852699699356D-01 -2.2686154341794D-01
43  4.2000000000000D-01  1.0172808813057D+00 -2.2590427672140D-01
44  4.3000000000000D-01  1.0338871272816D+00 -2.2104055857320D-01
45  4.4000000000000D-01  1.0483150799861D+00 -2.1223986068195D-01
46  4.5000000000000D-01  1.0605556328584D+00 -1.9951718473066D-01
47  4.6000000000000D-01  1.0706214000801D+00 -1.8293332372374D-01
48  4.7000000000000D-01  1.0785466414234D+00 -1.6259460076517D-01
49  4.8000000000000D-01  1.0843869386679D+00 -1.3865208392585D-01
50  4.9000000000000D-01  1.0882186254242D+00 -1.1130028167050D-01
51  5.0000000000000D-01  1.0901379749562D+00 -8.0775329122064D-02
52  5.1000000000000D-01  1.0902601533119D+00 -4.7352681173252D-02
53  5.2000000000000D-01  1.0887179477316D+00 -1.1344334054760D-02
54  5.3000000000000D-01  1.0856602828644D+00  2.6904397631600D-02
55  5.4000000000000D-01  1.0812505397755D+00  6.7018516257157D-02
56  5.5000000000000D-01  1.0756646950241D+00  1.0859735190273D-01
57  5.6000000000000D-01  1.0690892992171D+00  1.5121890704005D-01
58  5.7000000000000D-01  1.0617193163797D+00  1.9444448966393D-01
59  5.8000000000000D-01  1.0537558471867D+00  2.3782358581471D-01
60  5.9000000000000D-01  1.0454037605809D+00  2.8089891935206D-01
61  6.0000000000000D-01  1.0368692595081D+00  3.2321164433220D-01
62  6.1000000000000D-01  1.0283574074524D+00  3.6430661338765D-01
63  6.2000000000000D-01  1.0200696431072D+00  4.0373766417352D-01
64  6.3000000000000D-01  1.0122013108873D+00  4.4107286522177D-01
65  6.4000000000000D-01  1.0049392350525D+00  4.7589966246226D-01
66  6.5000000000000D-01  9.9845936497971D-01  5.0782986822013D-01
67  6.6000000000000D-01  9.9292451858235D-01  5.3650443569599D-01
68  6.7000000000000D-01  9.8848225003775D-01  5.6159796376288D-01
69  6.8000000000000D-01  9.8526286686334D-01  5.8282287934196D-01
70  6.9000000000000D-01  9.8337761996590D-01  5.9993324766924D-01
71  7.0000000000000D-01  9.8291708861647D-01  6.1272816435653D-01
72  7.1000000000000D-01  9.8394978036804D-01  6.2105468729492D-01
73  7.2000000000000D-01  9.8652096378113D-01  6.2481027105167D-01
74  7.3000000000000D-01  9.9065174943403D-01  6.2394467150926D-01
75  7.4000000000000D-01  9.9633843213917D-01  6.1846129394396D-01
76  7.5000000000000D-01  1.0035521045603D+00  6.0841796354876D-01
77  7.6000000000000D-01  1.0122385495665D+00  5.9392710348726D-01
78  7.7000000000000D-01  1.0223184156926D+00  5.7515531187115D-01
79  7.8000000000000D-01  1.0336876770476D+00  5.5232233548239D-01
80  7.9000000000000D-01  1.0462183759297D+00  5.2569944460862D-01
81  8.0000000000000D-01  1.0597596433213D+00  4.9560721989229D-01
82  8.1000000000000D-01  1.0741389893835D+00  4.6241276857193D-01
83  8.2000000000000D-01  1.0891638530643D+00  4.2652639384739D-01
84  8.3000000000000D-01  1.1046233970267D+00  3.8839774725256D-01
85  8.4000000000000D-01  1.1202905313157D+00  3.4851149980391D-01
86  8.5000000000000D-01  1.1359241465495D+00  3.0738257324696D-01
87  8.6000000000000D-01  1.1512715349736D+00  2.6555097787971D-01
88  8.7000000000000D-01  1.1660709754758D+00  2.2357630813789D-01
89  8.8000000000000D-01  1.1800544566616D+00  1.8203195132376D-01
90  8.9000000000000D-01  1.1929505103484D+00  1.4149906849881D-01
91  9.0000000000000D-01  1.2044871263788D+00  1.0256040960131D-01
92  9.1000000000000D-01  1.2143947184925D+00  6.5794027249161D-02
93  9.2000000000000D-01  1.2224091101517D+00  3.1766955419752D-02
94  9.3000000000000D-01  1.2282745086942D+00  1.0289202365775D-03
95  9.4000000000000D-01  1.2317464359990D+00 -2.5893849576547D-02
96  9.5000000000000D-01  1.2325945840141D+00 -4.8504645428530D-02
97  9.6000000000000D-01  1.2306055639616D+00 -6.6342068700385D-02
98  9.7000000000000D-01  1.2255855188909D+00 -7.8985523493983D-02
99  9.8000000000000D-01  1.2173625703916D+00 -8.6060350590434D-02
100  9.9000000000000D-01  1.2057890717646D+00 -8.7242544140060D-02
101  1.0000000000000D+00  1.1907436417319D+00 -8.2262996466727D-02
102  1.0100000000000D+00  1.1721329548391D+00 -7.0911220829485D-02
103  1.0200000000000D+00  1.1498932670881D+00 -5.3038507117793D-02
104  1.0300000000000D+00  1.1239916578767D+00 -2.8560470903081D-02
105  1.0400000000000D+00  1.0944269721446D+00  2.5410376739538D-03
106  1.0500000000000D+00  1.0612304497092D+00  4.0216692102860D-02
107  1.0600000000000D+00  1.0244660318599D+00  8.4349135108467D-02
108  1.0700000000000D+00  9.8423033862849D-01  1.3475312482856D-01
109  1.0800000000000D+00  9.4065231364596D-01  1.9117638727411D-01
110  1.0900000000000D+00  8.9389253659615D-01  2.5330117416651D-01
111  1.1000000000000D+00  8.4414220729235D-01  3.2074651669270D-01
112  1.1100000000000D+00  7.9162180844170D-01  3.9307115924590D-01
113  1.1200000000000D+00  7.3657945794173D-01  4.6977714918173D-01
114  1.1300000000000D+00  6.7928896438940D-01  5.5031405258943D-01
115  1.1400000000000D+00  6.2004760320060D-01  6.3408375818390D-01
116  1.1500000000000D+00  5.5917363355839D-01  7.2044582544301D-01
117  1.1600000000000D+00  4.9700357945358D-01  8.0872332666645D-01
118  1.1700000000000D+00  4.3388930019364D-01  8.9820912816094D-01
119  1.1800000000000D+00  3.7019487884736D-01  9.8817254922708D-01
120  1.1900000000000D+00  3.0629335883764D-01  1.0778663339527D+00
121  1.2000000000000D+00  2.4256336074053D-01  1.1665338669474D+00
122  1.2100000000000D+00  1.7938561262063D-01  1.2534165614790D+00
123  1.2200000000000D+00  1.1713942896093D-01  1.3377613448880D+00
124  1.2300000000000D+00  5.6199173411137D-02  1.4188281658617D+00
125  1.2400000000000D+00 -3.0692587545455D-03  1.4958974467689D+00
126  1.2500000000000D+00 -6.0311902290828D-02  1.5682774037566D+00
127  1.2600000000000D+00 -1.1519009250987D-01  1.6353111593874D+00
128  1.2700000000000D+00 -1.6738370952507D-01  1.6963835728064D+00
129  1.2800000000000D+00 -2.1659426213511D-01  1.7509277148411D+00
130  1.2900000000000D+00 -2.6254777977479D-01  1.7984309208719D+00
131  1.3000000000000D+00 -3.0499748104853D-01  1.8384403545138D+00
132  1.3100000000000D+00 -3.4372619021510D-01  1.8705680213576D+00
133  1.3200000000000D+00 -3.7854847715112D-01  1.8944951809818D+00
134  1.3300000000000D+00 -4.0931249501882D-01  1.9099761026537D+00
135  1.3400000000000D+00 -4.3590149627901D-01  1.9168411239795D+00
136  1.3500000000000D+00 -4.5823501177906D-01  1.9149989805413D+00
137  1.3600000000000D+00 -4.7626967424463D-01  1.9044383672633D+00
138  1.3700000000000D+00 -4.8999968075163D-01  1.8852287207300D+00
139  1.3800000000000D+00 -4.9945688549510D-01  1.8575202046496D+00
140  1.3900000000000D+00 -5.0471051764467D-01  1.8215428881466D+00
141  1.4000000000000D+00 -5.0586653089186D-01  1.7776051318844D+00
142  1.4100000000000D+00 -5.0306658246188D-01  1.7260911780944D+00
143  1.4200000000000D+00 -4.9648665495551D-01  1.6674579740087D+00
144  1.4300000000000D+00 -4.8633533256582D-01  1.6022312542639D+00
145  1.4400000000000D+00 -4.7285174300175D-01  1.5310009074252D+00
146  1.4500000000000D+00 -4.5630319220431D-01  1.4544156854465D+00
147  1.4600000000000D+00 -4.3698250505832D-01  1.3731772852156D+00
148  1.4700000000000D+00 -4.1520510518816D-01  1.2880338738281D+00
149  1.4800000000000D+00 -3.9130585767052D-01  1.1997731094319D+00
150  1.4900000000000D+00 -3.6563570569601D-01  1.1092147249024D+00
151  1.5000000000000D+00 -3.3855813692169D-01  1.0172027515545D+00
152  1.5100000000000D+00 -3.1044550909228D-01  9.2459744707748D-01
153  1.5200000000000D+00 -2.8167527674815D-01  8.3226701776740D-01
154  1.5300000000000D+00 -2.5262615123235D-01  7.4107920485805D-01
155  1.5400000000000D+00 -2.2367423576257D-01  6.5189282485582D-01
156  1.5500000000000D+00 -1.9518917113032D-01  5.6554934071187D-01
157  1.5600000000000D+00 -1.6753033232603D-01  4.8286454881177D-01
158  1.5700000000000D+00 -1.4104311338297D-01  4.0462047397403D-01
159  1.5800000000000D+00 -1.1605533172688D-01  3.3155749501572D-01
160  1.5900000000000D+00 -9.2873813553713D-02  2.6436696562835D-01
161  1.6000000000000D+00 -7.1781144504678D-02  2.0368407177901D-01
162  1.6100000000000D+00 -5.3032784677302D-02  1.5008145187952D-01
163  1.6200000000000D+00 -3.6867050905038D-02  1.0409953660991D-01
164  1.6300000000000D+00 -2.3428498793532D-02  6.6032876324689D-02
165  1.6400000000000D+00 -1.2857815202672D-02  3.6185195266486D-02
166  1.6500000000000D+00 -5.5300284309798D-03  1.5539373126470D-02
167  1.6600000000000D+00 -1.4719829434522D-03  4.1220679619330D-03
168  1.6700000000000D+00  1.1916737069389D-04 -3.4695233191233D-04
169  1.6800000000000D+00  2.7170141555617D-04 -7.6818069549090D-04
170  1.6900000000000D+00 -2.7332763555343D-05  7.7197737738017D-05
171  1.7000000000000D+00 -9.2641668535046D-05  2.6139655003832D-04
172  1.7100000000000D+00  3.6668226504096D-06 -1.0382001771860D-05
173  1.7200000000000D+00  1.7344116518541D-05 -4.9084548088807D-05
174  1.7300000000000D+00 -1.3009687861371D-09  7.9198793712502D-09
175  1.7400000000000D+00 -1.1166647058546D-08  6.7978954320346D-08
176  1.7500000000000D+00 -1.8372850128125D-10  1.1184799994538D-09
177  1.7600000000000D+00  0.0000000000000D+00  0.0000000000000D+00
178  1.7700000000000D+00  0.0000000000000D+00  0.0000000000000D+00
179  1.7800000000000D+00  0.0000000000000D+00  0.0000000000000D+00
180  1.7900000000000D+00  0.0000000000000D+00  0.0000000000000D+00
181  1.8000000000000D+00  0.0000000000000D+00  0.0000000000000D+00
182  1.8100000000000D+00  0.0000000000000D+00  0.0000000000000D+00
183  1.8200000000000D+00  0.0000000000000D+00  0.0000000000000D+00
184  1.8300000000000D+00  0.0000000000000D+00  0.0000000000000D+00
185  1.8400000000000D+00  0.0000000000000D+00  0.0000000000000D+00
186  1.8500000000000D+00  0.0000000000000D+00  0.0000000000000D+00
187  1.8600000000000D+00  0.0000000000000D+00  0.0000000000000D+00
188  1.8700000000000D+00  0.0000000000000D+00  0.0000000000000D+00
189  1.8800000000000D+00  0.0000000000000D+00  0.0000000000000D+00
190  1.8900000000000D+00  0.0000000000000D+00  0.0000000000000D+00
191  1.9000000000000D+00  0.0000000000000D+00  0.0000000000000D+00
192  1.9100000000000D+00  0.0000000000000D+00  0.0000000000000D+00
193  1.9200000000000D+00  0.0000000000000D+00  0.0000000000000D+00
194  1.9300000000000D+00  0.0000000000000D+00  0.0000000000000D+00
195  1.9400000000000D+00  0.0000000000000D+00  0.0000000000000D+00
196  1.9500000000000D+00  0.0000000000000D+00  0.0000000000000D+00
197  1.9600000000000D+00  0.0000000000000D+00  0.0000000000000D+00
198  1.9700000000000D+00  0.0000000000000D+00  0.0000000000000D+00
199  1.9800000000000D+00  0.0000000000000D+00  0.0000000000000D+00
200  1.9900000000000D+00  0.0000000000000D+00  0.0000000000000D+00
201  2.0000000000000D+00  0.0000000000000D+00  0.0000000000000D+00
202  2.0100000000000D+00  0.0000000000000D+00  0.0000000000000D+00
203  2.0200000000000D+00  0.0000000000000D+00  0.0000000000000D+00
204  2.0300000000000D+00  0.0000000000000D+00  0.0000000000000D+00
205  2.0400000000000D+00  0.0000000000000D+00  0.0000000000000D+00
206  2.0500000000000D+00  0.0000000000000D+00  0.0000000000000D+00
207  2.0600000000000D+00  0.0000000000000D+00  0.0000000000000D+00
208  2.0700000000000D+00  0.0000000000000D+00  0.0000000000000D+00
209  2.0800000000000D+00  0.0000000000000D+00  0.0000000000000D+00
210  2.0900000000000D+00  0.0000000000000D+00  0.0000000000000D+00
211  2.1000000000000D+00  0.0000000000000D+00  0.0000000000000D+00
212  2.1100000000000D+00  0.0000000000000D+00  0.0000000000000D+00
213  2.1200000000000D+00  0.0000000000000D+00  0.0000000000000D+00
214  2.1300000000000D+00  0.0000000000000D+00  0.0000000000000D+00
215  2.1400000000000D+00  0.0000000000000D+00  0.0000000000000D+00
216  2.1500000000000D+00  0.0000000000000D+00  0.0000000000000D+00
217  2.1600000000000D+00  0.0000000000000D+00  0.0000000000000D+00
218  2.1700000000000D+00  0.0000000000000D+00  0.0000000000000D+00
219  2.1800000000000D+00  0.0000000000000D+00  0.0000000000000D+00
220  2.1900000000000D+00  0.0000000000000D+00  0.0000000000000D+00
221  2.2000000000000D+00  0.0000000000000D+00  0.0000000000000D+00
222  2.2100000000000D+00  0.0000000000000D+00  0.0000000000000D+00
223  2.2200000000000D+00  0.0000000000000D+00  0.0000000000000D+00
224  2.2300000000000D+00  0.0000000000000D+00  0.0000000000000D+00
225  2.2400000000000D+00  0.0000000000000D+00  0.0000000000000D+00
226  2.2500000000000D+00  0.0000000000000D+00  0.0000000000000D+00
227  2.2600000000000D+00  0.0000000000000D+00  0.0000000000000D+00
228  2.2700000000000D+00  0.0000000000000D+00  0.0000000000000D+00
229  2.2800000000000D+00  0.0000000000000D+00  0.0000000000000D+00
230  2.2900000000000D+00  0.0000000000000D+00  0.0000000000000D+00
231  2.3000000000000D+00  0.0000000000000D+00  0.0000000000000D+00
232  2.3100000000000D+00  0.0000000000000D+00  0.0000000000000D+00
233  2.3200000000000D+00  0.0000000000000D+00  0.0000000000000D+00
234  2.3300000000000D+00  0.0000000000000D+00  0.0000000000000D+00
235  2.3400000000000D+00  0.0000000000000D+00  0.0000000000000D+00
236  2.3500000000000D+00  0.0000000000000D+00  0.0000000000000D+00
237  2.3600000000000D+00  0.0000000000000D+00  0.0000000000000D+00
238  2.3700000000000D+00  0.0000000000000D+00  0.0000000000000D+00
239  2.3800000000000D+00  0.0000000000000D+00  0.0000000000000D+00
240  2.3900000000000D+00  0.0000000000000D+00  0.0000000000000D+00
241  2.4000000000000D+00  0.0000000000000D+00  0.0000000000000D+00
242  2.4100000000000D+00  0.0000000000000D+00  0.0000000000000D+00
243  2.4200000000000D+00  0.0000000000000D+00  0.0000000000000D+00
244  2.4300000000000D+00  0.0000000000000D+00  0.0000000000000D+00
245  2.4400000000000D+00  0.0000000000000D+00  0.0000000000000D+00
246  2.4500000000000D+00  0.0000000000000D+00  0.0000000000000D+00
247  2.4600000000000D+00  0.0000000000000D+00  0.0000000000000D+00
248  2.4700000000000D+00  0.0000000000000D+00  0.0000000000000D+00
249  2.4800000000000D+00  0.0000000000000D+00  0.0000000000000D+00
250  2.4900000000000D+00  0.0000000000000D+00  0.0000000000000D+00
251  2.5000000000000D+00  0.0000000000000D+00  0.0000000000000D+00
252  2.5100000000000D+00  0.0000000000000D+00  0.0000000000000D+00
253  2.5200000000000D+00  0.0000000000000D+00  0.0000000000000D+00
254  2.5300000000000D+00  0.0000000000000D+00  0.0000000000000D+00
255  2.5400000000000D+00  0.0000000000000D+00  0.0000000000000D+00
256  2.5500000000000D+00  0.0000000000000D+00  0.0000000000000D+00
257  2.5600000000000D+00  0.0000000000000D+00  0.0000000000000D+00
258  2.5700000000000D+00  0.0000000000000D+00  0.0000000000000D+00
259  2.5800000000000D+00  0.0000000000000D+00  0.0000000000000D+00
260  2.5900000000000D+00  0.0000000000000D+00  0.0000000000000D+00
261  2.6000000000000D+00  0.0000000000000D+00  0.0000000000000D+00
262  2.6100000000000D+00  0.0000000000000D+00  0.0000000000000D+00
263  2.6200000000000D+00  0.0000000000000D+00  0.0000000000000D+00
264  2.6300000000000D+00  0.0000000000000D+00  0.0000000000000D+00
265  2.6400000000000D+00  0.0000000000000D+00  0.0000000000000D+00
266  2.6500000000000D+00  0.0000000000000D+00  0.0000000000000D+00
267  2.6600000000000D+00  0.0000000000000D+00  0.0000000000000D+00
268  2.6700000000000D+00  0.0000000000000D+00  0.0000000000000D+00
269  2.6800000000000D+00  0.0000000000000D+00  0.0000000000000D+00
270  2.6900000000000D+00  0.0000000000000D+00  0.0000000000000D+00
271  2.7000000000000D+00  0.0000000000000D+00  0.0000000000000D+00
272  2.7100000000000D+00  0.0000000000000D+00  0.0000000000000D+00
273  2.7200000000000D+00  0.0000000000000D+00  0.0000000000000D+00
274  2.7300000000000D+00  0.0000000000000D+00  0.0000000000000D+00
275  2.7400000000000D+00  0.0000000000000D+00  0.0000000000000D+00
276  2.7500000000000D+00  0.0000000000000D+00  0.0000000000000D+00
277  2.7600000000000D+00  0.0000000000000D+00  0.0000000000000D+00
278  2.7700000000000D+00  0.0000000000000D+00  0.0000000000000D+00
279  2.7800000000000D+00  0.0000000000000D+00  0.0000000000000D+00
280  2.7900000000000D+00  0.0000000000000D+00  0.0000000000000D+00
281  2.8000000000000D+00  0.0000000000000D+00  0.0000000000000D+00
282  2.8100000000000D+00  0.0000000000000D+00  0.0000000000000D+00
283  2.8200000000000D+00  0.0000000000000D+00  0.0000000000000D+00
284  2.8300000000000D+00  0.0000000000000D+00  0.0000000000000D+00
285  2.8400000000000D+00  0.0000000000000D+00  0.0000000000000D+00
286  2.8500000000000D+00  0.0000000000000D+00  0.0000000000000D+00
287  2.8600000000000D+00  0.0000000000000D+00  0.0000000000000D+00
288  2.8700000000000D+00  0.0000000000000D+00  0.0000000000000D+00
289  2.8800000000000D+00  0.0000000000000D+00  0.0000000000000D+00
290  2.8900000000000D+00  0.0000000000000D+00  0.0000000000000D+00
291  2.9000000000000D+00  0.0000000000000D+00  0.0000000000000D+00
292  2.9100000000000D+00  0.0000000000000D+00  0.0000000000000D+00
293  2.9200000000000D+00  0.0000000000000D+00  0.0000000000000D+00
294  2.9300000000000D+00  0.0000000000000D+00  0.0000000000000D+00
295  2.9400000000000D+00  0.0000000000000D+00  0.0000000000000D+00
296  2.9500000000000D+00  0.0000000000000D+00  0.0000000000000D+00
297  2.9600000000000D+00  0.0000000000000D+00  0.0000000000000D+00
298  2.9700000000000D+00  0.0000000000000D+00  0.0000000000000D+00
299  2.9800000000000D+00  0.0000000000000D+00  0.0000000000000D+00
300  2.9900000000000D+00  0.0000000000000D+00  0.0000000000000D+00
301  3.0000000000000D+00  0.0000000000000D+00  0.0000000000000D+00
302  3.0100000000000D+00  0.0000000000000D+00  0.0000000000000D+00
303  3.0200000000000D+00  0.0000000000000D+00  0.0000000000000D+00
304  3.0300000000000D+00  0.0000000000000D+00  0.0000000000000D+00
305  3.0400000000000D+00  0.0000000000000D+00  0.0000000000000D+00
306  3.0500000000000D+00  0.0000000000000D+00  0.0000000000000D+00
307  3.0600000000000D+00  0.0000000000000D+00  0.0000000000000D+00
308  3.0700000000000D+00  0.0000000000000D+00  0.0000000000000D+00
309  3.0800000000000D+00  0.0000000000000D+00  0.0000000000000D+00
310  3.0900000000000D+00  0.0000000000000D+00  0.0000000000000D+00
311  3.1000000000000D+00  0.0000000000000D+00  0.0000000000000D+00
312  3.1100000000000D+00  0.0000000000000D+00  0.0000000000000D+00
313  3.1200000000000D+00  0.0000000000000D+00  0.0000000000000D+00
314  3.1300000000000D+00  0.0000000000000D+00  0.0000000000000D+00
315  3.1400000000000D+00  0.0000000000000D+00  0.0000000000000D+00
316  3.1500000000000D+00  0.0000000000000D+00  0.0000000000000D+00
317  3.1600000000000D+00  0.0000000000000D+00  0.0000000000000D+00
318  3.1700000000000D+00  0.0000000000000D+00  0.0000000000000D+00
319  3.1800000000000D+00  0.0000000000000D+00  0.0000000000000D+00
320  3.1900000000000D+00  0.0000000000000D+00  0.0000000000000D+00
321  3.2000000000000D+00  0.0000000000000D+00  0.0000000000000D+00
322  3.2100000000000D+00  0.0000000000000D+00  0.0000000000000D+00
323  3.2200000000000D+00  0.0000000000000D+00  0.0000000000000D+00
324  3.2300000000000D+00  0.0000000000000D+00  0.0000000000000D+00
325  3.2400000000000D+00  0.0000000000000D+00  0.0000000000000D+00
326  3.2500000000000D+00  0.0000000000000D+00  0.0000000000000D+00
327  3.2600000000000D+00  0.0000000000000D+00  0.0000000000000D+00
328  3.2700000000000D+00  0.0000000000000D+00  0.0000000000000D+00
329  3.2800000000000D+00  0.0000000000000D+00  0.0000000000000D+00
330  3.2900000000000D+00  0.0000000000000D+00  0.0000000000000D+00
331  3.3000000000000D+00  0.0000000000000D+00  0.0000000000000D+00
332  3.3100000000000D+00  0.0000000000000D+00  0.0000000000000D+00
333  3.3200000000000D+00  0.0000000000000D+00  0.0000000000000D+00
334  3.3300000000000D+00  0.0000000000000D+00  0.0000000000000D+00
335  3.3400000000000D+00  0.0000000000000D+00  0.0000000000000D+00
336  3.3500000000000D+00  0.0000000000000D+00  0.0000000000000D+00
337  3.3600000000000D+00  0.0000000000000D+00  0.0000000000000D+00
338  3.3700000000000D+00  0.0000000000000D+00  0.0000000000000D+00
339  3.3800000000000D+00  0.0000000000000D+00  0.0000000000000D+00
340  3.3900000000000D+00  0.0000000000000D+00  0.0000000000000D+00
341  3.4000000000000D+00  0.0000000000000D+00  0.0000000000000D+00
342  3.4100000000000D+00  0.0000000000000D+00  0.0000000000000D+00
343  3.4200000000000D+00  0.0000000000000D+00  0.0000000000000D+00
344  3.4300000000000D+00  0.0000000000000D+00  0.0000000000000D+00
345  3.4400000000000D+00  0.0000000000000D+00  0.0000000000000D+00
346  3.4500000000000D+00  0.0000000000000D+00  0.0000000000000D+00
347  3.4600000000000D+00  0.0000000000000D+00  0.0000000000000D+00
348  3.4700000000000D+00  0.0000000000000D+00  0.0000000000000D+00
349  3.4800000000000D+00  0.0000000000000D+00  0.0000000000000D+00
350  3.4900000000000D+00  0.0000000000000D+00  0.0000000000000D+00
351  3.5000000000000D+00  0.0000000000000D+00  0.0000000000000D+00
352  3.5100000000000D+00  0.0000000000000D+00  0.0000000000000D+00
353  3.5200000000000D+00  0.0000000000000D+00  0.0000000000000D+00
354  3.5300000000000D+00  0.0000000000000D+00  0.0000000000000D+00
355  3.5400000000000D+00  0.0000000000000D+00  0.0000000000000D+00
356  3.5500000000000D+00  0.0000000000000D+00  0.0000000000000D+00
357  3.5600000000000D+00  0.0000000000000D+00  0.0000000000000D+00
358  3.5700000000000D+00  0.0000000000000D+00  0.0000000000000D+00
359  3.5800000000000D+00  0.0000000000000D+00  0.0000000000000D+00
360  3.5900000000000D+00  0.0000000000000D+00  0.0000000000000D+00
361  3.6000000000000D+00  0.0000000000000D+00  0.0000000000000D+00
362  3.6100000000000D+00  0.0000000000000D+00  0.0000000000000D+00
363  3.6200000000000D+00  0.0000000000000D+00  0.0000000000000D+00
364  3.6300000000000D+00  0.0000000000000D+00  0.0000000000000D+00
365  3.6400000000000D+00  0.0000000000000D+00  0.0000000000000D+00
366  3.6500000000000D+00  0.0000000000000D+00  0.0000000000000D+00
367  3.6600000000000D+00  0.0000000000000D+00  0.0000000000000D+00
368  3.6700000000000D+00  0.0000000000000D+00  0.0000000000000D+00
369  3.6800000000000D+00  0.0000000000000D+00  0.0000000000000D+00
370  3.6900000000000D+00  0.0000000000000D+00  0.0000000000000D+00
371  3.7000000000000D+00  0.0000000000000D+00  0.0000000000000D+00
372  3.7100000000000D+00  0.0000000000000D+00  0.0000000000000D+00
373  3.7200000000000D+00  0.0000000000000D+00  0.0000000000000D+00
374  3.7300000000000D+00  0.0000000000000D+00  0.0000000000000D+00
375  3.7400000000000D+00  0.0000000000000D+00  0.0000000000000D+00
376  3.7500000000000D+00  0.0000000000000D+00  0.0000000000000D+00
377  3.7600000000000D+00  0.0000000000000D+00  0.0000000000000D+00
378  3.7700000000000D+00  0.0000000000000D+00  0.0000000000000D+00
379  3.7800000000000D+00  0.0000000000000D+00  0.0000000000000D+00
380  3.7900000000000D+00  0.0000000000000D+00  0.0000000000000D+00
381  3.8000000000000D+00  0.0000000000000D+00  0.0000000000000D+00
382  3.8100000000000D+00  0.0000000000000D+00  0.0000000000000D+00
383  3.8200000000000D+00  0.0000000000000D+00  0.0000000000000D+00
384  3.8300000000000D+00  0.0000000000000D+00  0.0000000000000D+00
385  3.8400000000000D+00  0.0000000000000D+00  0.0000000000000D+00
386  3.8500000000000D+00  0.0000000000000D+00  0.0000000000000D+00
387  3.8600000000000D+00  0.0000000000000D+00  0.0000000000000D+00
388  3.8700000000000D+00  0.0000000000000D+00  0.0000000000000D+00
389  3.8800000000000D+00  0.0000000000000D+00  0.0000000000000D+00
390  3.8900000000000D+00  0.0000000000000D+00  0.0000000000000D+00
391  3.9000000000000D+00  0.0000000000000D+00  0.0000000000000D+00
392  3.9100000000000D+00  0.0000000000000D+00  0.0000000000000D+00
393  3.9200000000000D+00  0.0000000000000D+00  0.0000000000000D+00
394  3.9300000000000D+00  0.0000000000000D+00  0.0000000000000D+00
395  3.9400000000000D+00  0.0000000000000D+00  0.0000000000000D+00
396  3.9500000000000D+00  0.0000000000000D+00  0.0000000000000D+00
397  3.9600000000000D+00  0.0000000000000D+00  0.0000000000000D+00
398  3.9700000000000D+00  0.0000000000000D+00  0.0000000000000D+00
399  3.9800000000000D+00  0.0000000000000D+00  0.0000000000000D+00
400  3.9900000000000D+00  0.0000000000000D+00  0.0000000000000D+00
401  4.0000000000000D+00  0.0000000000000D+00  0.0000000000000D+00
402  4.0100000000000D+00  0.0000000000000D+00  0.0000000000000D+00
403  4.0200000000000D+00  0.0000000000000D+00  0.0000000000000D+00
404  4.0300000000000D+00  0.0000000000000D+00  0.0000000000000D+00
405  4.0400000000000D+00  0.0000000000000D+00  0.0000000000000D+00
406  4.0500000000000D+00  0.0000000000000D+00  0.0000000000000D+00
407  4.0600000000000D+00  0.0000000000000D+00  0.0000000000000D+00
408  4.0700000000000D+00  0.0000000000000D+00  0.0000000000000D+00
409  4.0800000000000D+00  0.0000000000000D+00  0.0000000000000D+00
410  4.0900000000000D+00  0.0000000000000D+00  0.0000000000000D+00
411  4.1000000000000D+00  0.0000000000000D+00  0.0000000000000D+00
412  4.1100000000000D+00  0.0000000000000D+00  0.0000000000000D+00
413  4.1200000000000D+00  0.0000000000000D+00  0.0000000000000D+00
414  4.1300000000000D+00  0.0000000000000D+00  0.0000000000000D+00
415  4.1400000000000D+00  0.0000000000000D+00  0.0000000000000D+00
416  4.1500000000000D+00  0.0000000000000D+00  0.0000000000000D+00
417  4.1600000000000D+00  0.0000000000000D+00  0.0000000000000D+00
418  4.1700000000000D+00  0.0000000000000D+00  0.0000000000000D+00
419  4.1800000000000D+00  0.0000000000000D+00  0.0000000000000D+00
420  4.1900000000000D+00  0.0000000000000D+00  0.0000000000000D+00
421  4.2000000000000D+00  0.0000000000000D+00  0.0000000000000D+00
422  4.2100000000000D+00  0.0000000000000D+00  0.0000000000000D+00
423  4.2200000000000D+00  0.0000000000000D+00  0.0000000000000D+00
424  4.2300000000000D+00  0.0000000000000D+00  0.0000000000000D+00
425  4.2400000000000D+00  0.0000000000000D+00  0.0000000000000D+00
426  4.2500000000000D+00  0.0000000000000D+00  0.0000000000000D+00
427  4.2600000000000D+00  0.0000000000000D+00  0.0000000000000D+00
428  4.2700000000000D+00  0.0000000000000D+00  0.0000000000000D+00
429  4.2800000000000D+00  0.0000000000000D+00  0.0000000000000D+00
430  4.2900000000000D+00  0.0000000000000D+00  0.0000000000000D+00
431  4.3000000000000D+00  0.0000000000000D+00  0.0000000000000D+00
432  4.3100000000000D+00  0.0000000000000D+00  0.0000000000000D+00
433  4.3200000000000D+00  0.0000000000000D+00  0.0000000000000D+00
434  4.3300000000000D+00  0.0000000000000D+00  0.0000000000000D+00
435  4.3400000000000D+00  0.0000000000000D+00  0.0000000000000D+00
436  4.3500000000000D+00  0.0000000000000D+00  0.0000000000000D+00
437  4.3600000000000D+00  0.0000000000000D+00  0.0000000000000D+00
438  4.3700000000000D+00  0.0000000000000D+00  0.0000000000000D+00
439  4.3800000000000D+00  0.0000000000000D+00  0.0000000000000D+00
440  4.3900000000000D+00  0.0000000000000D+00  0.0000000000000D+00
441  4.4000000000000D+00  0.0000000000000D+00  0.0000000000000D+00
442  4.4100000000000D+00  0.0000000000000D+00  0.0000000000000D+00
443  4.4200000000000D+00  0.0000000000000D+00  0.0000000000000D+00
444  4.4300000000000D+00  0.0000000000000D+00  0.0000000000000D+00