Co    ONCVPSP-3.3.0  r_core=   1.26190   1.32357   1.66026
27.0000     17.0000      180420    zatom,zion,pspd
8      11   2     4   600     0    pspcod,pspxc,lmax,lloc,mmax,r2well
5.99000000  6.00000000  0.00000000    rchrg fchrg qchrg
2     3     2     0    nproj
3     1           extension_switch
4     3     0    nprojso
0                        -6.8028672086835D-01  6.2904623524690D+00
1  0.0000000000000D+00  3.7827744825414D-09  4.7355896981571D-11
2  1.0000000000000D-02  3.1536119260814D-02  9.2532711145260D-02
3  2.0000000000000D-02  6.3107805060963D-02  1.8479326766603D-01
4  3.0000000000000D-02  9.4746855008735D-02  2.7651040967665D-01
5  4.0000000000000D-02  1.2647759772681D-01  3.6741466470667D-01
6  5.0000000000000D-02  1.5831332957472D-01  4.5723923623979D-01
7  6.0000000000000D-02  1.9025295410918D-01  5.4572088601529D-01
8  7.0000000000000D-02  2.2227788736405D-01  6.3260080795530D-01
9  8.0000000000000D-02  2.5434928824883D-01  7.1762549153381D-01
10  9.0000000000000D-02  2.8640566872626D-01  8.0054757234680D-01
11  1.0000000000000D-01  3.1836093299286D-01  8.8112666757775D-01
12  1.1000000000000D-01  3.5010288872088D-01  9.5913019398245D-01
13  1.2000000000000D-01  3.8149226660294D-01  1.0343341659418D+00
14  1.3000000000000D-01  4.1236227705895D-01  1.1065239710549D+00
15  1.4000000000000D-01  4.4251872511233D-01  1.1754951206682D+00
16  1.5000000000000D-01  4.7174069622001D-01  1.2410539726648D+00
17  1.6000000000000D-01  4.9978181735331D-01  1.3030184237684D+00
18  1.7000000000000D-01  5.2637208898633D-01  1.3612185685610D+00
19  1.8000000000000D-01  5.5122027496538D-01  1.4154973223635D+00
20  1.9000000000000D-01  5.7401682862454D-01  1.4657110050953D+00
21  2.0000000000000D-01  5.9443732509033D-01  1.5117298832144D+00
22  2.1000000000000D-01  6.1214636159845D-01  1.5534386668383D+00
23  2.2000000000000D-01  6.2680187993689D-01  1.5907369591719D+00
24  2.3000000000000D-01  6.3805985793973D-01  1.6235396554167D+00
25  2.4000000000000D-01  6.4557931038621D-01  1.6517772884057D+00
26  2.5000000000000D-01  6.4902753380404D-01  1.6753963183122D+00
27  2.6000000000000D-01  6.4808552462334D-01  1.6943593639071D+00
28  2.7000000000000D-01  6.4245349595332D-01  1.7086453730000D+00
29  2.8000000000000D-01  6.3185641502801D-01  1.7182497298874D+00
30  2.9000000000000D-01  6.1604948114541D-01  1.7231842978521D+00
31  3.0000000000000D-01  5.9482346275129D-01  1.7234773950079D+00
32  3.1000000000000D-01  5.6800981222685D-01  1.7191737020663D+00
33  3.2000000000000D-01  5.3548547794726D-01  1.7103341009088D+00
34  3.3000000000000D-01  4.9717733529023D-01  1.6970354431907D+00
35  3.4000000000000D-01  4.5306616148205D-01  1.6793702485618D+00
36  3.5000000000000D-01  4.0319008344927D-01  1.6574463324814D+00
37  3.6000000000000D-01  3.4764743315990D-01  1.6313863640114D+00
38  3.7000000000000D-01  2.8659895123801D-01  1.6013273543996D+00
39  3.8000000000000D-01  2.2026928685562D-01  1.5674200777091D+00
40  3.9000000000000D-01  1.4894774996670D-01  1.5298284252002D+00
41  4.0000000000000D-01  7.2988280762022D-02  1.4887286956361D+00
42  4.1000000000000D-01 -7.1913893111811D-03  1.4443088241424D+00
43  4.2000000000000D-01 -9.1111400616372D-02  1.3967675527184D+00
44  4.3000000000000D-01 -1.7823225770715D-01  1.3463135459487D+00
45  4.4000000000000D-01 -2.6795814552848D-01  1.2931644559131D+00
46  4.5000000000000D-01 -3.5964105307231D-01  1.2375459407204D+00
47  4.6000000000000D-01 -4.5258567722492D-01  1.1796906414997D+00
48  4.7000000000000D-01 -5.4605506876856D-01  1.1198371230694D+00
49  4.8000000000000D-01 -6.3927697198869D-01  1.0582287838547D+00
50  4.9000000000000D-01 -7.3145079923134D-01  9.9511274094574D-01
51  5.0000000000000D-01 -8.2175517219285D-01  9.3073869646914D-01
52  5.1000000000000D-01 -9.0935595284116D-01  8.6535779168161D-01
53  5.2000000000000D-01 -9.9341467878889D-01  7.9922145538941D-01
54  5.3000000000000D-01 -1.0730973107875D+00  7.3258025343715D-01
55  5.4000000000000D-01 -1.1475831939035D+00  6.6568274610068D-01
56  5.5000000000000D-01 -1.2160741289540D+00  5.9877436025447D-01
57  5.6000000000000D-01 -1.2778034470325D+00  5.3209628316302D-01
58  5.7000000000000D-01 -1.3320449774916D+00  4.6588438466810D-01
59  5.8000000000000D-01 -1.3781217986450D+00  4.0036817440729D-01
60  5.9000000000000D-01 -1.4154146607318D+00  3.3576980050578D-01
61  6.0000000000000D-01 -1.4433699723861D+00  2.7230309593166D-01
62  6.1000000000000D-01 -1.4615072449651D+00  2.1017267839789D-01
63  6.2000000000000D-01 -1.4694258936096D+00  1.4957310933299D-01
64  6.3000000000000D-01 -1.4668112998096D+00  9.0688117028617D-02
65  6.4000000000000D-01 -1.4534400474326D+00  3.3689888613021D-02
66  6.5000000000000D-01 -1.4291842526682D+00 -2.1261565008816D-02
67  6.6000000000000D-01 -1.3940149179498D+00 -7.4018967652026D-02
68  6.7000000000000D-01 -1.3480042505838D+00 -1.2444825677021D-01
69  6.8000000000000D-01 -1.2913268984819D+00 -1.7242898039306D-01
70  6.9000000000000D-01 -1.2242600678106D+00 -2.1785461031604D-01
71  7.0000000000000D-01 -1.1471825004426D+00 -2.6063277042772D-01
72  7.1000000000000D-01 -1.0605723027271D+00 -3.0068537972828D-01
73  7.2000000000000D-01 -9.6500363101948D-01 -3.3794871026326D-01
74  7.3000000000000D-01 -8.6114225349035D-01 -3.7237336086631D-01
75  7.4000000000000D-01 -7.4974002183727D-01 -4.0392414826719D-01
76  7.5000000000000D-01 -6.3162830034677D-01 -4.3257991776632D-01
77  7.6000000000000D-01 -5.0771041329752D-01 -4.5833327630405D-01
78  7.7000000000000D-01 -3.7895318459181D-01 -4.8119025134862D-01
79  7.8000000000000D-01 -2.4637765568924D-01 -5.0116987958897D-01
80  7.9000000000000D-01 -1.1104907919498D-01 -5.1830372994034D-01
81  8.0000000000000D-01  2.5933704339467D-02 -5.3263536584640D-01
82  8.1000000000000D-01  1.6344938985764D-01 -5.4421975228640D-01
83  8.2000000000000D-01  3.0036570729699D-01 -5.5312261326450D-01
84  8.3000000000000D-01  4.3555116679449D-01 -5.5941974586853D-01
85  8.4000000000000D-01  5.6788691464973D-01 -5.6319629723178D-01
86  8.5000000000000D-01  6.9627856215027D-01 -5.6454601091314D-01
87  8.6000000000000D-01  8.1966784813096D-01 -5.6357044932510D-01
88  8.7000000000000D-01  9.3704399665615D-01 -5.6037819888552D-01
89  8.8000000000000D-01  1.0474546334990D+00 -5.5508406454651D-01
90  8.9000000000000D-01  1.1500161291381D+00 -5.4780826026381D-01
91  9.0000000000000D-01  1.2439232417675D+00 -5.3867560181331D-01
92  9.1000000000000D-01  1.3284579412694D+00 -5.2781470813997D-01
93  9.2000000000000D-01  1.4029973041520D+00 -5.1535721714207D-01
94  9.3000000000000D-01  1.4670203800107D+00 -5.0143702145240D-01
95  9.4000000000000D-01  1.5201139420075D+00 -4.8618952938442D-01
96  9.5000000000000D-01  1.5619770470451D+00 -4.6975095576764D-01
97  9.6000000000000D-01  1.5924243455765D+00 -4.5225764691064D-01
98  9.7000000000000D-01  1.6113880961509D+00 -4.3384544340752D-01
99  9.8000000000000D-01  1.6189188557860D+00 -4.1464908394592D-01
100  9.9000000000000D-01  1.6151848335927D+00 -3.9480165270064D-01
101  1.0000000000000D+00  1.6004699117026D+00 -3.7443407230625D-01
102  1.0100000000000D+00  1.5751703547687D+00 -3.5367464378492D-01
103  1.0200000000000D+00  1.5397902456919D+00 -3.3264863421187D-01
104  1.0300000000000D+00  1.4949357017725D+00 -3.1147791229506D-01
105  1.0400000000000D+00  1.4413079413115D+00 -2.9028063145834D-01
106  1.0500000000000D+00  1.3796952860696D+00 -2.6917095943681D-01
107  1.0600000000000D+00  1.3109641981350D+00 -2.4825885289034D-01
108  1.0700000000000D+00  1.2360494642294D+00 -2.2764987497326D-01
109  1.0800000000000D+00  1.1559436509640D+00 -2.0744505337313D-01
110  1.0900000000000D+00  1.0716859652600D+00 -1.8774077588416D-01
111  1.1000000000000D+00  9.8435066251964D-01 -1.6862872020666D-01
112  1.1100000000000D+00  8.9503515169805D-01 -1.5019581435830D-01
113  1.1200000000000D+00  8.0484795208890D-01 -1.3252422377371D-01
114  1.1300000000000D+00  7.1489665901859D-01 -1.1569136099640D-01
115  1.1400000000000D+00  6.2627607641748D-01 -9.9769913708653D-02
116  1.1500000000000D+00  5.4005667442472D-01 -8.4827886759184D-02
117  1.1600000000000D+00  4.5727352623818D-01 -7.0928653811330D-02
118  1.1700000000000D+00  3.7891588867261D-01 -5.8131014641580D-02
119  1.1800000000000D+00  3.0591755717468D-01 -4.6489253164601D-02
120  1.1900000000000D+00  2.3914768711506D-01 -3.6053184661981D-02
121  1.2000000000000D+00  1.7940406424659D-01 -2.6868223367032D-02
122  1.2100000000000D+00  1.2740628503823D-01 -1.8975419366077D-02
123  1.2200000000000D+00  8.3785200247111D-02 -1.2412697073052D-02
124  1.2300000000000D+00  4.9017854428704D-02 -7.2083354409596D-03
125  1.2400000000000D+00  2.3306669756576D-02 -3.3669526457076D-03
126  1.2500000000000D+00  7.6211551203086D-03 -1.0095374094727D-03
127  1.2600000000000D+00  1.1419482203933D-03 -3.4873432391589D-05
128  1.2700000000000D+00 -1.8512621861526D-04  8.8968786418038D-05
129  1.2800000000000D+00  6.2349837918612D-05 -1.9420031063668D-05
130  1.2900000000000D+00  4.2586843868581D-05 -1.1652844631592D-05
131  1.3000000000000D+00 -1.5037660433053D-05  5.3586899261167D-06
132  1.3100000000000D+00 -8.4425031864790D-07 -4.6653078907260D-08
133  1.3200000000000D+00 -1.1174727533105D-06 -6.1751287959712D-08
134  1.3300000000000D+00  0.0000000000000D+00  0.0000000000000D+00
135  1.3400000000000D+00  0.0000000000000D+00  0.0000000000000D+00
136  1.3500000000000D+00  0.0000000000000D+00  0.0000000000000D+00
137  1.3600000000000D+00  0.0000000000000D+00  0.0000000000000D+00
138  1.3700000000000D+00  0.0000000000000D+00  0.0000000000000D+00
139  1.3800000000000D+00  0.0000000000000D+00  0.0000000000000D+00
140  1.3900000000000D+00  0.0000000000000D+00  0.0000000000000D+00
141  1.4000000000000D+00  0.0000000000000D+00  0.0000000000000D+00
142  1.4100000000000D+00  0.0000000000000D+00  0.0000000000000D+00
143  1.4200000000000D+00  0.0000000000000D+00  0.0000000000000D+00
144  1.4300000000000D+00  0.0000000000000D+00  0.0000000000000D+00
145  1.4400000000000D+00  0.0000000000000D+00  0.0000000000000D+00
146  1.4500000000000D+00  0.0000000000000D+00  0.0000000000000D+00
147  1.4600000000000D+00  0.0000000000000D+00  0.0000000000000D+00
148  1.4700000000000D+00  0.0000000000000D+00  0.0000000000000D+00
149  1.4800000000000D+00  0.0000000000000D+00  0.0000000000000D+00
150  1.4900000000000D+00  0.0000000000000D+00  0.0000000000000D+00
151  1.5000000000000D+00  0.0000000000000D+00  0.0000000000000D+00
152  1.5100000000000D+00  0.0000000000000D+00  0.0000000000000D+00
153  1.5200000000000D+00  0.0000000000000D+00  0.0000000000000D+00
154  1.5300000000000D+00  0.0000000000000D+00  0.0000000000000D+00
155  1.5400000000000D+00  0.0000000000000D+00  0.0000000000000D+00
156  1.5500000000000D+00  0.0000000000000D+00  0.0000000000000D+00
157  1.5600000000000D+00  0.0000000000000D+00  0.0000000000000D+00
158  1.5700000000000D+00  0.0000000000000D+00  0.0000000000000D+00
159  1.5800000000000D+00  0.0000000000000D+00  0.0000000000000D+00
160  1.5900000000000D+00  0.0000000000000D+00  0.0000000000000D+00
161  1.6000000000000D+00  0.0000000000000D+00  0.0000000000000D+00
162  1.6100000000000D+00  0.0000000000000D+00  0.0000000000000D+00
163  1.6200000000000D+00  0.0000000000000D+00  0.0000000000000D+00
164  1.6300000000000D+00  0.0000000000000D+00  0.0000000000000D+00
165  1.6400000000000D+00  0.0000000000000D+00  0.0000000000000D+00
166  1.6500000000000D+00  0.0000000000000D+00  0.0000000000000D+00
167  1.6600000000000D+00  0.0000000000000D+00  0.0000000000000D+00
168  1.6700000000000D+00  0.0000000000000D+00  0.0000000000000D+00
169  1.6800000000000D+00  0.0000000000000D+00  0.0000000000000D+00
170  1.6900000000000D+00  0.0000000000000D+00  0.0000000000000D+00
171  1.7000000000000D+00  0.0000000000000D+00  0.0000000000000D+00
172  1.7100000000000D+00  0.0000000000000D+00  0.0000000000000D+00
173  1.7200000000000D+00  0.0000000000000D+00  0.0000000000000D+00
174  1.7300000000000D+00  0.0000000000000D+00  0.0000000000000D+00
175  1.7400000000000D+00  0.0000000000000D+00  0.0000000000000D+00
176  1.7500000000000D+00  0.0000000000000D+00  0.0000000000000D+00
177  1.7600000000000D+00  0.0000000000000D+00  0.0000000000000D+00
178  1.7700000000000D+00  0.0000000000000D+00  0.0000000000000D+00
179  1.7800000000000D+00  0.0000000000000D+00  0.0000000000000D+00
180  1.7900000000000D+00  0.0000000000000D+00  0.0000000000000D+00
181  1.8000000000000D+00  0.0000000000000D+00  0.0000000000000D+00
182  1.8100000000000D+00  0.0000000000000D+00  0.0000000000000D+00
183  1.8200000000000D+00  0.0000000000000D+00  0.0000000000000D+00
184  1.8300000000000D+00  0.0000000000000D+00  0.0000000000000D+00
185  1.8400000000000D+00  0.0000000000000D+00  0.0000000000000D+00
186  1.8500000000000D+00  0.0000000000000D+00  0.0000000000000D+00
187  1.8600000000000D+00  0.0000000000000D+00  0.0000000000000D+00
188  1.8700000000000D+00  0.0000000000000D+00  0.0000000000000D+00
189  1.8800000000000D+00  0.0000000000000D+00  0.0000000000000D+00
190  1.8900000000000D+00  0.0000000000000D+00  0.0000000000000D+00
191  1.9000000000000D+00  0.0000000000000D+00  0.0000000000000D+00
192  1.9100000000000D+00  0.0000000000000D+00  0.0000000000000D+00
193  1.9200000000000D+00  0.0000000000000D+00  0.0000000000000D+00
194  1.9300000000000D+00  0.0000000000000D+00  0.0000000000000D+00
195  1.9400000000000D+00  0.0000000000000D+00  0.0000000000000D+00
196  1.9500000000000D+00  0.0000000000000D+00  0.0000000000000D+00
197  1.9600000000000D+00  0.0000000000000D+00  0.0000000000000D+00
198  1.9700000000000D+00  0.0000000000000D+00  0.0000000000000D+00
199  1.9800000000000D+00  0.0000000000000D+00  0.0000000000000D+00
200  1.9900000000000D+00  0.0000000000000D+00  0.0000000000000D+00
201  2.0000000000000D+00  0.0000000000000D+00  0.0000000000000D+00
202  2.0100000000000D+00  0.0000000000000D+00  0.0000000000000D+00
203  2.0200000000000D+00  0.0000000000000D+00  0.0000000000000D+00
204  2.0300000000000D+00  0.0000000000000D+00  0.0000000000000D+00
205  2.0400000000000D+00  0.0000000000000D+00  0.0000000000000D+00
206  2.0500000000000D+00  0.0000000000000D+00  0.0000000000000D+00
207  2.0600000000000D+00  0.0000000000000D+00  0.0000000000000D+00
208  2.0700000000000D+00  0.0000000000000D+00  0.0000000000000D+00
209  2.0800000000000D+00  0.0000000000000D+00  0.0000000000000D+00
210  2.0900000000000D+00  0.0000000000000D+00  0.0000000000000D+00
211  2.1000000000000D+00  0.0000000000000D+00  0.0000000000000D+00
212  2.1100000000000D+00  0.0000000000000D+00  0.0000000000000D+00
213  2.1200000000000D+00  0.0000000000000D+00  0.0000000000000D+00
214  2.1300000000000D+00  0.0000000000000D+00  0.0000000000000D+00
215  2.1400000000000D+00  0.0000000000000D+00  0.0000000000000D+00
216  2.1500000000000D+00  0.0000000000000D+00  0.0000000000000D+00
217  2.1600000000000D+00  0.0000000000000D+00  0.0000000000000D+00
218  2.1700000000000D+00  0.0000000000000D+00  0.0000000000000D+00
219  2.1800000000000D+00  0.0000000000000D+00  0.0000000000000D+00
220  2.1900000000000D+00  0.0000000000000D+00  0.0000000000000D+00
221  2.2000000000000D+00  0.0000000000000D+00  0.0000000000000D+00
222  2.2100000000000D+00  0.0000000000000D+00  0.0000000000000D+00
223  2.2200000000000D+00  0.0000000000000D+00  0.0000000000000D+00
224  2.2300000000000D+00  0.0000000000000D+00  0.0000000000000D+00
225  2.2400000000000D+00  0.0000000000000D+00  0.0000000000000D+00
226  2.2500000000000D+00  0.0000000000000D+00  0.0000000000000D+00
227  2.2600000000000D+00  0.0000000000000D+00  0.0000000000000D+00
228  2.2700000000000D+00  0.0000000000000D+00  0.0000000000000D+00
229  2.2800000000000D+00  0.0000000000000D+00  0.0000000000000D+00
230  2.2900000000000D+00  0.0000000000000D+00  0.0000000000000D+00
231  2.3000000000000D+00  0.0000000000000D+00  0.0000000000000D+00
232  2.3100000000000D+00  0.0000000000000D+00  0.0000000000000D+00
233  2.3200000000000D+00  0.0000000000000D+00  0.0000000000000D+00
234  2.3300000000000D+00  0.0000000000000D+00  0.0000000000000D+00
235  2.3400000000000D+00  0.0000000000000D+00  0.0000000000000D+00
236  2.3500000000000D+00  0.0000000000000D+00  0.0000000000000D+00
237  2.3600000000000D+00  0.0000000000000D+00  0.0000000000000D+00
238  2.3700000000000D+00  0.0000000000000D+00  0.0000000000000D+00
239  2.3800000000000D+00  0.0000000000000D+00  0.0000000000000D+00
240  2.3900000000000D+00  0.0000000000000D+00  0.0000000000000D+00
241  2.4000000000000D+00  0.0000000000000D+00  0.0000000000000D+00
242  2.4100000000000D+00  0.0000000000000D+00  0.0000000000000D+00
243  2.4200000000000D+00  0.0000000000000D+00  0.0000000000000D+00
244  2.4300000000000D+00  0.0000000000000D+00  0.0000000000000D+00
245  2.4400000000000D+00  0.0000000000000D+00  0.0000000000000D+00
246  2.4500000000000D+00  0.0000000000000D+00  0.0000000000000D+00
247  2.4600000000000D+00  0.0000000000000D+00  0.0000000000000D+00
248  2.4700000000000D+00  0.0000000000000D+00  0.0000000000000D+00
249  2.4800000000000D+00  0.0000000000000D+00  0.0000000000000D+00
250  2.4900000000000D+00  0.0000000000000D+00  0.0000000000000D+00
251  2.5000000000000D+00  0.0000000000000D+00  0.0000000000000D+00
252  2.5100000000000D+00  0.0000000000000D+00  0.0000000000000D+00
253  2.5200000000000D+00  0.0000000000000D+00  0.0000000000000D+00
254  2.5300000000000D+00  0.0000000000000D+00  0.0000000000000D+00
255  2.5400000000000D+00  0.0000000000000D+00  0.0000000000000D+00
256  2.5500000000000D+00  0.0000000000000D+00  0.0000000000000D+00
257  2.5600000000000D+00  0.0000000000000D+00  0.0000000000000D+00
258  2.5700000000000D+00  0.0000000000000D+00  0.0000000000000D+00
259  2.5800000000000D+00  0.0000000000000D+00  0.0000000000000D+00
260  2.5900000000000D+00  0.0000000000000D+00  0.0000000000000D+00
261  2.6000000000000D+00  0.0000000000000D+00  0.0000000000000D+00
262  2.6100000000000D+00  0.0000000000000D+00  0.0000000000000D+00
263  2.6200000000000D+00  0.0000000000000D+00  0.0000000000000D+00
264  2.6300000000000D+00  0.0000000000000D+00  0.0000000000000D+00
265  2.6400000000000D+00  0.0000000000000D+00  0.0000000000000D+00
266  2.6500000000000D+00  0.0000000000000D+00  0.0000000000000D+00
267  2.6600000000000D+00  0.0000000000000D+00  0.0000000000000D+00
268  2.6700000000000D+00  0.0000000000000D+00  0.0000000000000D+00
269  2.6800000000000D+00  0.0000000000000D+00  0.0000000000000D+00
270  2.6900000000000D+00  0.0000000000000D+00  0.0000000000000D+00
271  2.7000000000000D+00  0.0000000000000D+00  0.0000000000000D+00
272  2.7100000000000D+00  0.0000000000000D+00  0.0000000000000D+00
273  2.7200000000000D+00  0.0000000000000D+00  0.0000000000000D+00
274  2.7300000000000D+00  0.0000000000000D+00  0.0000000000000D+00
275  2.7400000000000D+00  0.0000000000000D+00  0.0000000000000D+00
276  2.7500000000000D+00  0.0000000000000D+00  0.0000000000000D+00
277  2.7600000000000D+00  0.0000000000000D+00  0.0000000000000D+00
278  2.7700000000000D+00  0.0000000000000D+00  0.0000000000000D+00
279  2.7800000000000D+00  0.0000000000000D+00  0.0000000000000D+00
280  2.7900000000000D+00  0.0000000000000D+00  0.0000000000000D+00
281  2.8000000000000D+00  0.0000000000000D+00  0.0000000000000D+00
282  2.8100000000000D+00  0.0000000000000D+00  0.0000000000000D+00
283  2.8200000000000D+00  0.0000000000000D+00  0.0000000000000D+00
284  2.8300000000000D+00  0.0000000000000D+00  0.0000000000000D+00
285  2.8400000000000D+00  0.0000000000000D+00  0.0000000000000D+00
286  2.8500000000000D+00  0.0000000000000D+00  0.0000000000000D+00
287  2.8600000000000D+00  0.0000000000000D+00  0.0000000000000D+00
288  2.8700000000000D+00  0.0000000000000D+00  0.0000000000000D+00
289  2.8800000000000D+00  0.0000000000000D+00  0.0000000000000D+00
290  2.8900000000000D+00  0.0000000000000D+00  0.0000000000000D+00
291  2.9000000000000D+00  0.0000000000000D+00  0.0000000000000D+00
292  2.9100000000000D+00  0.0000000000000D+00  0.0000000000000D+00
293  2.9200000000000D+00  0.0000000000000D+00  0.0000000000000D+00
294  2.9300000000000D+00  0.0000000000000D+00  0.0000000000000D+00
295  2.9400000000000D+00  0.0000000000000D+00  0.0000000000000D+00
296  2.9500000000000D+00  0.0000000000000D+00  0.0000000000000D+00
297  2.9600000000000D+00  0.0000000000000D+00  0.0000000000000D+00
298  2.9700000000000D+00  0.0000000000000D+00  0.0000000000000D+00
299  2.9800000000000D+00  0.0000000000000D+00  0.0000000000000D+00
300  2.9900000000000D+00  0.0000000000000D+00  0.0000000000000D+00
301  3.0000000000000D+00  0.0000000000000D+00  0.0000000000000D+00
302  3.0100000000000D+00  0.0000000000000D+00  0.0000000000000D+00
303  3.0200000000000D+00  0.0000000000000D+00  0.0000000000000D+00
304  3.0300000000000D+00  0.0000000000000D+00  0.0000000000000D+00
305  3.0400000000000D+00  0.0000000000000D+00  0.0000000000000D+00
306  3.0500000000000D+00  0.0000000000000D+00  0.0000000000000D+00
307  3.0600000000000D+00  0.0000000000000D+00  0.0000000000000D+00
308  3.0700000000000D+00  0.0000000000000D+00  0.0000000000000D+00
309  3.0800000000000D+00  0.0000000000000D+00  0.0000000000000D+00
310  3.0900000000000D+00  0.0000000000000D+00  0.0000000000000D+00
311  3.1000000000000D+00  0.0000000000000D+00  0.0000000000000D+00
312  3.1100000000000D+00  0.0000000000000D+00  0.0000000000000D+00
313  3.1200000000000D+00  0.0000000000000D+00  0.0000000000000D+00
314  3.1300000000000D+00  0.0000000000000D+00  0.0000000000000D+00
315  3.1400000000000D+00  0.0000000000000D+00  0.0000000000000D+00
316  3.1500000000000D+00  0.0000000000000D+00  0.0000000000000D+00
317  3.1600000000000D+00  0.0000000000000D+00  0.0000000000000D+00
318  3.1700000000000D+00  0.0000000000000D+00  0.0000000000000D+00
319  3.1800000000000D+00  0.0000000000000D+00  0.0000000000000D+00
320  3.1900000000000D+00  0.0000000000000D+00  0.0000000000000D+00
321  3.2000000000000D+00  0.0000000000000D+00  0.0000000000000D+00
322  3.2100000000000D+00  0.0000000000000D+00  0.0000000000000D+00
323  3.2200000000000D+00  0.0000000000000D+00  0.0000000000000D+00
324  3.2300000000000D+00  0.0000000000000D+00  0.0000000000000D+00
325  3.2400000000000D+00  0.0000000000000D+00  0.0000000000000D+00
326  3.2500000000000D+00  0.0000000000000D+00  0.0000000000000D+00
327  3.2600000000000D+00  0.0000000000000D+00  0.0000000000000D+00
328  3.2700000000000D+00  0.0000000000000D+00  0.0000000000000D+00
329  3.2800000000000D+00  0.0000000000000D+00  0.0000000000000D+00
330  3.2900000000000D+00  0.0000000000000D+00  0.0000000000000D+00
331  3.3000000000000D+00  0.0000000000000D+00  0.0000000000000D+00
332  3.3100000000000D+00  0.0000000000000D+00  0.0000000000000D+00
333  3.3200000000000D+00  0.0000000000000D+00  0.0000000000000D+00
334  3.3300000000000D+00  0.0000000000000D+00  0.0000000000000D+00
335  3.3400000000000D+00  0.0000000000000D+00  0.0000000000000D+00
336  3.3500000000000D+00  0.0000000000000D+00  0.0000000000000D+00
337  3.3600000000000D+00  0.0000000000000D+00  0.0000000000000D+00
338  3.3700000000000D+00  0.0000000000000D+00  0.0000000000000D+00
339  3.3800000000000D+00  0.0000000000000D+00  0.0000000000000D+00
340  3.3900000000000D+00  0.0000000000000D+00  0.0000000000000D+00
341  3.4000000000000D+00  0.0000000000000D+00  0.0000000000000D+00
342  3.4100000000000D+00  0.0000000000000D+00  0.0000000000000D+00
343  3.4200000000000D+00  0.0000000000000D+00  0.0000000000000D+00
344  3.4300000000000D+00  0.0000000000000D+00  0.0000000000000D+00
345  3.4400000000000D+00  0.0000000000000D+00  0.0000000000000D+00
346  3.4500000000000D+00  0.0000000000000D+00  0.0000000000000D+00
347  3.4600000000000D+00  0.0000000000000D+00  0.0000000000000D+00
348  3.4700000000000D+00  0.0000000000000D+00  0.0000000000000D+00
349  3.4800000000000D+00  0.0000000000000D+00  0.0000000000000D+00
350  3.4900000000000D+00  0.0000000000000D+00  0.0000000000000D+00
351  3.5000000000000D+00  0.0000000000000D+00  0.0000000000000D+00
352  3.5100000000000D+00  0.0000000000000D+00  0.0000000000000D+00
353  3.5200000000000D+00  0.0000000000000D+00  0.0000000000000D+00
354  3.5300000000000D+00  0.0000000000000D+00  0.0000000000000D+00
355  3.5400000000000D+00  0.0000000000000D+00  0.0000000000000D+00
356  3.5500000000000D+00  0.0000000000000D+00  0.0000000000000D+00
357  3.5600000000000D+00  0.0000000000000D+00  0.0000000000000D+00
358  3.5700000000000D+00  0.0000000000000D+00  0.0000000000000D+00
359  3.5800000000000D+00  0.0000000000000D+00  0.0000000000000D+00
360  3.5900000000000D+00  0.0000000000000D+00  0.0000000000000D+00
361  3.6000000000000D+00  0.0000000000000D+00  0.0000000000000D+00
362  3.6100000000000D+00  0.0000000000000D+00  0.0000000000000D+00
363  3.6200000000000D+00  0.0000000000000D+00  0.0000000000000D+00
364  3.6300000000000D+00  0.0000000000000D+00  0.0000000000000D+00
365  3.6400000000000D+00  0.0000000000000D+00  0.0000000000000D+00
366  3.6500000000000D+00  0.0000000000000D+00  0.0000000000000D+00
367  3.6600000000000D+00  0.0000000000000D+00  0.0000000000000D+00
368  3.6700000000000D+00  0.0000000000000D+00  0.0000000000000D+00
369  3.6800000000000D+00  0.0000000000000D+00  0.0000000000000D+00
370  3.6900000000000D+00  0.0000000000000D+00  0.0000000000000D+00
371  3.7000000000000D+00  0.0000000000000D+00  0.0000000000000D+00
372  3.7100000000000D+00  0.0000000000000D+00  0.0000000000000D+00
373  3.7200000000000D+00  0.0000000000000D+00  0.0000000000000D+00
374  3.7300000000000D+00  0.0000000000000D+00  0.0000000000000D+00
375  3.7400000000000D+00  0.0000000000000D+00  0.0000000000000D+00
376  3.7500000000000D+00  0.0000000000000D+00  0.0000000000000D+00
377  3.7600000000000D+00  0.0000000000000D+00  0.0000000000000D+00
378  3.7700000000000D+00  0.0000000000000D+00  0.0000000000000D+00
379  3.7800000000000D+00  0.0000000000000D+00  0.0000000000000D+00
380  3.7900000000000D+00  0.0000000000000D+00  0.0000000000000D+00
381  3.8000000000000D+00  0.0000000000000D+00  0.0000000000000D+00
382  3.8100000000000D+00  0.0000000000000D+00  0.0000000000000D+00
383  3.8200000000000D+00  0.0000000000000D+00  0.0000000000000D+00
384  3.8300000000000D+00  0.0000000000000D+00  0.0000000000000D+00
385  3.8400000000000D+00  0.0000000000000D+00  0.0000000000000D+00
386  3.8500000000000D+00  0.0000000000000D+00  0.0000000000000D+00
387  3.8600000000000D+00  0.0000000000000D+00  0.0000000000000D+00
388  3.8700000000000D+00  0.0000000000000D+00  0.0000000000000D+00
389  3.8800000000000D+00  0.0000000000000D+00  0.0000000000000D+00
390  3.8900000000000D+00  0.0000000000000D+00  0.0000000000000D+00
391  3.9000000000000D+00  0.0000000000000D+00  0.0000000000000D+00
392  3.9100000000000D+00  0.0000000000000D+00  0.0000000000000D+00
393  3.9200000000000D+00  0.0000000000000D+00  0.0000000000000D+00
394  3.9300000000000D+00  0.0000000000000D+00  0.0000000000000D+00
395  3.9400000000000D+00  0.0000000000000D+00  0.0000000000000D+00
396  3.9500000000000D+00  0.0000000000000D+00  0.0000000000000D+00
397  3.9600000000000D+00  0.0000000000000D+00  0.0000000000000D+00
398  3.9700000000000D+00  0.0000000000000D+00  0.0000000000000D+00
399  3.9800000000000D+00  0.0000000000000D+00  0.0000000000000D+00
400  3.9900000000000D+00  0.0000000000000D+00  0.0000000000000D+00
401  4.0000000000000D+00  0.0000000000000D+00  0.0000000000000D+00
402  4.0100000000000D+00  0.0000000000000D+00  0.0000000000000D+00
403  4.0200000000000D+00  0.0000000000000D+00  0.0000000000000D+00
404  4.0300000000000D+00  0.0000000000000D+00  0.0000000000000D+00
405  4.0400000000000D+00  0.0000000000000D+00  0.0000000000000D+00
406  4.0500000000000D+00  0.0000000000000D+00  0.0000000000000D+00
407  4.0600000000000D+00  0.0000000000000D+00  0.0000000000000D+00
408  4.0700000000000D+00  0.0000000000000D+00  0.0000000000000D+00
409  4.0800000000000D+00  0.0000000000000D+00  0.0000000000000D+00
410  4.0900000000000D+00  0.0000000000000D+00  0.0000000000000D+00
411  4.1000000000000D+00  0.0000000000000D+00  0.0000000000000D+00
412  4.1100000000000D+00  0.0000000000000D+00  0.0000000000000D+00
413  4.1200000000000D+00  0.0000000000000D+00  0.0000000000000D+00
414  4.1300000000000D+00  0.0000000000000D+00  0.0000000000000D+00
415  4.1400000000000D+00  0.0000000000000D+00  0.0000000000000D+00
416  4.1500000000000D+00  0.0000000000000D+00  0.0000000000000D+00
417  4.1600000000000D+00  0.0000000000000D+00  0.0000000000000D+00
418  4.1700000000000D+00  0.0000000000000D+00  0.0000000000000D+00
419  4.1800000000000D+00  0.0000000000000D+00  0.0000000000000D+00
420  4.1900000000000D+00  0.0000000000000D+00  0.0000000000000D+00
421  4.2000000000000D+00  0.0000000000000D+00  0.0000000000000D+00
422  4.2100000000000D+00  0.0000000000000D+00  0.0000000000000D+00
423  4.2200000000000D+00  0.0000000000000D+00  0.0000000000000D+00
424  4.2300000000000D+00  0.0000000000000D+00  0.0000000000000D+00
425  4.2400000000000D+00  0.0000000000000D+00  0.0000000000000D+00
426  4.2500000000000D+00  0.0000000000000D+00  0.0000000000000D+00
427  4.2600000000000D+00  0.0000000000000D+00  0.0000000000000D+00
428  4.2700000000000D+00  0.0000000000000D+00  0.0000000000000D+00
429  4.2800000000000D+00  0.0000000000000D+00  0.0000000000000D+00
430  4.2900000000000D+00  0.0000000000000D+00  0.0000000000000D+00
431  4.3000000000000D+00  0.0000000000000D+00  0.0000000000000D+00
432  4.3100000000000D+00  0.0000000000000D+00  0.0000000000000D+00
433  4.3200000000000D+00  0.0000000000000D+00  0.0000000000000D+00
434  4.3300000000000D+00  0.0000000000000D+00  0.0000000000000D+00
435  4.3400000000000D+00  0.0000000000000D+00  0.0000000000000D+00
436  4.3500000000000D+00  0.0000000000000D+00  0.0000000000000D+00
437  4.3600000000000D+00  0.0000000000000D+00  0.0000000000000D+00
438  4.3700000000000D+00  0.0000000000000D+00  0.0000000000000D+00
439  4.3800000000000D+00  0.0000000000000D+00  0.0000000000000D+00
440  4.3900000000000D+00  0.0000000000000D+00  0.0000000000000D+00
441  4.4000000000000D+00  0.0000000000000D+00  0.0000000000000D+00
442  4.4100000000000D+00  0.0000000000000D+00  0.0000000000000D+00
443  4.4200000000000D+00  0.0000000000000D+00  0.0000000000000D+00