Sc    ONCVPSP  r_core=  1.36  1.36  1.66
21.0000     11.0000      161004    zatom,zion,pspd
8 -116133   2     4   600     0    pspcod,pspxc,lmax,lloc,mmax,r2well
5.99000000  5.00000000  0.00000000    rchrg fchrg qchrg
2     2     2     0     0    nproj
1                 extension_switch
0                         1.0718685990986D+01  9.2316910613446D-01
1  0.0000000000000D+00  3.9669767470940D-09 -1.8520536881894D-08
2  1.0000000000000D-02  7.4503203722212D-02 -2.1074607643500D-02
3  2.0000000000000D-02  1.4890650190313D-01 -4.2314478159719D-02
4  3.0000000000000D-02  2.2310860205814D-01 -6.3876950232126D-02
5  4.0000000000000D-02  2.9700548128130D-01 -8.5903719523233D-02
6  5.0000000000000D-02  3.7048912864573D-01 -1.0851352564515D-01
7  6.0000000000000D-02  4.4344641381579D-01 -1.3179543566629D-01
8  7.0000000000000D-02  5.1575811914530D-01 -1.5580290060559D-01
9  8.0000000000000D-02  5.8729816856930D-01 -1.8054874284501D-01
10  9.0000000000000D-02  6.5793308181404D-01 -2.0600121006534D-01
11  1.0000000000000D-01  7.2752167696363D-01 -2.3208120569995D-01
12  1.1000000000000D-01  7.9591503835936D-01 -2.5866077760720D-01
13  1.2000000000000D-01  8.6295676031075D-01 -2.8556291634474D-01
14  1.3000000000000D-01  9.2848347031849D-01 -3.1256268280099D-01
15  1.4000000000000D-01  9.9232562860662D-01 -3.3938965274072D-01
16  1.5000000000000D-01  1.0543085938969D+00 -3.6573163381245D-01
17  1.6000000000000D-01  1.1142539386939D+00 -3.9123957949756D-01
18  1.7000000000000D-01  1.1719809910425D+00 -4.1553359508997D-01
19  1.8000000000000D-01  1.2273085739159D+00 -4.3820990377782D-01
20  1.9000000000000D-01  1.2800569082385D+00 -4.5884861689655D-01
21  2.0000000000000D-01  1.3300496411542D+00 -4.7702213201307D-01
22  2.1000000000000D-01  1.3771159576371D+00 -4.9230396617429D-01
23  2.2000000000000D-01  1.4210927309805D+00 -5.0427781980959D-01
24  2.3000000000000D-01  1.4618266661684D+00 -5.1254665971199D-01
25  2.4000000000000D-01  1.4991763896576D+00 -5.1674160742198D-01
26  2.5000000000000D-01  1.5330144397093D+00 -5.1653042227154D-01
27  2.6000000000000D-01  1.5632291130820D+00 -5.1162537626654D-01
28  2.7000000000000D-01  1.5897261266123D+00 -5.0179033073149D-01
29  2.8000000000000D-01  1.6124300558966D+00 -4.8684684193374D-01
30  2.9000000000000D-01  1.6312855178739D+00 -4.6667914436228D-01
31  3.0000000000000D-01  1.6462580694892D+00 -4.4123788547573D-01
32  3.1000000000000D-01  1.6573348006659D+00 -4.1054251398648D-01
33  3.2000000000000D-01  1.6645246064072D+00 -3.7468225446529D-01
34  3.3000000000000D-01  1.6678581298144D+00 -3.3381563352883D-01
35  3.4000000000000D-01  1.6673873750102D+00 -2.8816855635977D-01
36  3.5000000000000D-01  1.6631849962114D+00 -2.3803096602672D-01
37  3.6000000000000D-01  1.6553432763433D+00 -1.8375215123414D-01
38  3.7000000000000D-01  1.6439728154610D+00 -1.2573479995566D-01
39  3.8000000000000D-01  1.6292009556814D+00 -6.4427926144664D-02
40  3.9000000000000D-01  1.6111699751788D+00 -3.1882365519499D-04
41  4.0000000000000D-01  1.5900350889228D+00  6.6075774994812D-02
42  4.1000000000000D-01  1.5659622981132D+00  1.3421913790151D-01
43  4.2000000000000D-01  1.5391261335907D+00  2.0356435898937D-01
44  4.3000000000000D-01  1.5097073407957D+00  2.7356434694171D-01
45  4.4000000000000D-01  1.4778905550452D+00  3.4368175065510D-01
46  4.5000000000000D-01  1.4438620159734D+00  4.1339859434546D-01
47  4.6000000000000D-01  1.4078073689247D+00  4.8222540107525D-01
48  4.7000000000000D-01  1.3699095989159D+00  5.4970959433752D-01
49  4.8000000000000D-01  1.3303471395456D+00  6.1544298320602D-01
50  4.9000000000000D-01  1.2892921949915D+00  6.7906815710871D-01
51  5.0000000000000D-01  1.2469093080932D+00  7.4028364105033D-01
52  5.1000000000000D-01  1.2033542015901D+00  7.9884769055631D-01
53  5.2000000000000D-01  1.1587729129942D+00  8.5458063709749D-01
54  5.3000000000000D-01  1.1133012364890D+00  9.0736572857520D-01
55  5.4000000000000D-01  1.0670644778205D+00  9.5714844477824D-01
56  5.5000000000000D-01  1.0201775205384D+00  1.0039343038707D+00
57  5.6000000000000D-01  9.7274519436448D-01  1.0477852119251D+00
58  5.7000000000000D-01  9.2486292906173D-01  1.0888144425934D+00
59  5.8000000000000D-01  8.7661767013536D-01  1.1271803672932D+00
60  5.9000000000000D-01  8.2808902619888D-01  1.1630790869873D+00
61  6.0000000000000D-01  7.7935061201248D-01  1.1967361440725D+00
62  6.1000000000000D-01  7.3047154621953D-01  1.2283975163165D+00
63  6.2000000000000D-01  6.8151805877544D-01  1.2583201136648D+00
64  6.3000000000000D-01  6.3255516008543D-01  1.2867620125990D+00
65  6.4000000000000D-01  5.8364832203652D-01  1.3139726711365D+00
66  6.5000000000000D-01  5.3486512045545D-01  1.3401833703674D+00
67  6.6000000000000D-01  4.8627678910153D-01  1.3655981253861D+00
68  6.7000000000000D-01  4.3795963706953D-01  1.3903852997885D+00
69  6.8000000000000D-01  3.8999628445616D-01  1.4146701434660D+00
70  6.9000000000000D-01  3.4247667522494D-01  1.4385284537552D+00
71  7.0000000000000D-01  2.9549883132766D-01  1.4619815353869D+00
72  7.1000000000000D-01  2.4916931818937D-01  1.4849926056738D+00
73  7.2000000000000D-01  2.0360339852924D-01  1.5074647584944D+00
74  7.3000000000000D-01  1.5892485896487D-01  1.5292405648624D+00
75  7.4000000000000D-01  1.1526550182339D-01  1.5501033497204D+00
76  7.5000000000000D-01  7.2764302837199D-02  1.5697801451266D+00
77  7.6000000000000D-01  3.1566243748927D-02  1.5879462800834D+00
78  7.7000000000000D-01 -8.1791628546206D-03  1.6042315275829D+00
79  7.8000000000000D-01 -4.6319631206331D-02  1.6182276913748D+00
80  7.9000000000000D-01 -8.2702109733194D-02  1.6294974789701D+00
81  8.0000000000000D-01 -1.1717499851016D-01  1.6375844745655D+00
82  8.1000000000000D-01 -1.4959053114152D-01  1.6420239966340D+00
83  8.2000000000000D-01 -1.7980727037115D-01  1.6423546005942D+00
84  8.3000000000000D-01 -2.0769266277988D-01  1.6381299678494D+00
85  8.4000000000000D-01 -2.3312559519375D-01  1.6289309090918D+00
86  8.5000000000000D-01 -2.5599889397875D-01  1.6143772024445D+00
87  8.6000000000000D-01 -2.7622170828611D-01  1.5941389860237D+00
88  8.7000000000000D-01 -2.9372171955604D-01  1.5679474299262D+00
89  8.8000000000000D-01 -3.0844712217558D-01  1.5356044244294D+00
90  8.9000000000000D-01 -3.2036832407600D-01  1.4969910391472D+00
91  9.0000000000000D-01 -3.2947932117335D-01  1.4520745316601D+00
92  9.1000000000000D-01 -3.3579870580239D-01  1.4009137132652D+00
93  9.2000000000000D-01 -3.3937027653883D-01  1.3436625133635D+00
94  9.3000000000000D-01 -3.4026322489798D-01  1.2805716219072D+00
95  9.4000000000000D-01 -3.3857188316342D-01  1.2119881304414D+00
96  9.5000000000000D-01 -3.3441502684981D-01  1.1383531357161D+00
97  9.6000000000000D-01 -3.2793473483380D-01  1.0601973146357D+00
98  9.7000000000000D-01 -3.1929481976576D-01  9.7813452438154D-01
99  9.8000000000000D-01 -3.0867885095730D-01  8.9285352666259D-01
100  9.9000000000000D-01 -2.9628780070852D-01  8.0510797637990D-01
101  1.0000000000000D+00 -2.8233735397912D-01  7.1570485716180D-01
102  1.0100000000000D+00 -2.6705492877884D-01  6.2549158151985D-01
103  1.0200000000000D+00 -2.5067646156459D-01  5.3534200606187D-01
104  1.0300000000000D+00 -2.3344301762445D-01  4.4614163917864D-01
105  1.0400000000000D+00 -2.1559729089959D-01  3.5877233987705D-01
106  1.0500000000000D+00 -1.9738006069423D-01  2.7409682077476D-01
107  1.0600000000000D+00 -1.7902667454237D-01  1.9294327708181D-01
108  1.0700000000000D+00 -1.6076362655171D-01  1.1609046391538D-01
109  1.0800000000000D+00 -1.4280529924778D-01  4.4253538456522D-02
110  1.0900000000000D+00 -1.2535093389667D-01 -2.1929030568988D-02
111  1.1000000000000D+00 -1.0858189027024D-01 -8.1907202218635D-02
112  1.1100000000000D+00 -9.2659251228542D-02 -1.3522949360151D-01
113  1.1200000000000D+00 -7.7721820166488D-02 -1.8155127739647D-01
114  1.1300000000000D+00 -6.3884551603077D-02 -2.2064105920787D-01
115  1.1400000000000D+00 -5.1237445905390D-02 -2.5238459075306D-01
116  1.1500000000000D+00 -3.9844930871348D-02 -2.7678671353862D-01
117  1.1600000000000D+00 -2.9745740344737D-02 -2.9397088642333D-01
118  1.1700000000000D+00 -2.0953290628745D-02 -3.0417639451885D-01
119  1.1800000000000D+00 -1.3456545269473D-02 -3.0775328462401D-01
120  1.1900000000000D+00 -7.2213480880992D-03 -3.0515512248096D-01
121  1.2000000000000D+00 -2.1921928277113D-03 -2.9692972109688D-01
122  1.2100000000000D+00  1.7056113989324D-03 -2.8370803240344D-01
123  1.2200000000000D+00  4.5634252014072D-03 -2.6619142042920D-01
124  1.2300000000000D+00  6.4864743034620D-03 -2.4513759707506D-01
125  1.2400000000000D+00  7.5908178786562D-03 -2.2134551510322D-01
126  1.2500000000000D+00  8.0001573581519D-03 -1.9563953584783D-01
127  1.2600000000000D+00  7.8425599629559D-03 -1.6885322068097D-01
128  1.2700000000000D+00  7.2471733591792D-03 -1.4181310636865D-01
129  1.2800000000000D+00  6.3409967102299D-03 -1.1532276578665D-01
130  1.2900000000000D+00  5.2458019001208D-03 -9.0147606403298D-02
131  1.3000000000000D+00  4.0751818925558D-03 -6.7000249507706D-02
132  1.3100000000000D+00  2.9325182357687D-03 -4.6532111786169D-02
133  1.3200000000000D+00  1.9076567960000D-03 -2.9315776364097D-02
134  1.3300000000000D+00  1.0658652977109D-03 -1.5730141040216D-02
135  1.3400000000000D+00  4.7651970843103D-04 -6.3506089990532D-03
136  1.3500000000000D+00  1.8195032209917D-04 -1.5414277484139D-03
137  1.3600000000000D+00  6.3725476537868D-05  1.4766430224987D-05
138  1.3700000000000D+00  8.3504636979185D-06  6.7379894011993D-05
139  1.3800000000000D+00 -4.5474838969681D-06 -6.0909476674529D-05
140  1.3900000000000D+00  1.9708209900473D-07  1.2932580714668D-06
141  1.4000000000000D+00  1.0727990902153D-06  8.7104073607925D-06
142  1.4100000000000D+00 -1.9729300469233D-07  5.5267860075371D-07
143  1.4200000000000D+00 -1.3245757005466D-07  3.7105453683574D-07
144  1.4300000000000D+00  0.0000000000000D+00  0.0000000000000D+00
145  1.4400000000000D+00  0.0000000000000D+00  0.0000000000000D+00
146  1.4500000000000D+00  0.0000000000000D+00  0.0000000000000D+00
147  1.4600000000000D+00  0.0000000000000D+00  0.0000000000000D+00
148  1.4700000000000D+00  0.0000000000000D+00  0.0000000000000D+00
149  1.4800000000000D+00  0.0000000000000D+00  0.0000000000000D+00
150  1.4900000000000D+00  0.0000000000000D+00  0.0000000000000D+00
151  1.5000000000000D+00  0.0000000000000D+00  0.0000000000000D+00
152  1.5100000000000D+00  0.0000000000000D+00  0.0000000000000D+00
153  1.5200000000000D+00  0.0000000000000D+00  0.0000000000000D+00
154  1.5300000000000D+00  0.0000000000000D+00  0.0000000000000D+00
155  1.5400000000000D+00  0.0000000000000D+00  0.0000000000000D+00
156  1.5500000000000D+00  0.0000000000000D+00  0.0000000000000D+00
157  1.5600000000000D+00  0.0000000000000D+00  0.0000000000000D+00
158  1.5700000000000D+00  0.0000000000000D+00  0.0000000000000D+00
159  1.5800000000000D+00  0.0000000000000D+00  0.0000000000000D+00
160  1.5900000000000D+00  0.0000000000000D+00  0.0000000000000D+00
161  1.6000000000000D+00  0.0000000000000D+00  0.0000000000000D+00
162  1.6100000000000D+00  0.0000000000000D+00  0.0000000000000D+00
163  1.6200000000000D+00  0.0000000000000D+00  0.0000000000000D+00
164  1.6300000000000D+00  0.0000000000000D+00  0.0000000000000D+00
165  1.6400000000000D+00  0.0000000000000D+00  0.0000000000000D+00
166  1.6500000000000D+00  0.0000000000000D+00  0.0000000000000D+00
167  1.6600000000000D+00  0.0000000000000D+00  0.0000000000000D+00
168  1.6700000000000D+00  0.0000000000000D+00  0.0000000000000D+00
169  1.6800000000000D+00  0.0000000000000D+00  0.0000000000000D+00
170  1.6900000000000D+00  0.0000000000000D+00  0.0000000000000D+00
171  1.7000000000000D+00  0.0000000000000D+00  0.0000000000000D+00
172  1.7100000000000D+00  0.0000000000000D+00  0.0000000000000D+00
173  1.7200000000000D+00  0.0000000000000D+00  0.0000000000000D+00
174  1.7300000000000D+00  0.0000000000000D+00  0.0000000000000D+00
175  1.7400000000000D+00  0.0000000000000D+00  0.0000000000000D+00
176  1.7500000000000D+00  0.0000000000000D+00  0.0000000000000D+00
177  1.7600000000000D+00  0.0000000000000D+00  0.0000000000000D+00
178  1.7700000000000D+00  0.0000000000000D+00  0.0000000000000D+00
179  1.7800000000000D+00  0.0000000000000D+00  0.0000000000000D+00
180  1.7900000000000D+00  0.0000000000000D+00  0.0000000000000D+00
181  1.8000000000000D+00  0.0000000000000D+00  0.0000000000000D+00
182  1.8100000000000D+00  0.0000000000000D+00  0.0000000000000D+00
183  1.8200000000000D+00  0.0000000000000D+00  0.0000000000000D+00
184  1.8300000000000D+00  0.0000000000000D+00  0.0000000000000D+00
185  1.8400000000000D+00  0.0000000000000D+00  0.0000000000000D+00
186  1.8500000000000D+00  0.0000000000000D+00  0.0000000000000D+00
187  1.8600000000000D+00  0.0000000000000D+00  0.0000000000000D+00
188  1.8700000000000D+00  0.0000000000000D+00  0.0000000000000D+00
189  1.8800000000000D+00  0.0000000000000D+00  0.0000000000000D+00
190  1.8900000000000D+00  0.0000000000000D+00  0.0000000000000D+00
191  1.9000000000000D+00  0.0000000000000D+00  0.0000000000000D+00
192  1.9100000000000D+00  0.0000000000000D+00  0.0000000000000D+00
193  1.9200000000000D+00  0.0000000000000D+00  0.0000000000000D+00
194  1.9300000000000D+00  0.0000000000000D+00  0.0000000000000D+00
195  1.9400000000000D+00  0.0000000000000D+00  0.0000000000000D+00
196  1.9500000000000D+00  0.0000000000000D+00  0.0000000000000D+00
197  1.9600000000000D+00  0.0000000000000D+00  0.0000000000000D+00
198  1.9700000000000D+00  0.0000000000000D+00  0.0000000000000D+00
199  1.9800000000000D+00  0.0000000000000D+00  0.0000000000000D+00
200  1.9900000000000D+00  0.0000000000000D+00  0.0000000000000D+00
201  2.0000000000000D+00  0.0000000000000D+00  0.0000000000000D+00
202  2.0100000000000D+00  0.0000000000000D+00  0.0000000000000D+00
203  2.0200000000000D+00  0.0000000000000D+00  0.0000000000000D+00
204  2.0300000000000D+00  0.0000000000000D+00  0.0000000000000D+00
205  2.0400000000000D+00  0.0000000000000D+00  0.0000000000000D+00
206  2.0500000000000D+00  0.0000000000000D+00  0.0000000000000D+00
207  2.0600000000000D+00  0.0000000000000D+00  0.0000000000000D+00
208  2.0700000000000D+00  0.0000000000000D+00  0.0000000000000D+00
209  2.0800000000000D+00  0.0000000000000D+00  0.0000000000000D+00
210  2.0900000000000D+00  0.0000000000000D+00  0.0000000000000D+00
211  2.1000000000000D+00  0.0000000000000D+00  0.0000000000000D+00
212  2.1100000000000D+00  0.0000000000000D+00  0.0000000000000D+00
213  2.1200000000000D+00  0.0000000000000D+00  0.0000000000000D+00
214  2.1300000000000D+00  0.0000000000000D+00  0.0000000000000D+00
215  2.1400000000000D+00  0.0000000000000D+00  0.0000000000000D+00
216  2.1500000000000D+00  0.0000000000000D+00  0.0000000000000D+00
217  2.1600000000000D+00  0.0000000000000D+00  0.0000000000000D+00
218  2.1700000000000D+00  0.0000000000000D+00  0.0000000000000D+00
219  2.1800000000000D+00  0.0000000000000D+00  0.0000000000000D+00
220  2.1900000000000D+00  0.0000000000000D+00  0.0000000000000D+00
221  2.2000000000000D+00  0.0000000000000D+00  0.0000000000000D+00
222  2.2100000000000D+00  0.0000000000000D+00  0.0000000000000D+00
223  2.2200000000000D+00  0.0000000000000D+00  0.0000000000000D+00
224  2.2300000000000D+00  0.0000000000000D+00  0.0000000000000D+00
225  2.2400000000000D+00  0.0000000000000D+00  0.0000000000000D+00
226  2.2500000000000D+00  0.0000000000000D+00  0.0000000000000D+00
227  2.2600000000000D+00  0.0000000000000D+00  0.0000000000000D+00
228  2.2700000000000D+00  0.0000000000000D+00  0.0000000000000D+00
229  2.2800000000000D+00  0.0000000000000D+00  0.0000000000000D+00
230  2.2900000000000D+00  0.0000000000000D+00  0.0000000000000D+00
231  2.3000000000000D+00  0.0000000000000D+00  0.0000000000000D+00
232  2.3100000000000D+00  0.0000000000000D+00  0.0000000000000D+00
233  2.3200000000000D+00  0.0000000000000D+00  0.0000000000000D+00
234  2.3300000000000D+00  0.0000000000000D+00  0.0000000000000D+00
235  2.3400000000000D+00  0.0000000000000D+00  0.0000000000000D+00
236  2.3500000000000D+00  0.0000000000000D+00  0.0000000000000D+00
237  2.3600000000000D+00  0.0000000000000D+00  0.0000000000000D+00
238  2.3700000000000D+00  0.0000000000000D+00  0.0000000000000D+00
239  2.3800000000000D+00  0.0000000000000D+00  0.0000000000000D+00
240  2.3900000000000D+00  0.0000000000000D+00  0.0000000000000D+00
241  2.4000000000000D+00  0.0000000000000D+00  0.0000000000000D+00
242  2.4100000000000D+00  0.0000000000000D+00  0.0000000000000D+00
243  2.4200000000000D+00  0.0000000000000D+00  0.0000000000000D+00
244  2.4300000000000D+00  0.0000000000000D+00  0.0000000000000D+00
245  2.4400000000000D+00  0.0000000000000D+00  0.0000000000000D+00
246  2.4500000000000D+00  0.0000000000000D+00  0.0000000000000D+00
247  2.4600000000000D+00  0.0000000000000D+00  0.0000000000000D+00
248  2.4700000000000D+00  0.0000000000000D+00  0.0000000000000D+00
249  2.4800000000000D+00  0.0000000000000D+00  0.0000000000000D+00
250  2.4900000000000D+00  0.0000000000000D+00  0.0000000000000D+00
251  2.5000000000000D+00  0.0000000000000D+00  0.0000000000000D+00
252  2.5100000000000D+00  0.0000000000000D+00  0.0000000000000D+00
253  2.5200000000000D+00  0.0000000000000D+00  0.0000000000000D+00
254  2.5300000000000D+00  0.0000000000000D+00  0.0000000000000D+00
255  2.5400000000000D+00  0.0000000000000D+00  0.0000000000000D+00
256  2.5500000000000D+00  0.0000000000000D+00  0.0000000000000D+00
257  2.5600000000000D+00  0.0000000000000D+00  0.0000000000000D+00
258  2.5700000000000D+00  0.0000000000000D+00  0.0000000000000D+00
259  2.5800000000000D+00  0.0000000000000D+00  0.0000000000000D+00
260  2.5900000000000D+00  0.0000000000000D+00  0.0000000000000D+00
261  2.6000000000000D+00  0.0000000000000D+00  0.0000000000000D+00
262  2.6100000000000D+00  0.0000000000000D+00  0.0000000000000D+00
263  2.6200000000000D+00  0.0000000000000D+00  0.0000000000000D+00
264  2.6300000000000D+00  0.0000000000000D+00  0.0000000000000D+00
265  2.6400000000000D+00  0.0000000000000D+00  0.0000000000000D+00
266  2.6500000000000D+00  0.0000000000000D+00  0.0000000000000D+00
267  2.6600000000000D+00  0.0000000000000D+00  0.0000000000000D+00
268  2.6700000000000D+00  0.0000000000000D+00  0.0000000000000D+00
269  2.6800000000000D+00  0.0000000000000D+00  0.0000000000000D+00
270  2.6900000000000D+00  0.0000000000000D+00  0.0000000000000D+00
271  2.7000000000000D+00  0.0000000000000D+00  0.0000000000000D+00
272  2.7100000000000D+00  0.0000000000000D+00  0.0000000000000D+00
273  2.7200000000000D+00  0.0000000000000D+00  0.0000000000000D+00
274  2.7300000000000D+00  0.0000000000000D+00  0.0000000000000D+00
275  2.7400000000000D+00  0.0000000000000D+00  0.0000000000000D+00
276  2.7500000000000D+00  0.0000000000000D+00  0.0000000000000D+00
277  2.7600000000000D+00  0.0000000000000D+00  0.0000000000000D+00
278  2.7700000000000D+00  0.0000000000000D+00  0.0000000000000D+00
279  2.7800000000000D+00  0.0000000000000D+00  0.0000000000000D+00
280  2.7900000000000D+00  0.0000000000000D+00  0.0000000000000D+00
281  2.8000000000000D+00  0.0000000000000D+00  0.0000000000000D+00
282  2.8100000000000D+00  0.0000000000000D+00  0.0000000000000D+00
283  2.8200000000000D+00  0.0000000000000D+00  0.0000000000000D+00
284  2.8300000000000D+00  0.0000000000000D+00  0.0000000000000D+00
285  2.8400000000000D+00  0.0000000000000D+00  0.0000000000000D+00
286  2.8500000000000D+00  0.0000000000000D+00  0.0000000000000D+00
287  2.8600000000000D+00  0.0000000000000D+00  0.0000000000000D+00
288  2.8700000000000D+00  0.0000000000000D+00  0.0000000000000D+00
289  2.8800000000000D+00  0.0000000000000D+00  0.0000000000000D+00
290  2.8900000000000D+00  0.0000000000000D+00  0.0000000000000D+00
291  2.9000000000000D+00  0.0000000000000D+00  0.0000000000000D+00
292  2.9100000000000D+00  0.0000000000000D+00  0.0000000000000D+00
293  2.9200000000000D+00  0.0000000000000D+00  0.0000000000000D+00
294  2.9300000000000D+00  0.0000000000000D+00  0.0000000000000D+00
295  2.9400000000000D+00  0.0000000000000D+00  0.0000000000000D+00
296  2.9500000000000D+00  0.0000000000000D+00  0.0000000000000D+00
297  2.9600000000000D+00  0.0000000000000D+00  0.0000000000000D+00
298  2.9700000000000D+00  0.0000000000000D+00  0.0000000000000D+00
299  2.9800000000000D+00  0.0000000000000D+00  0.0000000000000D+00
300  2.9900000000000D+00  0.0000000000000D+00  0.0000000000000D+00
301  3.0000000000000D+00  0.0000000000000D+00  0.0000000000000D+00
302  3.0100000000000D+00  0.0000000000000D+00  0.0000000000000D+00
303  3.0200000000000D+00  0.0000000000000D+00  0.0000000000000D+00
304  3.0300000000000D+00  0.0000000000000D+00  0.0000000000000D+00
305  3.0400000000000D+00  0.0000000000000D+00  0.0000000000000D+00
306  3.0500000000000D+00  0.0000000000000D+00  0.0000000000000D+00
307  3.0600000000000D+00  0.0000000000000D+00  0.0000000000000D+00
308  3.0700000000000D+00  0.0000000000000D+00  0.0000000000000D+00
309  3.0800000000000D+00  0.0000000000000D+00  0.0000000000000D+00
310  3.0900000000000D+00  0.0000000000000D+00  0.0000000000000D+00
311  3.1000000000000D+00  0.0000000000000D+00  0.0000000000000D+00
312  3.1100000000000D+00  0.0000000000000D+00  0.0000000000000D+00
313  3.1200000000000D+00  0.0000000000000D+00  0.0000000000000D+00
314  3.1300000000000D+00  0.0000000000000D+00  0.0000000000000D+00
315  3.1400000000000D+00  0.0000000000000D+00  0.0000000000000D+00
316  3.1500000000000D+00  0.0000000000000D+00  0.0000000000000D+00
317  3.1600000000000D+00  0.0000000000000D+00  0.0000000000000D+00
318  3.1700000000000D+00  0.0000000000000D+00  0.0000000000000D+00
319  3.1800000000000D+00  0.0000000000000D+00  0.0000000000000D+00
320  3.1900000000000D+00  0.0000000000000D+00  0.0000000000000D+00
321  3.2000000000000D+00  0.0000000000000D+00  0.0000000000000D+00
322  3.2100000000000D+00  0.0000000000000D+00  0.0000000000000D+00
323  3.2200000000000D+00  0.0000000000000D+00  0.0000000000000D+00
324  3.2300000000000D+00  0.0000000000000D+00  0.0000000000000D+00
325  3.2400000000000D+00  0.0000000000000D+00  0.0000000000000D+00
326  3.2500000000000D+00  0.0000000000000D+00  0.0000000000000D+00
327  3.2600000000000D+00  0.0000000000000D+00  0.0000000000000D+00
328  3.2700000000000D+00  0.0000000000000D+00  0.0000000000000D+00
329  3.2800000000000D+00  0.0000000000000D+00  0.0000000000000D+00
330  3.2900000000000D+00  0.0000000000000D+00  0.0000000000000D+00
331  3.3000000000000D+00  0.0000000000000D+00  0.0000000000000D+00
332  3.3100000000000D+00  0.0000000000000D+00  0.0000000000000D+00
333  3.3200000000000D+00  0.0000000000000D+00  0.0000000000000D+00
334  3.3300000000000D+00  0.0000000000000D+00  0.0000000000000D+00
335  3.3400000000000D+00  0.0000000000000D+00  0.0000000000000D+00
336  3.3500000000000D+00  0.0000000000000D+00  0.0000000000000D+00
337  3.3600000000000D+00  0.0000000000000D+00  0.0000000000000D+00
338  3.3700000000000D+00  0.0000000000000D+00  0.0000000000000D+00
339  3.3800000000000D+00  0.0000000000000D+00  0.0000000000000D+00
340  3.3900000000000D+00  0.0000000000000D+00  0.0000000000000D+00
341  3.4000000000000D+00  0.0000000000000D+00  0.0000000000000D+00
342  3.4100000000000D+00  0.0000000000000D+00  0.0000000000000D+00
343  3.4200000000000D+00  0.0000000000000D+00  0.0000000000000D+00
344  3.4300000000000D+00  0.0000000000000D+00  0.0000000000000D+00
345  3.4400000000000D+00  0.0000000000000D+00  0.0000000000000D+00
346  3.4500000000000D+00  0.0000000000000D+00  0.0000000000000D+00
347  3.4600000000000D+00  0.0000000000000D+00  0.0000000000000D+00
348  3.4700000000000D+00  0.0000000000000D+00  0.0000000000000D+00
349  3.4800000000000D+00  0.0000000000000D+00  0.0000000000000D+00
350  3.4900000000000D+00  0.0000000000000D+00  0.0000000000000D+00
351  3.5000000000000D+00  0.0000000000000D+00  0.0000000000000D+00
352  3.5100000000000D+00  0.0000000000000D+00  0.0000000000000D+00
353  3.5200000000000D+00  0.0000000000000D+00  0.0000000000000D+00
354  3.5300000000000D+00  0.0000000000000D+00  0.0000000000000D+00
355  3.5400000000000D+00  0.0000000000000D+00  0.0000000000000D+00
356  3.5500000000000D+00  0.0000000000000D+00  0.0000000000000D+00
357  3.5600000000000D+00  0.0000000000000D+00  0.0000000000000D+00
358  3.5700000000000D+00  0.0000000000000D+00  0.0000000000000D+00
359  3.5800000000000D+00  0.0000000000000D+00  0.0000000000000D+00
360  3.5900000000000D+00  0.0000000000000D+00  0.0000000000000D+00
361  3.6000000000000D+00  0.0000000000000D+00  0.0000000000000D+00
362  3.6100000000000D+00  0.0000000000000D+00  0.0000000000000D+00
363  3.6200000000000D+00  0.0000000000000D+00  0.0000000000000D+00
364  3.6300000000000D+00  0.0000000000000D+00  0.0000000000000D+00
365  3.6400000000000D+00  0.0000000000000D+00  0.0000000000000D+00
366  3.6500000000000D+00  0.0000000000000D+00  0.0000000000000D+00
367  3.6600000000000D+00  0.0000000000000D+00  0.0000000000000D+00
368  3.6700000000000D+00  0.0000000000000D+00  0.0000000000000D+00
369  3.6800000000000D+00  0.0000000000000D+00  0.0000000000000D+00
370  3.6900000000000D+00  0.0000000000000D+00  0.0000000000000D+00
371  3.7000000000000D+00  0.0000000000000D+00  0.0000000000000D+00
372  3.7100000000000D+00  0.0000000000000D+00  0.0000000000000D+00
373  3.7200000000000D+00  0.0000000000000D+00  0.0000000000000D+00
374  3.7300000000000D+00  0.0000000000000D+00  0.0000000000000D+00
375  3.7400000000000D+00  0.0000000000000D+00  0.0000000000000D+00
376  3.7500000000000D+00  0.0000000000000D+00  0.0000000000000D+00
377  3.7600000000000D+00  0.0000000000000D+00  0.0000000000000D+00
378  3.7700000000000D+00  0.0000000000000D+00  0.0000000000000D+00
379  3.7800000000000D+00  0.0000000000000D+00  0.0000000000000D+00
380  3.7900000000000D+00  0.0000000000000D+00  0.0000000000000D+00
381  3.8000000000000D+00  0.0000000000000D+00  0.0000000000000D+00
382  3.8100000000000D+00  0.0000000000000D+00  0.0000000000000D+00
383  3.8200000000000D+00  0.0000000000000D+00  0.0000000000000D+00
384  3.8300000000000D+00  0.0000000000000D+00  0.0000000000000D+00
385  3.8400000000000D+00  0.0000000000000D+00  0.0000000000000D+00
386  3.8500000000000D+00  0.0000000000000D+00  0.0000000000000D+00
387  3.8600000000000D+00  0.0000000000000D+00  0.0000000000000D+00
388  3.8700000000000D+00  0.0000000000000D+00  0.0000000000000D+00
389  3.8800000000000D+00  0.0000000000000D+00  0.0000000000000D+00
390  3.8900000000000D+00  0.0000000000000D+00  0.0000000000000D+00
391  3.9000000000000D+00  0.0000000000000D+00  0.0000000000000D+00
392  3.9100000000000D+00  0.0000000000000D+00  0.0000000000000D+00
393  3.9200000000000D+00  0.0000000000000D+00  0.0000000000000D+00
394  3.9300000000000D+00  0.0000000000000D+00  0.0000000000000D+00
395  3.9400000000000D+00  0.0000000000000D+00  0.0000000000000D+00
396  3.9500000000000D+00  0.0000000000000D+00  0.0000000000000D+00
397  3.9600000000000D+00  0.0000000000000D+00  0.0000000000000D+00
398  3.9700000000000D+00  0.0000000000000D+00  0.0000000000000D+00
399  3.9800000000000D+00  0.0000000000000D+00  0.0000000000000D+00
400  3.9900000000000D+00  0.0000000000000D+00  0.0000000000000D+00
401  4.0000000000000D+00  0.0000000000000D+00  0.0000000000000D+00
402  4.0100000000000D+00  0.0000000000000D+00  0.0000000000000D+00
403  4.0200000000000D+00  0.0000000000000D+00  0.0000000000000D+00
404  4.0300000000000D+00  0.0000000000000D+00  0.0000000000000D+00
405  4.0400000000000D+00  0.0000000000000D+00  0.0000000000000D+00
406  4.0500000000000D+00  0.0000000000000D+00  0.0000000000000D+00
407  4.0600000000000D+00  0.0000000000000D+00  0.0000000000000D+00
408  4.0700000000000D+00  0.0000000000000D+00  0.0000000000000D+00
409  4.0800000000000D+00  0.0000000000000D+00  0.0000000000000D+00
410  4.0900000000000D+00  0.0000000000000D+00  0.0000000000000D+00
411  4.1000000000000D+00  0.0000000000000D+00  0.0000000000000D+00
412  4.1100000000000D+00  0.0000000000000D+00  0.0000000000000D+00
413  4.1200000000000D+00  0.0000000000000D+00  0.0000000000000D+00
414  4.1300000000000D+00  0.0000000000000D+00  0.0000000000000D+00
415  4.1400000000000D+00  0.0000000000000D+00  0.0000000000000D+00
416  4.1500000000000D+00  0.0000000000000D+00  0.0000000000000D+00
417  4.1600000000000D+00  0.0000000000000D+00  0.0000000000000D+00
418  4.1700000000000D+00  0.0000000000000D+00  0.0000000000000D+00
419  4.1800000000000D+00  0.0000000000000D+00  0.0000000000000D+00
420  4.1900000000000D+00  0.0000000000000D+00  0.0000000000000D+00
421  4.2000000000000D+00  0.0000000000000D+00  0.0000000000000D+00
422  4.2100000000000D+00  0.0000000000000D+00  0.0000000000000D+00
423  4.2200000000000D+00  0.0000000000000D+00  0.0000000000000D+00
424  4.2300000000000D+00  0.0000000000000D+00  0.0000000000000D+00
425  4.2400000000000D+00  0.0000000000000D+00  0.0000000000000D+00
426  4.2500000000000D+00  0.0000000000000D+00  0.0000000000000D+00
427  4.2600000000000D+00  0.0000000000000D+00  0.0000000000000D+00
428  4.2700000000000D+00  0.0000000000000D+00  0.0000000000000D+00
429  4.2800000000000D+00  0.0000000000000D+00  0.0000000000000D+00
430  4.2900000000000D+00  0.0000000000000D+00  0.0000000000000D+00
431  4.3000000000000D+00  0.0000000000000D+00  0.0000000000000D+00
432  4.3100000000000D+00  0.0000000000000D+00  0.0000000000000D+00
433  4.3200000000000D+00  0.0000000000000D+00  0.0000000000000D+00
434  4.3300000000000D+00  0.0000000000000D+00  0.0000000000000D+00
435  4.3400000000000D+00  0.0000000000000D+00  0.0000000000000D+00
436  4.3500000000000D+00  0.0000000000000D+00  0.0000000000000D+00
437  4.3600000000000D+00  0.0000000000000D+00  0.0000000000000D+00
438  4.3700000000000D+00  0.0000000000000D+00  0.0000000000000D+00
439  4.3800000000000D+00  0.0000000000000D+00  0.0000000000000D+00
440  4.3900000000000D+00  0.0000000000000D+00  0.0000000000000D+00
441  4.4000000000000D+00  0.0000000000000D+00  0.0000000000000D+00
442  4.4100000000000D+00  0.0000000000000D+00  0.0000000000000D+00
443  4.4200000000000D+00  0.0000000000000D+00  0.0000000000000D+00
444  4.4300000000000D+00  0.0000000000000D+00  0.0000000000000D+00