O     ONCVPSP-3.3.0  r_core=   1.26150   1.35509   1.26150
8.0000      6.0000      180112    zatom,zion,pspd
8 -116133   2     4   600     0    pspcod,pspxc,lmax,lloc,mmax,r2well
5.99000000  4.00000000  0.00000000    rchrg fchrg qchrg
2     2     1     0     0    nproj
1     1           extension_switch
0                         7.2305446121780D+00  9.9344970600390D-01
1  0.0000000000000D+00 -7.2784007709714D-09  1.8460914241736D-08
2  1.0000000000000D-02  1.0672487813071D-01 -4.8039530626494D-02
3  2.0000000000000D-02  2.1291399880971D-01 -9.5275839776271D-02
4  3.0000000000000D-02  3.1803757755350D-01 -1.4091908814773D-01
5  4.0000000000000D-02  4.2157767442084D-01 -1.8420594914177D-01
6  5.0000000000000D-02  5.2303386470757D-01 -2.2441224093746D-01
7  6.0000000000000D-02  6.2192861305953D-01 -2.6086482290742D-01
8  7.0000000000000D-02  7.1781226088412D-01 -2.9295253332726D-01
9  8.0000000000000D-02  8.1026754421968D-01 -3.2013596379490D-01
10  9.0000000000000D-02  8.9891356805654D-01 -3.4195588818093D-01
11  1.0000000000000D-01  9.8340917332801D-01 -3.5804018985396D-01
12  1.1000000000000D-01  1.0634556442072D+00 -3.6810915986811D-01
13  1.2000000000000D-01  1.1387987157413D+00 -3.7197907020995D-01
14  1.3000000000000D-01  1.2092298549897D+00 -3.6956395947745D-01
15  1.4000000000000D-01  1.2745868024619D+00 -3.6087560286665D-01
16  1.5000000000000D-01  1.3347533745049D+00 -3.4602167340817D-01
17  1.6000000000000D-01  1.3896585411176D+00 -3.2520213635532D-01
18  1.7000000000000D-01  1.4392748071914D+00 -2.9870395280004D-01
19  1.8000000000000D-01  1.4836159381500D+00 -2.6689420132832D-01
20  1.9000000000000D-01  1.5227340831210D+00 -2.3021175718569D-01
21  2.0000000000000D-01  1.5567163598987D+00 -1.8915769641421D-01
22  2.1000000000000D-01  1.5856809758285D+00 -1.4428461719825D-01
23  2.2000000000000D-01  1.6097729671727D+00 -9.6185091734964D-02
24  2.3000000000000D-01  1.6291596463348D+00 -4.5479478908347D-02
25  2.4000000000000D-01  1.6440258514047D+00  7.1966594400453D-03
26  2.5000000000000D-01  1.6545690957252D+00  6.1205288041798D-02
27  2.6000000000000D-01  1.6609947165152D+00  1.1591851998969D-01
28  2.7000000000000D-01  1.6635111209904D+00  1.7073087923644D-01
29  2.8000000000000D-01  1.6623252258950D+00  2.2507095916741D-01
30  2.9000000000000D-01  1.6576381819570D+00  2.7841224432074D-01
31  3.0000000000000D-01  1.6496414685738D+00  3.3028287862216D-01
32  3.1000000000000D-01  1.6385134361529D+00  3.8027418408572D-01
33  3.2000000000000D-01  1.6244163641101D+00  4.2804775841997D-01
34  3.3000000000000D-01  1.6074940917524D+00  4.7334100791395D-01
35  3.4000000000000D-01  1.5878702673508D+00  5.1597100283357D-01
36  3.5000000000000D-01  1.5656472478588D+00  5.5583657574766D-01
37  3.6000000000000D-01  1.5409056682135D+00  5.9291861809620D-01
38  3.7000000000000D-01  1.5137046852205D+00  6.2727856623846D-01
39  3.8000000000000D-01  1.4840828869465D+00  6.5905510448893D-01
40  3.9000000000000D-01  1.4520598445951D+00  6.8845914855899D-01
41  4.0000000000000D-01  1.4176382702972D+00  7.1576720767691D-01
42  4.1000000000000D-01  1.3808067313701D+00  7.4131325677686D-01
43  4.2000000000000D-01  1.3415428596533D+00  7.6547928087501D-01
44  4.3000000000000D-01  1.2998169837339D+00  7.8868468148080D-01
45  4.4000000000000D-01  1.2555961024735D+00  8.1137475906839D-01
46  4.5000000000000D-01  1.2088481104067D+00  8.3400850576497D-01
47  4.6000000000000D-01  1.1595461794816D+00  8.5704595808569D-01
48  4.7000000000000D-01  1.1076731973778D+00  8.8093537042532D-01
49  4.8000000000000D-01  1.0532261603580D+00  9.0610047586264D-01
50  4.9000000000000D-01  9.9622041835359D-01  9.3292810149614D-01
51  5.0000000000000D-01  9.3669367176588D-01  9.6175640095756D-01
52  5.1000000000000D-01  8.7470962326096D-01  9.9286395700348D-01
53  5.2000000000000D-01  8.1036119359914D-01  1.0264599922990D+00
54  5.3000000000000D-01  7.4377321816577D-01  1.0626759069328D+00
55  5.4000000000000D-01  6.7510455021868D-01  1.1015583372127D+00
56  5.5000000000000D-01  6.0454950779620D-01  1.1430639022431D+00
57  5.6000000000000D-01  5.3233861351459D-01  1.1870557732579D+00
58  5.7000000000000D-01  4.5873858989769D-01  1.2333021662517D+00
59  5.8000000000000D-01  3.8405158722722D-01  1.2814768216325D+00
60  5.9000000000000D-01  3.0861363579899D-01  1.3311614963749D+00
61  6.0000000000000D-01  2.3279232979987D-01  1.3818504547974D+00
62  6.1000000000000D-01  1.5698376529880D-01  1.4329569048473D+00
63  6.2000000000000D-01  8.1608769961356D-02  1.4838212879533D+00
64  6.3000000000000D-01  7.1084766351010D-03  1.5337212931453D+00
65  6.4000000000000D-01 -6.6060693353354D-02  1.5818834309383D+00
66  6.5000000000000D-01 -1.3743255867089D-01  1.6274959698660D+00
67  6.6000000000000D-01 -2.0653712845861D-01  1.6697230096004D+00
68  6.7000000000000D-01 -2.7290687533828D-01  1.7077194395321D+00
69  6.8000000000000D-01 -3.3608322350968D-01  1.7406465111458D+00
70  6.9000000000000D-01 -3.9562313853047D-01  1.7676877370344D+00
71  7.0000000000000D-01 -4.5110570144692D-01  1.7880648191511D+00
72  7.1000000000000D-01 -5.0213854818790D-01  1.8010533041858D+00
73  7.2000000000000D-01 -5.4836405562097D-01  1.8059976649758D+00
74  7.3000000000000D-01 -5.8946515837586D-01  1.8023255135541D+00
75  7.4000000000000D-01 -6.2517068548214D-01  1.7895606638433D+00
76  7.5000000000000D-01 -6.5526011287877D-01  1.7673347797031D+00
77  7.6000000000000D-01 -6.7956763698790D-01  1.7353973671537D+00
78  7.7000000000000D-01 -6.9798548546281D-01  1.6936238972842D+00
79  7.8000000000000D-01 -7.1046639386389D-01  1.6420218784377D+00
80  7.9000000000000D-01 -7.1702519111234D-01  1.5807347320690D+00
81  8.0000000000000D-01 -7.1773945187739D-01  1.5100433655588D+00
82  8.1000000000000D-01 -7.1274919029432D-01  1.4303653765521D+00
83  8.2000000000000D-01 -7.0225558629202D-01  1.3422518663002D+00
84  8.3000000000000D-01 -6.8651875301955D-01  1.2463818832418D+00
85  8.4000000000000D-01 -6.6585457108412D-01  1.1435545618440D+00
86  8.5000000000000D-01 -6.4063063222618D-01  1.0346790647124D+00
87  8.6000000000000D-01 -6.1126135134411D-01  9.2076247737067D-01
88  8.7000000000000D-01 -5.7820232113278D-01  8.0289584410675D-01
89  8.8000000000000D-01 -5.4194399772424D-01  6.8223856914049D-01
90  8.9000000000000D-01 -5.0300481834319D-01  5.6000143939549D-01
91  9.0000000000000D-01 -4.6192386286923D-01  4.3742855272167D-01
92  9.1000000000000D-01 -4.1925318011553D-01  3.1577845796978D-01
93  9.2000000000000D-01 -3.7554990641306D-01  1.9630483040823D-01
94  9.3000000000000D-01 -3.3136830858582D-01  8.0237017231068D-02
95  9.4000000000000D-01 -2.8725188552006D-01 -3.1239206913179D-02
96  9.5000000000000D-01 -2.4372566221085D-01 -1.3700033548329D-01
97  9.6000000000000D-01 -2.0128880740353D-01 -2.3600294509777D-01
98  9.7000000000000D-01 -1.6040770077856D-01 -3.2730031189934D-01
99  9.8000000000000D-01 -1.2150956811248D-01 -4.1005753046424D-01
100  9.9000000000000D-01 -8.4976792997347D-02 -4.8356486185585D-01
101  1.0000000000000D+00 -5.1142002376626D-02 -5.4724906654027D-01
102  1.0100000000000D+00 -2.0284008960879D-02 -6.0068251433045D-01
103  1.0200000000000D+00  7.3753211762111D-03 -6.4358990140011D-01
104  1.0300000000000D+00  3.1673224205226D-02 -6.7585244718363D-01
105  1.0400000000000D+00  5.2507183133573D-02 -6.9750948855612D-01
106  1.0500000000000D+00  6.9835046241122D-02 -7.0875743753563D-01
107  1.0600000000000D+00  8.3674120835757D-02 -7.0994611128980D-01
108  1.0700000000000D+00  9.4099265090057D-02 -7.0157249768206D-01
109  1.0800000000000D+00  1.0124001728498D-01 -6.8427206194426D-01
110  1.0900000000000D+00  1.0527682016609D-01 -6.5880774703785D-01
111  1.1000000000000D+00  1.0643641537521D-01 -6.2605686433461D-01
112  1.1100000000000D+00  1.0498649643143D-01 -5.8699610573902D-01
113  1.1200000000000D+00  1.0122972569273D-01 -5.4268495161150D-01
114  1.1300000000000D+00  9.5497230451662D-02 -4.9424777360126D-01
115  1.1400000000000D+00  8.8141704576532D-02 -4.4285496010443D-01
116  1.1500000000000D+00  7.9530248577106D-02 -3.8970340847827D-01
117  1.1600000000000D+00  7.0037088445426D-02 -3.3599674698512D-01
118  1.1700000000000D+00  6.0036317792755D-02 -2.8292566064481D-01
119  1.1800000000000D+00  4.9894804995570D-02 -2.3164868589980D-01
120  1.1900000000000D+00  3.9965299150780D-02 -1.8327354359877D-01
121  1.2000000000000D+00  3.0580327274322D-02 -1.3884062503010D-01
122  1.2100000000000D+00  2.2046220719278D-02 -9.9306772738901D-02
123  1.2200000000000D+00  1.4637000245594D-02 -6.5532224555938D-02
124  1.2300000000000D+00  8.5767621235753D-03 -3.8216212078180D-02
125  1.2400000000000D+00  4.0195829381332D-03 -1.7820798264302D-02
126  1.2500000000000D+00  1.2268677628612D-03 -5.3482643719009D-03
127  1.2600000000000D+00  9.0579278221153D-05 -2.7449002698306D-04
128  1.2700000000000D+00 -7.5352885117018D-05  3.9170621270176D-04
129  1.2800000000000D+00  2.0564616436699D-05 -1.0225400121475D-04
130  1.2900000000000D+00  9.6882790297938D-06 -4.7402482342089D-05
131  1.3000000000000D+00 -4.9288867147389D-06  2.4957314582684D-05
132  1.3100000000000D+00 -3.6415550414602D-08 -3.2150778119243D-08
133  1.3200000000000D+00 -3.7076722258168D-08 -3.2734517455849D-08
134  1.3300000000000D+00  0.0000000000000D+00  0.0000000000000D+00
135  1.3400000000000D+00  0.0000000000000D+00  0.0000000000000D+00
136  1.3500000000000D+00  0.0000000000000D+00  0.0000000000000D+00
137  1.3600000000000D+00  0.0000000000000D+00  0.0000000000000D+00
138  1.3700000000000D+00  0.0000000000000D+00  0.0000000000000D+00
139  1.3800000000000D+00  0.0000000000000D+00  0.0000000000000D+00
140  1.3900000000000D+00  0.0000000000000D+00  0.0000000000000D+00
141  1.4000000000000D+00  0.0000000000000D+00  0.0000000000000D+00
142  1.4100000000000D+00  0.0000000000000D+00  0.0000000000000D+00
143  1.4200000000000D+00  0.0000000000000D+00  0.0000000000000D+00
144  1.4300000000000D+00  0.0000000000000D+00  0.0000000000000D+00
145  1.4400000000000D+00  0.0000000000000D+00  0.0000000000000D+00
146  1.4500000000000D+00  0.0000000000000D+00  0.0000000000000D+00
147  1.4600000000000D+00  0.0000000000000D+00  0.0000000000000D+00
148  1.4700000000000D+00  0.0000000000000D+00  0.0000000000000D+00
149  1.4800000000000D+00  0.0000000000000D+00  0.0000000000000D+00
150  1.4900000000000D+00  0.0000000000000D+00  0.0000000000000D+00
151  1.5000000000000D+00  0.0000000000000D+00  0.0000000000000D+00
152  1.5100000000000D+00  0.0000000000000D+00  0.0000000000000D+00
153  1.5200000000000D+00  0.0000000000000D+00  0.0000000000000D+00
154  1.5300000000000D+00  0.0000000000000D+00  0.0000000000000D+00
155  1.5400000000000D+00  0.0000000000000D+00  0.0000000000000D+00
156  1.5500000000000D+00  0.0000000000000D+00  0.0000000000000D+00
157  1.5600000000000D+00  0.0000000000000D+00  0.0000000000000D+00
158  1.5700000000000D+00  0.0000000000000D+00  0.0000000000000D+00
159  1.5800000000000D+00  0.0000000000000D+00  0.0000000000000D+00
160  1.5900000000000D+00  0.0000000000000D+00  0.0000000000000D+00
161  1.6000000000000D+00  0.0000000000000D+00  0.0000000000000D+00
162  1.6100000000000D+00  0.0000000000000D+00  0.0000000000000D+00
163  1.6200000000000D+00  0.0000000000000D+00  0.0000000000000D+00
164  1.6300000000000D+00  0.0000000000000D+00  0.0000000000000D+00
165  1.6400000000000D+00  0.0000000000000D+00  0.0000000000000D+00
166  1.6500000000000D+00  0.0000000000000D+00  0.0000000000000D+00
167  1.6600000000000D+00  0.0000000000000D+00  0.0000000000000D+00
168  1.6700000000000D+00  0.0000000000000D+00  0.0000000000000D+00
169  1.6800000000000D+00  0.0000000000000D+00  0.0000000000000D+00
170  1.6900000000000D+00  0.0000000000000D+00  0.0000000000000D+00
171  1.7000000000000D+00  0.0000000000000D+00  0.0000000000000D+00
172  1.7100000000000D+00  0.0000000000000D+00  0.0000000000000D+00
173  1.7200000000000D+00  0.0000000000000D+00  0.0000000000000D+00
174  1.7300000000000D+00  0.0000000000000D+00  0.0000000000000D+00
175  1.7400000000000D+00  0.0000000000000D+00  0.0000000000000D+00
176  1.7500000000000D+00  0.0000000000000D+00  0.0000000000000D+00
177  1.7600000000000D+00  0.0000000000000D+00  0.0000000000000D+00
178  1.7700000000000D+00  0.0000000000000D+00  0.0000000000000D+00
179  1.7800000000000D+00  0.0000000000000D+00  0.0000000000000D+00
180  1.7900000000000D+00  0.0000000000000D+00  0.0000000000000D+00
181  1.8000000000000D+00  0.0000000000000D+00  0.0000000000000D+00
182  1.8100000000000D+00  0.0000000000000D+00  0.0000000000000D+00
183  1.8200000000000D+00  0.0000000000000D+00  0.0000000000000D+00
184  1.8300000000000D+00  0.0000000000000D+00  0.0000000000000D+00
185  1.8400000000000D+00  0.0000000000000D+00  0.0000000000000D+00
186  1.8500000000000D+00  0.0000000000000D+00  0.0000000000000D+00
187  1.8600000000000D+00  0.0000000000000D+00  0.0000000000000D+00
188  1.8700000000000D+00  0.0000000000000D+00  0.0000000000000D+00
189  1.8800000000000D+00  0.0000000000000D+00  0.0000000000000D+00
190  1.8900000000000D+00  0.0000000000000D+00  0.0000000000000D+00
191  1.9000000000000D+00  0.0000000000000D+00  0.0000000000000D+00
192  1.9100000000000D+00  0.0000000000000D+00  0.0000000000000D+00
193  1.9200000000000D+00  0.0000000000000D+00  0.0000000000000D+00
194  1.9300000000000D+00  0.0000000000000D+00  0.0000000000000D+00
195  1.9400000000000D+00  0.0000000000000D+00  0.0000000000000D+00
196  1.9500000000000D+00  0.0000000000000D+00  0.0000000000000D+00
197  1.9600000000000D+00  0.0000000000000D+00  0.0000000000000D+00
198  1.9700000000000D+00  0.0000000000000D+00  0.0000000000000D+00
199  1.9800000000000D+00  0.0000000000000D+00  0.0000000000000D+00
200  1.9900000000000D+00  0.0000000000000D+00  0.0000000000000D+00
201  2.0000000000000D+00  0.0000000000000D+00  0.0000000000000D+00
202  2.0100000000000D+00  0.0000000000000D+00  0.0000000000000D+00
203  2.0200000000000D+00  0.0000000000000D+00  0.0000000000000D+00
204  2.0300000000000D+00  0.0000000000000D+00  0.0000000000000D+00
205  2.0400000000000D+00  0.0000000000000D+00  0.0000000000000D+00
206  2.0500000000000D+00  0.0000000000000D+00  0.0000000000000D+00
207  2.0600000000000D+00  0.0000000000000D+00  0.0000000000000D+00
208  2.0700000000000D+00  0.0000000000000D+00  0.0000000000000D+00
209  2.0800000000000D+00  0.0000000000000D+00  0.0000000000000D+00
210  2.0900000000000D+00  0.0000000000000D+00  0.0000000000000D+00
211  2.1000000000000D+00  0.0000000000000D+00  0.0000000000000D+00
212  2.1100000000000D+00  0.0000000000000D+00  0.0000000000000D+00
213  2.1200000000000D+00  0.0000000000000D+00  0.0000000000000D+00
214  2.1300000000000D+00  0.0000000000000D+00  0.0000000000000D+00
215  2.1400000000000D+00  0.0000000000000D+00  0.0000000000000D+00
216  2.1500000000000D+00  0.0000000000000D+00  0.0000000000000D+00
217  2.1600000000000D+00  0.0000000000000D+00  0.0000000000000D+00
218  2.1700000000000D+00  0.0000000000000D+00  0.0000000000000D+00
219  2.1800000000000D+00  0.0000000000000D+00  0.0000000000000D+00
220  2.1900000000000D+00  0.0000000000000D+00  0.0000000000000D+00
221  2.2000000000000D+00  0.0000000000000D+00  0.0000000000000D+00
222  2.2100000000000D+00  0.0000000000000D+00  0.0000000000000D+00
223  2.2200000000000D+00  0.0000000000000D+00  0.0000000000000D+00
224  2.2300000000000D+00  0.0000000000000D+00  0.0000000000000D+00
225  2.2400000000000D+00  0.0000000000000D+00  0.0000000000000D+00
226  2.2500000000000D+00  0.0000000000000D+00  0.0000000000000D+00
227  2.2600000000000D+00  0.0000000000000D+00  0.0000000000000D+00
228  2.2700000000000D+00  0.0000000000000D+00  0.0000000000000D+00
229  2.2800000000000D+00  0.0000000000000D+00  0.0000000000000D+00
230  2.2900000000000D+00  0.0000000000000D+00  0.0000000000000D+00
231  2.3000000000000D+00  0.0000000000000D+00  0.0000000000000D+00
232  2.3100000000000D+00  0.0000000000000D+00  0.0000000000000D+00
233  2.3200000000000D+00  0.0000000000000D+00  0.0000000000000D+00
234  2.3300000000000D+00  0.0000000000000D+00  0.0000000000000D+00
235  2.3400000000000D+00  0.0000000000000D+00  0.0000000000000D+00
236  2.3500000000000D+00  0.0000000000000D+00  0.0000000000000D+00
237  2.3600000000000D+00  0.0000000000000D+00  0.0000000000000D+00
238  2.3700000000000D+00  0.0000000000000D+00  0.0000000000000D+00
239  2.3800000000000D+00  0.0000000000000D+00  0.0000000000000D+00
240  2.3900000000000D+00  0.0000000000000D+00  0.0000000000000D+00
241  2.4000000000000D+00  0.0000000000000D+00  0.0000000000000D+00
242  2.4100000000000D+00  0.0000000000000D+00  0.0000000000000D+00
243  2.4200000000000D+00  0.0000000000000D+00  0.0000000000000D+00
244  2.4300000000000D+00  0.0000000000000D+00  0.0000000000000D+00
245  2.4400000000000D+00  0.0000000000000D+00  0.0000000000000D+00
246  2.4500000000000D+00  0.0000000000000D+00  0.0000000000000D+00
247  2.4600000000000D+00  0.0000000000000D+00  0.0000000000000D+00
248  2.4700000000000D+00  0.0000000000000D+00  0.0000000000000D+00
249  2.4800000000000D+00  0.0000000000000D+00  0.0000000000000D+00
250  2.4900000000000D+00  0.0000000000000D+00  0.0000000000000D+00
251  2.5000000000000D+00  0.0000000000000D+00  0.0000000000000D+00
252  2.5100000000000D+00  0.0000000000000D+00  0.0000000000000D+00
253  2.5200000000000D+00  0.0000000000000D+00  0.0000000000000D+00
254  2.5300000000000D+00  0.0000000000000D+00  0.0000000000000D+00
255  2.5400000000000D+00  0.0000000000000D+00  0.0000000000000D+00
256  2.5500000000000D+00  0.0000000000000D+00  0.0000000000000D+00
257  2.5600000000000D+00  0.0000000000000D+00  0.0000000000000D+00
258  2.5700000000000D+00  0.0000000000000D+00  0.0000000000000D+00
259  2.5800000000000D+00  0.0000000000000D+00  0.0000000000000D+00
260  2.5900000000000D+00  0.0000000000000D+00  0.0000000000000D+00
261  2.6000000000000D+00  0.0000000000000D+00  0.0000000000000D+00
262  2.6100000000000D+00  0.0000000000000D+00  0.0000000000000D+00
263  2.6200000000000D+00  0.0000000000000D+00  0.0000000000000D+00
264  2.6300000000000D+00  0.0000000000000D+00  0.0000000000000D+00
265  2.6400000000000D+00  0.0000000000000D+00  0.0000000000000D+00
266  2.6500000000000D+00  0.0000000000000D+00  0.0000000000000D+00
267  2.6600000000000D+00  0.0000000000000D+00  0.0000000000000D+00
268  2.6700000000000D+00  0.0000000000000D+00  0.0000000000000D+00
269  2.6800000000000D+00  0.0000000000000D+00  0.0000000000000D+00
270  2.6900000000000D+00  0.0000000000000D+00  0.0000000000000D+00
271  2.7000000000000D+00  0.0000000000000D+00  0.0000000000000D+00
272  2.7100000000000D+00  0.0000000000000D+00  0.0000000000000D+00
273  2.7200000000000D+00  0.0000000000000D+00  0.0000000000000D+00
274  2.7300000000000D+00  0.0000000000000D+00  0.0000000000000D+00
275  2.7400000000000D+00  0.0000000000000D+00  0.0000000000000D+00
276  2.7500000000000D+00  0.0000000000000D+00  0.0000000000000D+00
277  2.7600000000000D+00  0.0000000000000D+00  0.0000000000000D+00
278  2.7700000000000D+00  0.0000000000000D+00  0.0000000000000D+00
279  2.7800000000000D+00  0.0000000000000D+00  0.0000000000000D+00
280  2.7900000000000D+00  0.0000000000000D+00  0.0000000000000D+00
281  2.8000000000000D+00  0.0000000000000D+00  0.0000000000000D+00
282  2.8100000000000D+00  0.0000000000000D+00  0.0000000000000D+00
283  2.8200000000000D+00  0.0000000000000D+00  0.0000000000000D+00
284  2.8300000000000D+00  0.0000000000000D+00  0.0000000000000D+00
285  2.8400000000000D+00  0.0000000000000D+00  0.0000000000000D+00
286  2.8500000000000D+00  0.0000000000000D+00  0.0000000000000D+00
287  2.8600000000000D+00  0.0000000000000D+00  0.0000000000000D+00
288  2.8700000000000D+00  0.0000000000000D+00  0.0000000000000D+00
289  2.8800000000000D+00  0.0000000000000D+00  0.0000000000000D+00
290  2.8900000000000D+00  0.0000000000000D+00  0.0000000000000D+00
291  2.9000000000000D+00  0.0000000000000D+00  0.0000000000000D+00
292  2.9100000000000D+00  0.0000000000000D+00  0.0000000000000D+00
293  2.9200000000000D+00  0.0000000000000D+00  0.0000000000000D+00
294  2.9300000000000D+00  0.0000000000000D+00  0.0000000000000D+00
295  2.9400000000000D+00  0.0000000000000D+00  0.0000000000000D+00
296  2.9500000000000D+00  0.0000000000000D+00  0.0000000000000D+00
297  2.9600000000000D+00  0.0000000000000D+00  0.0000000000000D+00
298  2.9700000000000D+00  0.0000000000000D+00  0.0000000000000D+00
299  2.9800000000000D+00  0.0000000000000D+00  0.0000000000000D+00
300  2.9900000000000D+00  0.0000000000000D+00  0.0000000000000D+00
301  3.0000000000000D+00  0.0000000000000D+00  0.0000000000000D+00
302  3.0100000000000D+00  0.0000000000000D+00  0.0000000000000D+00
303  3.0200000000000D+00  0.0000000000000D+00  0.0000000000000D+00
304  3.0300000000000D+00  0.0000000000000D+00  0.0000000000000D+00
305  3.0400000000000D+00  0.0000000000000D+00  0.0000000000000D+00
306  3.0500000000000D+00  0.0000000000000D+00  0.0000000000000D+00
307  3.0600000000000D+00  0.0000000000000D+00  0.0000000000000D+00
308  3.0700000000000D+00  0.0000000000000D+00  0.0000000000000D+00
309  3.0800000000000D+00  0.0000000000000D+00  0.0000000000000D+00
310  3.0900000000000D+00  0.0000000000000D+00  0.0000000000000D+00
311  3.1000000000000D+00  0.0000000000000D+00  0.0000000000000D+00
312  3.1100000000000D+00  0.0000000000000D+00  0.0000000000000D+00
313  3.1200000000000D+00  0.0000000000000D+00  0.0000000000000D+00
314  3.1300000000000D+00  0.0000000000000D+00  0.0000000000000D+00
315  3.1400000000000D+00  0.0000000000000D+00  0.0000000000000D+00
316  3.1500000000000D+00  0.0000000000000D+00  0.0000000000000D+00
317  3.1600000000000D+00  0.0000000000000D+00  0.0000000000000D+00
318  3.1700000000000D+00  0.0000000000000D+00  0.0000000000000D+00
319  3.1800000000000D+00  0.0000000000000D+00  0.0000000000000D+00
320  3.1900000000000D+00  0.0000000000000D+00  0.0000000000000D+00
321  3.2000000000000D+00  0.0000000000000D+00  0.0000000000000D+00
322  3.2100000000000D+00  0.0000000000000D+00  0.0000000000000D+00
323  3.2200000000000D+00  0.0000000000000D+00  0.0000000000000D+00
324  3.2300000000000D+00  0.0000000000000D+00  0.0000000000000D+00
325  3.2400000000000D+00  0.0000000000000D+00  0.0000000000000D+00
326  3.2500000000000D+00  0.0000000000000D+00  0.0000000000000D+00
327  3.2600000000000D+00  0.0000000000000D+00  0.0000000000000D+00
328  3.2700000000000D+00  0.0000000000000D+00  0.0000000000000D+00
329  3.2800000000000D+00  0.0000000000000D+00  0.0000000000000D+00
330  3.2900000000000D+00  0.0000000000000D+00  0.0000000000000D+00
331  3.3000000000000D+00  0.0000000000000D+00  0.0000000000000D+00
332  3.3100000000000D+00  0.0000000000000D+00  0.0000000000000D+00
333  3.3200000000000D+00  0.0000000000000D+00  0.0000000000000D+00
334  3.3300000000000D+00  0.0000000000000D+00  0.0000000000000D+00
335  3.3400000000000D+00  0.0000000000000D+00  0.0000000000000D+00
336  3.3500000000000D+00  0.0000000000000D+00  0.0000000000000D+00
337  3.3600000000000D+00  0.0000000000000D+00  0.0000000000000D+00
338  3.3700000000000D+00  0.0000000000000D+00  0.0000000000000D+00
339  3.3800000000000D+00  0.0000000000000D+00  0.0000000000000D+00
340  3.3900000000000D+00  0.0000000000000D+00  0.0000000000000D+00
341  3.4000000000000D+00  0.0000000000000D+00  0.0000000000000D+00
342  3.4100000000000D+00  0.0000000000000D+00  0.0000000000000D+00
343  3.4200000000000D+00  0.0000000000000D+00  0.0000000000000D+00
344  3.4300000000000D+00  0.0000000000000D+00  0.0000000000000D+00
345  3.4400000000000D+00  0.0000000000000D+00  0.0000000000000D+00
346  3.4500000000000D+00  0.0000000000000D+00  0.0000000000000D+00
347  3.4600000000000D+00  0.0000000000000D+00  0.0000000000000D+00
348  3.4700000000000D+00  0.0000000000000D+00  0.0000000000000D+00
349  3.4800000000000D+00  0.0000000000000D+00  0.0000000000000D+00
350  3.4900000000000D+00  0.0000000000000D+00  0.0000000000000D+00
351  3.5000000000000D+00  0.0000000000000D+00  0.0000000000000D+00
352  3.5100000000000D+00  0.0000000000000D+00  0.0000000000000D+00
353  3.5200000000000D+00  0.0000000000000D+00  0.0000000000000D+00
354  3.5300000000000D+00  0.0000000000000D+00  0.0000000000000D+00
355  3.5400000000000D+00  0.0000000000000D+00  0.0000000000000D+00
356  3.5500000000000D+00  0.0000000000000D+00  0.0000000000000D+00
357  3.5600000000000D+00  0.0000000000000D+00  0.0000000000000D+00
358  3.5700000000000D+00  0.0000000000000D+00  0.0000000000000D+00
359  3.5800000000000D+00  0.0000000000000D+00  0.0000000000000D+00
360  3.5900000000000D+00  0.0000000000000D+00  0.0000000000000D+00
361  3.6000000000000D+00  0.0000000000000D+00  0.0000000000000D+00
362  3.6100000000000D+00  0.0000000000000D+00  0.0000000000000D+00
363  3.6200000000000D+00  0.0000000000000D+00  0.0000000000000D+00
364  3.6300000000000D+00  0.0000000000000D+00  0.0000000000000D+00
365  3.6400000000000D+00  0.0000000000000D+00  0.0000000000000D+00
366  3.6500000000000D+00  0.0000000000000D+00  0.0000000000000D+00
367  3.6600000000000D+00  0.0000000000000D+00  0.0000000000000D+00
368  3.6700000000000D+00  0.0000000000000D+00  0.0000000000000D+00
369  3.6800000000000D+00  0.0000000000000D+00  0.0000000000000D+00
370  3.6900000000000D+00  0.0000000000000D+00  0.0000000000000D+00
371  3.7000000000000D+00  0.0000000000000D+00  0.0000000000000D+00
372  3.7100000000000D+00  0.0000000000000D+00  0.0000000000000D+00
373  3.7200000000000D+00  0.0000000000000D+00  0.0000000000000D+00
374  3.7300000000000D+00  0.0000000000000D+00  0.0000000000000D+00
375  3.7400000000000D+00  0.0000000000000D+00  0.0000000000000D+00
376  3.7500000000000D+00  0.0000000000000D+00  0.0000000000000D+00
377  3.7600000000000D+00  0.0000000000000D+00  0.0000000000000D+00
378  3.7700000000000D+00  0.0000000000000D+00  0.0000000000000D+00
379  3.7800000000000D+00  0.0000000000000D+00  0.0000000000000D+00
380  3.7900000000000D+00  0.0000000000000D+00  0.0000000000000D+00
381  3.8000000000000D+00  0.0000000000000D+00  0.0000000000000D+00
382  3.8100000000000D+00  0.0000000000000D+00  0.0000000000000D+00
383  3.8200000000000D+00  0.0000000000000D+00  0.0000000000000D+00
384  3.8300000000000D+00  0.0000000000000D+00  0.0000000000000D+00
385  3.8400000000000D+00  0.0000000000000D+00  0.0000000000000D+00
386  3.8500000000000D+00  0.0000000000000D+00  0.0000000000000D+00
387  3.8600000000000D+00  0.0000000000000D+00  0.0000000000000D+00
388  3.8700000000000D+00  0.0000000000000D+00  0.0000000000000D+00
389  3.8800000000000D+00  0.0000000000000D+00  0.0000000000000D+00
390  3.8900000000000D+00  0.0000000000000D+00  0.0000000000000D+00
391  3.9000000000000D+00  0.0000000000000D+00  0.0000000000000D+00
392  3.9100000000000D+00  0.0000000000000D+00  0.0000000000000D+00
393  3.9200000000000D+00  0.0000000000000D+00  0.0000000000000D+00
394  3.9300000000000D+00  0.0000000000000D+00  0.0000000000000D+00
395  3.9400000000000D+00  0.0000000000000D+00  0.0000000000000D+00
396  3.9500000000000D+00  0.0000000000000D+00  0.0000000000000D+00
397  3.9600000000000D+00  0.0000000000000D+00  0.0000000000000D+00
398  3.9700000000000D+00  0.0000000000000D+00  0.0000000000000D+00
399  3.9800000000000D+00  0.0000000000000D+00  0.0000000000000D+00
400  3.9900000000000D+00  0.0000000000000D+00  0.0000000000000D+00
401  4.0000000000000D+00  0.0000000000000D+00  0.0000000000000D+00
402  4.0100000000000D+00  0.0000000000000D+00  0.0000000000000D+00
403  4.0200000000000D+00  0.0000000000000D+00  0.0000000000000D+00
404  4.0300000000000D+00  0.0000000000000D+00  0.0000000000000D+00
405  4.0400000000000D+00  0.0000000000000D+00  0.0000000000000D+00
406  4.0500000000000D+00  0.0000000000000D+00  0.0000000000000D+00
407  4.0600000000000D+00  0.0000000000000D+00  0.0000000000000D+00
408  4.0700000000000D+00  0.0000000000000D+00  0.0000000000000D+00
409  4.0800000000000D+00  0.0000000000000D+00  0.0000000000000D+00
410  4.0900000000000D+00  0.0000000000000D+00  0.0000000000000D+00
411  4.1000000000000D+00  0.0000000000000D+00  0.0000000000000D+00
412  4.1100000000000D+00  0.0000000000000D+00  0.0000000000000D+00
413  4.1200000000000D+00  0.0000000000000D+00  0.0000000000000D+00
414  4.1300000000000D+00  0.0000000000000D+00  0.0000000000000D+00
415  4.1400000000000D+00  0.0000000000000D+00  0.0000000000000D+00
416  4.1500000000000D+00  0.0000000000000D+00  0.0000000000000D+00
417  4.1600000000000D+00  0.0000000000000D+00  0.0000000000000D+00
418  4.1700000000000D+00  0.0000000000000D+00  0.0000000000000D+00
419  4.1800000000000D+00  0.0000000000000D+00  0.0000000000000D+00
420  4.1900000000000D+00  0.0000000000000D+00  0.0000000000000D+00
421  4.2000000000000D+00  0.0000000000000D+00  0.0000000000000D+00
422  4.2100000000000D+00  0.0000000000000D+00  0.0000000000000D+00
423  4.2200000000000D+00  0.0000000000000D+00  0.0000000000000D+00
424  4.2300000000000D+00  0.0000000000000D+00  0.0000000000000D+00
425  4.2400000000000D+00  0.0000000000000D+00  0.0000000000000D+00
426  4.2500000000000D+00  0.0000000000000D+00  0.0000000000000D+00
427  4.2600000000000D+00  0.0000000000000D+00  0.0000000000000D+00
428  4.2700000000000D+00  0.0000000000000D+00  0.0000000000000D+00
429  4.2800000000000D+00  0.0000000000000D+00  0.0000000000000D+00
430  4.2900000000000D+00  0.0000000000000D+00  0.0000000000000D+00
431  4.3000000000000D+00  0.0000000000000D+00  0.0000000000000D+00
432  4.3100000000000D+00  0.0000000000000D+00  0.0000000000000D+00
433  4.3200000000000D+00  0.0000000000000D+00  0.0000000000000D+00
434  4.3300000000000D+00  0.0000000000000D+00  0.0000000000000D+00
435  4.3400000000000D+00  0.0000000000000D+00  0.0000000000000D+00
436  4.3500000000000D+00  0.0000000000000D+00  0.0000000000000D+00
437  4.3600000000000D+00  0.0000000000000D+00  0.0000000000000D+00
438  4.3700000000000D+00  0.0000000000000D+00  0.0000000000000D+00
439  4.3800000000000D+00  0.0000000000000D+00  0.0000000000000D+00
440  4.3900000000000D+00  0.0000000000000D+00  0.0000000000000D+00
441  4.4000000000000D+00  0.0000000000000D+00  0.0000000000000D+00
442  4.4100000000000D+00  0.0000000000000D+00  0.0000000000000D+00
443  4.4200000000000D+00  0.0000000000000D+00  0.0000000000000D+00