Sb    ONCVPSP-3.2.3.1  r_core=   2.00182   2.12485   1.81962
51.0000     15.0000      170510    zatom,zion,pspd
8      11   2     4   600     0    pspcod,pspxc,lmax,lloc,mmax,r2well
5.99000000  5.00000000  0.00000000    rchrg fchrg qchrg
2     2     2     0     0    nproj
1     1           extension_switch
0                         6.8595971416102D+00  7.4998373964284D-01
1  0.0000000000000D+00 -9.4007857054379D-12  1.2246648140035D-11
2  1.0000000000000D-02  2.6936000134277D-02 -2.8976110110778D-02
3  2.0000000000000D-02  5.3827913858305D-02 -5.7866666906692D-02
4  3.0000000000000D-02  8.0631844645029D-02 -8.6586441744985D-02
5  4.0000000000000D-02  1.0730427493000D-01 -1.1505085409231D-01
6  5.0000000000000D-02  1.3380225358559D-01 -1.4317629249548D-01
7  6.0000000000000D-02  1.6008358099320D-01 -1.7088043185990D-01
8  7.0000000000000D-02  1.8610699092384D-01 -1.9808254581920D-01
9  8.0000000000000D-02  2.1183232844669D-01 -2.2470381299175D-01
10  9.0000000000000D-02  2.3722072309712D-01 -2.5066761593505D-01
11  1.0000000000000D-01  2.6223475654985D-01 -2.7589983162772D-01
12  1.1000000000000D-01  2.8683862405933D-01 -3.0032911233064D-01
13  1.2000000000000D-01  3.1099828894860D-01 -3.2388715570374D-01
14  1.3000000000000D-01  3.3468162944920D-01 -3.4650896308385D-01
15  1.4000000000000D-01  3.5785857721857D-01 -3.6813308486079D-01
16  1.5000000000000D-01  3.8050124688770D-01 -3.8870185192462D-01
17  1.6000000000000D-01  4.0258405602074D-01 -4.0816159219601D-01
18  1.7000000000000D-01  4.2408383489932D-01 -4.2646283129478D-01
19  1.8000000000000D-01  4.4497992557827D-01 -4.4356047644816D-01
20  1.9000000000000D-01  4.6525426969554D-01 -4.5941398279070D-01
21  2.0000000000000D-01  4.8489148455784D-01 -4.7398750126214D-01
22  2.1000000000000D-01  5.0387892706459D-01 -4.8725000736770D-01
23  2.2000000000000D-01  5.2220674507618D-01 -4.9917541012691D-01
24  2.3000000000000D-01  5.3986791587833D-01 -5.0974264060353D-01
25  2.4000000000000D-01  5.5685827144247D-01 -5.1893571947800D-01
26  2.5000000000000D-01  5.7317651023225D-01 -5.2674380319799D-01
27  2.6000000000000D-01  5.8882419535855D-01 -5.3316120831922D-01
28  2.7000000000000D-01  6.0380573893970D-01 -5.3818741372948D-01
29  2.8000000000000D-01  6.1812837258000D-01 -5.4182704053287D-01
30  2.9000000000000D-01  6.3180210393700D-01 -5.4408980945857D-01
31  3.0000000000000D-01  6.4483965940808D-01 -5.4499047574844D-01
32  3.1000000000000D-01  6.5725641302701D-01 -5.4454874157135D-01
33  3.2000000000000D-01  6.6907030172357D-01 -5.4278914610694D-01
34  3.3000000000000D-01  6.8030172716208D-01 -5.3974093354028D-01
35  3.4000000000000D-01  6.9097344443807D-01 -5.3543789930708D-01
36  3.5000000000000D-01  7.0111043797691D-01 -5.2991821503166D-01
37  3.6000000000000D-01  7.1073978504180D-01 -5.2322423270075D-01
38  3.7000000000000D-01  7.1989050732324D-01 -5.1540226871931D-01
39  3.8000000000000D-01  7.2859341114561D-01 -5.0650236859745D-01
40  3.9000000000000D-01  7.3688091688942D-01 -4.9657805311958D-01
41  4.0000000000000D-01  7.4478687828997D-01 -4.8568604694854D-01
42  4.1000000000000D-01  7.5234639233361D-01 -4.7388599071734D-01
43  4.2000000000000D-01  7.5959560053180D-01 -4.6124013775900D-01
44  4.3000000000000D-01  7.6657148240964D-01 -4.4781303672020D-01
45  4.4000000000000D-01  7.7331164210021D-01 -4.3367120139654D-01
46  4.5000000000000D-01  7.7985408898727D-01 -4.1888276921490D-01
47  4.6000000000000D-01  7.8623701338732D-01 -4.0351714987239D-01
48  4.7000000000000D-01  7.9249855830673D-01 -3.8764466571944D-01
49  4.8000000000000D-01  7.9867658835060D-01 -3.7133618554739D-01
50  4.9000000000000D-01  8.0480845689649D-01 -3.5466275350718D-01
51  5.0000000000000D-01  8.1093077267842D-01 -3.3769521494501D-01
52  5.1000000000000D-01  8.1707916695342D-01 -3.2050384099267D-01
53  5.2000000000000D-01  8.2328806244506D-01 -3.0315795379381D-01
54  5.3000000000000D-01  8.2959044527467D-01 -2.8572555428240D-01
55  5.4000000000000D-01  8.3601764110167D-01 -2.6827295445558D-01
56  5.5000000000000D-01  8.4259909669888D-01 -2.5086441609924D-01
57  5.6000000000000D-01  8.4936216818750D-01 -2.3356179793098D-01
58  5.7000000000000D-01  8.5633191714782D-01 -2.1642421312115D-01
59  5.8000000000000D-01  8.6353091580769D-01 -1.9950769913740D-01
60  5.9000000000000D-01  8.7097906248904D-01 -1.8286490183290D-01
61  6.0000000000000D-01  8.7869340846512D-01 -1.6654477566131D-01
62  6.1000000000000D-01  8.8668799734572D-01 -1.5059230185321D-01
63  6.2000000000000D-01  8.9497371806650D-01 -1.3504822632949D-01
64  6.3000000000000D-01  9.0355817250948D-01 -1.1994881905623D-01
65  6.4000000000000D-01  9.1244555872719D-01 -1.0532565646360D-01
66  6.5000000000000D-01  9.2163657068042D-01 -9.1205428457590D-02
67  6.6000000000000D-01  9.3112831533210D-01 -7.7609771450527D-02
68  6.7000000000000D-01  9.4091424786499D-01 -6.4555128720398D-02
69  6.8000000000000D-01  9.5098412571024D-01 -5.2052639284798D-02
70  6.9000000000000D-01  9.6132398198884D-01 -4.0108056341323D-02
71  7.0000000000000D-01  9.7191611887561D-01 -2.8721696181689D-02
72  7.1000000000000D-01  9.8273912129976D-01 -1.7888418335023D-02
73  7.2000000000000D-01  9.9376789129533D-01 -7.5976375359497D-03
74  7.3000000000000D-01  1.0049737032098D+00  2.1666320545651D-03
75  7.4000000000000D-01  1.0163242798716D+00  1.1425700120565D-02
76  7.5000000000000D-01  1.0277838897049D+00  2.0206090879215D-02
77  7.6000000000000D-01  1.0393134646678D+00  2.8539401292951D-02
78  7.7000000000000D-01  1.0508707387738D+00  3.6462127099877D-02
79  7.8000000000000D-01  1.0624104068404D+00  4.4015457146045D-02
80  7.9000000000000D-01  1.0738843029905D+00  5.1245036693302D-02
81  8.0000000000000D-01  1.0852415983177D+00  5.8200700567699D-02
82  8.1000000000000D-01  1.0964290170080D+00  6.4936177202063D-02
83  8.2000000000000D-01  1.1073910700979D+00  7.1508764815103D-02
84  8.3000000000000D-01  1.1180703059347D+00  7.7978981152575D-02
85  8.4000000000000D-01  1.1284075762995D+00  8.4410188395998D-02
86  8.5000000000000D-01  1.1383423170413D+00  9.0868195018227D-02
87  8.6000000000000D-01  1.1478128419777D+00  9.7420836531543D-02
88  8.7000000000000D-01  1.1567566487139D+00  1.0413753723320D-01
89  8.8000000000000D-01  1.1651107349466D+00  1.1108885520198D-01
90  8.9000000000000D-01  1.1728119237343D+00  1.1834601293864D-01
91  9.0000000000000D-01  1.1797971961361D+00  1.2598041617020D-01
92  9.1000000000000D-01  1.1860040295570D+00  1.3406316345290D-01
93  9.2000000000000D-01  1.1913707400705D+00  1.4266454930974D-01
94  9.3000000000000D-01  1.1958368269430D+00  1.5185356372533D-01
95  9.4000000000000D-01  1.1993433175373D+00  1.6169739089247D-01
96  9.5000000000000D-01  1.2018331107406D+00  1.7226091015991D-01
97  9.6000000000000D-01  1.2032513170397D+00  1.8360620217005D-01
98  9.7000000000000D-01  1.2035455933506D+00  1.9579206319623D-01
99  9.8000000000000D-01  1.2026664707114D+00  2.0887353069342D-01
100  9.9000000000000D-01  1.2005676729508D+00  2.2290142306159D-01
101  1.0000000000000D+00  1.1972064244678D+00  2.3792189658820D-01
102  1.0100000000000D+00  1.1925437452876D+00  2.5397602248355D-01
103  1.0200000000000D+00  1.1865447315981D+00  2.7109938685707D-01
104  1.0300000000000D+00  1.1791788200270D+00  2.8932171638853D-01
105  1.0400000000000D+00  1.1704200339799D+00  3.0866653234537D-01
106  1.0500000000000D+00  1.1602472104371D+00  3.2915083547200D-01
107  1.0600000000000D+00  1.1486442056883D+00  3.5078482413124D-01
108  1.0700000000000D+00  1.1356000785809D+00  3.7357164792364D-01
109  1.0800000000000D+00  1.1211092499580D+00  3.9750719883652D-01
110  1.0900000000000D+00  1.1051716370823D+00  4.2257994177390D-01
111  1.1000000000000D+00  1.0877927619565D+00  4.4877078612550D-01
112  1.1100000000000D+00  1.0689838325939D+00  4.7605299979146D-01
113  1.1200000000000D+00  1.0487617964070D+00  5.0439216689023D-01
114  1.1300000000000D+00  1.0271493650498D+00  5.3374619008757D-01
115  1.1400000000000D+00  1.0041750101888D+00  5.6406533826113D-01
116  1.1500000000000D+00  9.7987292984358D-01  5.9529233992262D-01
117  1.1600000000000D+00  9.5428298506899D-01  6.2736252261194D-01
118  1.1700000000000D+00  9.2745060694765D-01  6.6020399813754D-01
119  1.1800000000000D+00  8.9942667401003D-01  6.9373789329299D-01
120  1.1900000000000D+00  8.7026736038774D-01  7.2787862536172D-01
121  1.2000000000000D+00  8.4003395510853D-01  7.6253422154961D-01
122  1.2100000000000D+00  8.0879265319830D-01  7.9760668105483D-01
123  1.2200000000000D+00  7.7661431937849D-01  8.3299237827895D-01
124  1.2300000000000D+00  7.4357422527690D-01  8.6858250546607D-01
125  1.2400000000000D+00  7.0975176128057D-01  9.0426355270529D-01
126  1.2500000000000D+00  6.7523012431855D-01  9.3991782296735D-01
127  1.2600000000000D+00  6.4009598296242D-01  9.7542397967995D-01
128  1.2700000000000D+00  6.0443912139722D-01  1.0106576240723D+00
129  1.2800000000000D+00  5.6835206400401D-01  1.0454918992087D+00
130  1.2900000000000D+00  5.3192968234053D-01  1.0797981175574D+00
131  1.3000000000000D+00  4.9526878645525D-01  1.1134464086947D+00
132  1.3100000000000D+00  4.5846770264067D-01  1.1463063834676D+00
133  1.3200000000000D+00  4.2162583972216D-01  1.1782478109570D+00
134  1.3300000000000D+00  3.8484324613976D-01  1.2091413043180D+00
135  1.3400000000000D+00  3.4822016017001D-01  1.2388590114394D+00
136  1.3500000000000D+00  3.1185655560800D-01  1.2672753064057D+00
137  1.3600000000000D+00  2.7585168539038D-01  1.2942674774913D+00
138  1.3700000000000D+00  2.4030362560191D-01  1.3197164074983D+00
139  1.3800000000000D+00  2.0530882235450D-01  1.3435072421546D+00
140  1.3900000000000D+00  1.7096164405403D-01  1.3655300422934D+00
141  1.4000000000000D+00  1.3735394152091D-01  1.3856804155989D+00
142  1.4100000000000D+00  1.0457461850198D-01  1.4038601236013D+00
143  1.4200000000000D+00  7.2709214910083D-02  1.4199776599821D+00
144  1.4300000000000D+00  4.1839505336712D-02  1.4339487958569D+00
145  1.4400000000000D+00  1.2043115042540D-02  1.4456970883538D+00
146  1.4500000000000D+00 -1.6606844258041D-02  1.4551543485861D+00
147  1.4600000000000D+00 -4.4042116548558D-02  1.4622610652174D+00
148  1.4700000000000D+00 -7.0199619787257D-02  1.4669667806464D+00
149  1.4800000000000D+00 -9.5021737914007D-02  1.4692304157815D+00
150  1.4900000000000D+00 -1.1845658524417D-01  1.4690205412802D+00
151  1.5000000000000D+00 -1.4045824108044D-01  1.4663155916323D+00
152  1.5100000000000D+00 -1.6098695328178D-01  1.4611040201059D+00
153  1.5200000000000D+00 -1.8000930929953D-01  1.4533843921514D+00
154  1.5300000000000D+00 -1.9749837321862D-01  1.4431654149244D+00
155  1.5400000000000D+00 -2.1343378824310D-01  1.4304659021692D+00
156  1.5500000000000D+00 -2.2780184287028D-01  1.4153146716065D+00
157  1.5600000000000D+00 -2.4059550111957D-01  1.3977503747437D+00
158  1.5700000000000D+00 -2.5181439508644D-01  1.3778212595776D+00
159  1.5800000000000D+00 -2.6146478021000D-01  1.3555848594939D+00
160  1.5900000000000D+00 -2.6955945422650D-01  1.3311076315685D+00
161  1.6000000000000D+00 -2.7611764115392D-01  1.3044645992823D+00
162  1.6100000000000D+00 -2.8116481647828D-01  1.2757384732472D+00
163  1.6200000000000D+00 -2.8473252973491D-01  1.2450193760852D+00
164  1.6300000000000D+00 -2.8685821565920D-01  1.2124053240768D+00
165  1.6400000000000D+00 -2.8758499802385D-01  1.1780024629273D+00
166  1.6500000000000D+00 -2.8696150979874D-01  1.1419256554615D+00
167  1.6600000000000D+00 -2.8504165619798D-01  1.1042983240997D+00
168  1.6700000000000D+00 -2.8188433723161D-01  1.0652515924254D+00
169  1.6800000000000D+00 -2.7755315541526D-01  1.0249237660965D+00
170  1.6900000000000D+00 -2.7211609747950D-01  9.8345977052492D-01
171  1.7000000000000D+00 -2.6564519389661D-01  9.4101049427560D-01
172  1.7100000000000D+00 -2.5821615881100D-01  8.9773213160833D-01
173  1.7200000000000D+00 -2.4990801125714D-01  8.5378548729497D-01
174  1.7300000000000D+00 -2.4080268022537D-01  8.0933526102213D-01
175  1.7400000000000D+00 -2.3098459545336D-01  7.6454931255219D-01
176  1.7500000000000D+00 -2.2054026608366D-01  7.1959791106348D-01
177  1.7600000000000D+00 -2.0955784942480D-01  6.7465297249573D-01
178  1.7700000000000D+00 -1.9812671188631D-01  6.2988728830587D-01
179  1.7800000000000D+00 -1.8633698447741D-01  5.8547374929284D-01
180  1.7900000000000D+00 -1.7427911495574D-01  5.4158456805492D-01
181  1.8000000000000D+00 -1.6204341892668D-01  4.9839050328221D-01
182  1.8100000000000D+00 -1.4971963219387D-01  4.5606008982555D-01
183  1.8200000000000D+00 -1.3739646623248D-01  4.1475887699337D-01
184  1.8300000000000D+00 -1.2516116959914D-01  3.7464867964568D-01
185  1.8400000000000D+00 -1.1309909632274D-01  3.3588684349545D-01
186  1.8500000000000D+00 -1.0129328484289D-01  2.9862552996433D-01
187  1.8600000000000D+00 -8.9824047672141D-02  2.6301102108583D-01
188  1.8700000000000D+00 -7.8768575692696D-02  2.2918305000290D-01
189  1.8800000000000D+00 -6.8200557061532D-02  1.9727415747664D-01
190  1.8900000000000D+00 -5.8189814093551D-02  1.6740907916641D-01
191  1.9000000000000D+00 -4.8801958781088D-02  1.3970416498726D-01
192  1.9100000000000D+00 -4.0098068815077D-02  1.1426683342080D-01
193  1.9200000000000D+00 -3.2134386395694D-02  9.1195064175336D-02
194  1.9300000000000D+00 -2.4962039211110D-02  7.0576928765224D-02
195  1.9400000000000D+00 -1.8632120786733D-02  5.2504999345914D-02
196  1.9500000000000D+00 -1.3172794580679D-02  3.7012910729222D-02
197  1.9600000000000D+00 -8.6002847129059D-03  2.4106130913782D-02
198  1.9700000000000D+00 -4.9799400369623D-03  1.3932087194575D-02
199  1.9800000000000D+00 -2.3950428015492D-03  6.6936547878973D-03
200  1.9900000000000D+00 -8.3606256812428D-04  2.3410273396252D-03
201  2.0000000000000D+00 -8.2840890867450D-05  2.4270456769971D-04
202  2.0100000000000D+00  1.3056090450001D-04 -3.5440565779866D-04
203  2.0200000000000D+00  7.0273546495342D-05 -1.9227424035205D-04
204  2.0300000000000D+00 -2.5798476602269D-05  7.0895475210941D-05
205  2.0400000000000D+00 -3.9133113422910D-05  1.0765228297431D-04
206  2.0500000000000D+00 -7.1974133827298D-07  1.9809222737770D-06
207  2.0600000000000D+00  7.4192217484513D-06 -2.0424536772145D-05
208  2.0700000000000D+00  4.1136675972710D-06 -1.1332276450605D-05
209  2.0800000000000D+00  2.3846154714353D-08 -8.9414933402598D-08
210  2.0900000000000D+00  3.2150658368378D-08 -1.2055398496295D-07
211  2.1000000000000D+00  0.0000000000000D+00  0.0000000000000D+00
212  2.1100000000000D+00  0.0000000000000D+00  0.0000000000000D+00
213  2.1200000000000D+00  0.0000000000000D+00  0.0000000000000D+00
214  2.1300000000000D+00  0.0000000000000D+00  0.0000000000000D+00
215  2.1400000000000D+00  0.0000000000000D+00  0.0000000000000D+00
216  2.1500000000000D+00  0.0000000000000D+00  0.0000000000000D+00
217  2.1600000000000D+00  0.0000000000000D+00  0.0000000000000D+00
218  2.1700000000000D+00  0.0000000000000D+00  0.0000000000000D+00
219  2.1800000000000D+00  0.0000000000000D+00  0.0000000000000D+00
220  2.1900000000000D+00  0.0000000000000D+00  0.0000000000000D+00
221  2.2000000000000D+00  0.0000000000000D+00  0.0000000000000D+00
222  2.2100000000000D+00  0.0000000000000D+00  0.0000000000000D+00
223  2.2200000000000D+00  0.0000000000000D+00  0.0000000000000D+00
224  2.2300000000000D+00  0.0000000000000D+00  0.0000000000000D+00
225  2.2400000000000D+00  0.0000000000000D+00  0.0000000000000D+00
226  2.2500000000000D+00  0.0000000000000D+00  0.0000000000000D+00
227  2.2600000000000D+00  0.0000000000000D+00  0.0000000000000D+00
228  2.2700000000000D+00  0.0000000000000D+00  0.0000000000000D+00
229  2.2800000000000D+00  0.0000000000000D+00  0.0000000000000D+00
230  2.2900000000000D+00  0.0000000000000D+00  0.0000000000000D+00
231  2.3000000000000D+00  0.0000000000000D+00  0.0000000000000D+00
232  2.3100000000000D+00  0.0000000000000D+00  0.0000000000000D+00
233  2.3200000000000D+00  0.0000000000000D+00  0.0000000000000D+00
234  2.3300000000000D+00  0.0000000000000D+00  0.0000000000000D+00
235  2.3400000000000D+00  0.0000000000000D+00  0.0000000000000D+00
236  2.3500000000000D+00  0.0000000000000D+00  0.0000000000000D+00
237  2.3600000000000D+00  0.0000000000000D+00  0.0000000000000D+00
238  2.3700000000000D+00  0.0000000000000D+00  0.0000000000000D+00
239  2.3800000000000D+00  0.0000000000000D+00  0.0000000000000D+00
240  2.3900000000000D+00  0.0000000000000D+00  0.0000000000000D+00
241  2.4000000000000D+00  0.0000000000000D+00  0.0000000000000D+00
242  2.4100000000000D+00  0.0000000000000D+00  0.0000000000000D+00
243  2.4200000000000D+00  0.0000000000000D+00  0.0000000000000D+00
244  2.4300000000000D+00  0.0000000000000D+00  0.0000000000000D+00
245  2.4400000000000D+00  0.0000000000000D+00  0.0000000000000D+00
246  2.4500000000000D+00  0.0000000000000D+00  0.0000000000000D+00
247  2.4600000000000D+00  0.0000000000000D+00  0.0000000000000D+00
248  2.4700000000000D+00  0.0000000000000D+00  0.0000000000000D+00
249  2.4800000000000D+00  0.0000000000000D+00  0.0000000000000D+00
250  2.4900000000000D+00  0.0000000000000D+00  0.0000000000000D+00
251  2.5000000000000D+00  0.0000000000000D+00  0.0000000000000D+00
252  2.5100000000000D+00  0.0000000000000D+00  0.0000000000000D+00
253  2.5200000000000D+00  0.0000000000000D+00  0.0000000000000D+00
254  2.5300000000000D+00  0.0000000000000D+00  0.0000000000000D+00
255  2.5400000000000D+00  0.0000000000000D+00  0.0000000000000D+00
256  2.5500000000000D+00  0.0000000000000D+00  0.0000000000000D+00
257  2.5600000000000D+00  0.0000000000000D+00  0.0000000000000D+00
258  2.5700000000000D+00  0.0000000000000D+00  0.0000000000000D+00
259  2.5800000000000D+00  0.0000000000000D+00  0.0000000000000D+00
260  2.5900000000000D+00  0.0000000000000D+00  0.0000000000000D+00
261  2.6000000000000D+00  0.0000000000000D+00  0.0000000000000D+00
262  2.6100000000000D+00  0.0000000000000D+00  0.0000000000000D+00
263  2.6200000000000D+00  0.0000000000000D+00  0.0000000000000D+00
264  2.6300000000000D+00  0.0000000000000D+00  0.0000000000000D+00
265  2.6400000000000D+00  0.0000000000000D+00  0.0000000000000D+00
266  2.6500000000000D+00  0.0000000000000D+00  0.0000000000000D+00
267  2.6600000000000D+00  0.0000000000000D+00  0.0000000000000D+00
268  2.6700000000000D+00  0.0000000000000D+00  0.0000000000000D+00
269  2.6800000000000D+00  0.0000000000000D+00  0.0000000000000D+00
270  2.6900000000000D+00  0.0000000000000D+00  0.0000000000000D+00
271  2.7000000000000D+00  0.0000000000000D+00  0.0000000000000D+00
272  2.7100000000000D+00  0.0000000000000D+00  0.0000000000000D+00
273  2.7200000000000D+00  0.0000000000000D+00  0.0000000000000D+00
274  2.7300000000000D+00  0.0000000000000D+00  0.0000000000000D+00
275  2.7400000000000D+00  0.0000000000000D+00  0.0000000000000D+00
276  2.7500000000000D+00  0.0000000000000D+00  0.0000000000000D+00
277  2.7600000000000D+00  0.0000000000000D+00  0.0000000000000D+00
278  2.7700000000000D+00  0.0000000000000D+00  0.0000000000000D+00
279  2.7800000000000D+00  0.0000000000000D+00  0.0000000000000D+00
280  2.7900000000000D+00  0.0000000000000D+00  0.0000000000000D+00
281  2.8000000000000D+00  0.0000000000000D+00  0.0000000000000D+00
282  2.8100000000000D+00  0.0000000000000D+00  0.0000000000000D+00
283  2.8200000000000D+00  0.0000000000000D+00  0.0000000000000D+00
284  2.8300000000000D+00  0.0000000000000D+00  0.0000000000000D+00
285  2.8400000000000D+00  0.0000000000000D+00  0.0000000000000D+00
286  2.8500000000000D+00  0.0000000000000D+00  0.0000000000000D+00
287  2.8600000000000D+00  0.0000000000000D+00  0.0000000000000D+00
288  2.8700000000000D+00  0.0000000000000D+00  0.0000000000000D+00
289  2.8800000000000D+00  0.0000000000000D+00  0.0000000000000D+00
290  2.8900000000000D+00  0.0000000000000D+00  0.0000000000000D+00
291  2.9000000000000D+00  0.0000000000000D+00  0.0000000000000D+00
292  2.9100000000000D+00  0.0000000000000D+00  0.0000000000000D+00
293  2.9200000000000D+00  0.0000000000000D+00  0.0000000000000D+00
294  2.9300000000000D+00  0.0000000000000D+00  0.0000000000000D+00
295  2.9400000000000D+00  0.0000000000000D+00  0.0000000000000D+00
296  2.9500000000000D+00  0.0000000000000D+00  0.0000000000000D+00
297  2.9600000000000D+00  0.0000000000000D+00  0.0000000000000D+00
298  2.9700000000000D+00  0.0000000000000D+00  0.0000000000000D+00
299  2.9800000000000D+00  0.0000000000000D+00  0.0000000000000D+00
300  2.9900000000000D+00  0.0000000000000D+00  0.0000000000000D+00
301  3.0000000000000D+00  0.0000000000000D+00  0.0000000000000D+00
302  3.0100000000000D+00  0.0000000000000D+00  0.0000000000000D+00
303  3.0200000000000D+00  0.0000000000000D+00  0.0000000000000D+00
304  3.0300000000000D+00  0.0000000000000D+00  0.0000000000000D+00
305  3.0400000000000D+00  0.0000000000000D+00  0.0000000000000D+00
306  3.0500000000000D+00  0.0000000000000D+00  0.0000000000000D+00
307  3.0600000000000D+00  0.0000000000000D+00  0.0000000000000D+00
308  3.0700000000000D+00  0.0000000000000D+00  0.0000000000000D+00
309  3.0800000000000D+00  0.0000000000000D+00  0.0000000000000D+00
310  3.0900000000000D+00  0.0000000000000D+00  0.0000000000000D+00
311  3.1000000000000D+00  0.0000000000000D+00  0.0000000000000D+00
312  3.1100000000000D+00  0.0000000000000D+00  0.0000000000000D+00
313  3.1200000000000D+00  0.0000000000000D+00  0.0000000000000D+00
314  3.1300000000000D+00  0.0000000000000D+00  0.0000000000000D+00
315  3.1400000000000D+00  0.0000000000000D+00  0.0000000000000D+00
316  3.1500000000000D+00  0.0000000000000D+00  0.0000000000000D+00
317  3.1600000000000D+00  0.0000000000000D+00  0.0000000000000D+00
318  3.1700000000000D+00  0.0000000000000D+00  0.0000000000000D+00
319  3.1800000000000D+00  0.0000000000000D+00  0.0000000000000D+00
320  3.1900000000000D+00  0.0000000000000D+00  0.0000000000000D+00
321  3.2000000000000D+00  0.0000000000000D+00  0.0000000000000D+00
322  3.2100000000000D+00  0.0000000000000D+00  0.0000000000000D+00
323  3.2200000000000D+00  0.0000000000000D+00  0.0000000000000D+00
324  3.2300000000000D+00  0.0000000000000D+00  0.0000000000000D+00
325  3.2400000000000D+00  0.0000000000000D+00  0.0000000000000D+00
326  3.2500000000000D+00  0.0000000000000D+00  0.0000000000000D+00
327  3.2600000000000D+00  0.0000000000000D+00  0.0000000000000D+00
328  3.2700000000000D+00  0.0000000000000D+00  0.0000000000000D+00
329  3.2800000000000D+00  0.0000000000000D+00  0.0000000000000D+00
330  3.2900000000000D+00  0.0000000000000D+00  0.0000000000000D+00
331  3.3000000000000D+00  0.0000000000000D+00  0.0000000000000D+00
332  3.3100000000000D+00  0.0000000000000D+00  0.0000000000000D+00
333  3.3200000000000D+00  0.0000000000000D+00  0.0000000000000D+00
334  3.3300000000000D+00  0.0000000000000D+00  0.0000000000000D+00
335  3.3400000000000D+00  0.0000000000000D+00  0.0000000000000D+00
336  3.3500000000000D+00  0.0000000000000D+00  0.0000000000000D+00
337  3.3600000000000D+00  0.0000000000000D+00  0.0000000000000D+00
338  3.3700000000000D+00  0.0000000000000D+00  0.0000000000000D+00
339  3.3800000000000D+00  0.0000000000000D+00  0.0000000000000D+00
340  3.3900000000000D+00  0.0000000000000D+00  0.0000000000000D+00
341  3.4000000000000D+00  0.0000000000000D+00  0.0000000000000D+00
342  3.4100000000000D+00  0.0000000000000D+00  0.0000000000000D+00
343  3.4200000000000D+00  0.0000000000000D+00  0.0000000000000D+00
344  3.4300000000000D+00  0.0000000000000D+00  0.0000000000000D+00
345  3.4400000000000D+00  0.0000000000000D+00  0.0000000000000D+00
346  3.4500000000000D+00  0.0000000000000D+00  0.0000000000000D+00
347  3.4600000000000D+00  0.0000000000000D+00  0.0000000000000D+00
348  3.4700000000000D+00  0.0000000000000D+00  0.0000000000000D+00
349  3.4800000000000D+00  0.0000000000000D+00  0.0000000000000D+00
350  3.4900000000000D+00  0.0000000000000D+00  0.0000000000000D+00
351  3.5000000000000D+00  0.0000000000000D+00  0.0000000000000D+00
352  3.5100000000000D+00  0.0000000000000D+00  0.0000000000000D+00
353  3.5200000000000D+00  0.0000000000000D+00  0.0000000000000D+00
354  3.5300000000000D+00  0.0000000000000D+00  0.0000000000000D+00
355  3.5400000000000D+00  0.0000000000000D+00  0.0000000000000D+00
356  3.5500000000000D+00  0.0000000000000D+00  0.0000000000000D+00
357  3.5600000000000D+00  0.0000000000000D+00  0.0000000000000D+00
358  3.5700000000000D+00  0.0000000000000D+00  0.0000000000000D+00
359  3.5800000000000D+00  0.0000000000000D+00  0.0000000000000D+00
360  3.5900000000000D+00  0.0000000000000D+00  0.0000000000000D+00
361  3.6000000000000D+00  0.0000000000000D+00  0.0000000000000D+00
362  3.6100000000000D+00  0.0000000000000D+00  0.0000000000000D+00
363  3.6200000000000D+00  0.0000000000000D+00  0.0000000000000D+00
364  3.6300000000000D+00  0.0000000000000D+00  0.0000000000000D+00
365  3.6400000000000D+00  0.0000000000000D+00  0.0000000000000D+00
366  3.6500000000000D+00  0.0000000000000D+00  0.0000000000000D+00
367  3.6600000000000D+00  0.0000000000000D+00  0.0000000000000D+00
368  3.6700000000000D+00  0.0000000000000D+00  0.0000000000000D+00
369  3.6800000000000D+00  0.0000000000000D+00  0.0000000000000D+00
370  3.6900000000000D+00  0.0000000000000D+00  0.0000000000000D+00
371  3.7000000000000D+00  0.0000000000000D+00  0.0000000000000D+00
372  3.7100000000000D+00  0.0000000000000D+00  0.0000000000000D+00
373  3.7200000000000D+00  0.0000000000000D+00  0.0000000000000D+00
374  3.7300000000000D+00  0.0000000000000D+00  0.0000000000000D+00
375  3.7400000000000D+00  0.0000000000000D+00  0.0000000000000D+00
376  3.7500000000000D+00  0.0000000000000D+00  0.0000000000000D+00
377  3.7600000000000D+00  0.0000000000000D+00  0.0000000000000D+00
378  3.7700000000000D+00  0.0000000000000D+00  0.0000000000000D+00
379  3.7800000000000D+00  0.0000000000000D+00  0.0000000000000D+00
380  3.7900000000000D+00  0.0000000000000D+00  0.0000000000000D+00
381  3.8000000000000D+00  0.0000000000000D+00  0.0000000000000D+00
382  3.8100000000000D+00  0.0000000000000D+00  0.0000000000000D+00
383  3.8200000000000D+00  0.0000000000000D+00  0.0000000000000D+00
384  3.8300000000000D+00  0.0000000000000D+00  0.0000000000000D+00
385  3.8400000000000D+00  0.0000000000000D+00  0.0000000000000D+00
386  3.8500000000000D+00  0.0000000000000D+00  0.0000000000000D+00
387  3.8600000000000D+00  0.0000000000000D+00  0.0000000000000D+00
388  3.8700000000000D+00  0.0000000000000D+00  0.0000000000000D+00
389  3.8800000000000D+00  0.0000000000000D+00  0.0000000000000D+00
390  3.8900000000000D+00  0.0000000000000D+00  0.0000000000000D+00
391  3.9000000000000D+00  0.0000000000000D+00  0.0000000000000D+00
392  3.9100000000000D+00  0.0000000000000D+00  0.0000000000000D+00
393  3.9200000000000D+00  0.0000000000000D+00  0.0000000000000D+00
394  3.9300000000000D+00  0.0000000000000D+00  0.0000000000000D+00
395  3.9400000000000D+00  0.0000000000000D+00  0.0000000000000D+00
396  3.9500000000000D+00  0.0000000000000D+00  0.0000000000000D+00
397  3.9600000000000D+00  0.0000000000000D+00  0.0000000000000D+00
398  3.9700000000000D+00  0.0000000000000D+00  0.0000000000000D+00
399  3.9800000000000D+00  0.0000000000000D+00  0.0000000000000D+00
400  3.9900000000000D+00  0.0000000000000D+00  0.0000000000000D+00
401  4.0000000000000D+00  0.0000000000000D+00  0.0000000000000D+00
402  4.0100000000000D+00  0.0000000000000D+00  0.0000000000000D+00
403  4.0200000000000D+00  0.0000000000000D+00  0.0000000000000D+00
404  4.0300000000000D+00  0.0000000000000D+00  0.0000000000000D+00
405  4.0400000000000D+00  0.0000000000000D+00  0.0000000000000D+00
406  4.0500000000000D+00  0.0000000000000D+00  0.0000000000000D+00
407  4.0600000000000D+00  0.0000000000000D+00  0.0000000000000D+00
408  4.0700000000000D+00  0.0000000000000D+00  0.0000000000000D+00
409  4.0800000000000D+00  0.0000000000000D+00  0.0000000000000D+00
410  4.0900000000000D+00  0.0000000000000D+00  0.0000000000000D+00
411  4.1000000000000D+00  0.0000000000000D+00  0.0000000000000D+00
412  4.1100000000000D+00  0.0000000000000D+00  0.0000000000000D+00
413  4.1200000000000D+00  0.0000000000000D+00  0.0000000000000D+00
414  4.1300000000000D+00  0.0000000000000D+00  0.0000000000000D+00
415  4.1400000000000D+00  0.0000000000000D+00  0.0000000000000D+00
416  4.1500000000000D+00  0.0000000000000D+00  0.0000000000000D+00
417  4.1600000000000D+00  0.0000000000000D+00  0.0000000000000D+00
418  4.1700000000000D+00  0.0000000000000D+00  0.0000000000000D+00
419  4.1800000000000D+00  0.0000000000000D+00  0.0000000000000D+00
420  4.1900000000000D+00  0.0000000000000D+00  0.0000000000000D+00
421  4.2000000000000D+00  0.0000000000000D+00  0.0000000000000D+00
422  4.2100000000000D+00  0.0000000000000D+00  0.0000000000000D+00
423  4.2200000000000D+00  0.0000000000000D+00  0.0000000000000D+00
424  4.2300000000000D+00  0.0000000000000D+00  0.0000000000000D+00
425  4.2400000000000D+00  0.0000000000000D+00  0.0000000000000D+00
426  4.2500000000000D+00  0.0000000000000D+00  0.0000000000000D+00
427  4.2600000000000D+00  0.0000000000000D+00  0.0000000000000D+00
428  4.2700000000000D+00  0.0000000000000D+00  0.0000000000000D+00
429  4.2800000000000D+00  0.0000000000000D+00  0.0000000000000D+00
430  4.2900000000000D+00  0.0000000000000D+00  0.0000000000000D+00
431  4.3000000000000D+00  0.0000000000000D+00  0.0000000000000D+00
432  4.3100000000000D+00  0.0000000000000D+00  0.0000000000000D+00
433  4.3200000000000D+00  0.0000000000000D+00  0.0000000000000D+00
434  4.3300000000000D+00  0.0000000000000D+00  0.0000000000000D+00
435  4.3400000000000D+00  0.0000000000000D+00  0.0000000000000D+00
436  4.3500000000000D+00  0.0000000000000D+00  0.0000000000000D+00
437  4.3600000000000D+00  0.0000000000000D+00  0.0000000000000D+00
438  4.3700000000000D+00  0.0000000000000D+00  0.0000000000000D+00
439  4.3800000000000D+00  0.0000000000000D+00  0.0000000000000D+00
440  4.3900000000000D+00  0.0000000000000D+00  0.0000000000000D+00
441  4.4000000000000D+00  0.0000000000000D+00  0.0000000000000D+00
442  4.4100000000000D+00  0.0000000000000D+00  0.0000000000000D+00
443  4.4200000000000D+00  0.0000000000000D+00  0.0000000000000D+00