Co    ONCVPSP-3.2.3  r_core=   1.26190   1.35552   1.66026
27.0000     17.0000      161006    zatom,zion,pspd
8   -1012   2     4   600     0    pspcod,pspxc,lmax,lloc,mmax,r2well
5.99000000  6.00000000  0.00000000    rchrg fchrg qchrg
2     2     2     0     0    nproj
1     1           extension_switch
0                         6.5314958392268D+00 -5.2701408402223D-01
1  0.0000000000000D+00  1.1001011213096D-10  3.5327190617274D-09
2  1.0000000000000D-02  9.4745004418408D-02  3.2557046579394D-02
3  2.0000000000000D-02  1.8920588975089D-01  6.5118106717266D-02
4  3.0000000000000D-02  2.8309944175205D-01  9.7683897150365D-02
5  4.0000000000000D-02  3.7614425461527D-01  1.3024860413454D-01
6  5.0000000000000D-02  4.6806163205725D-01  1.6279677519888D-01
7  6.0000000000000D-02  5.5857648456061D-01  1.9530039675177D-01
8  7.0000000000000D-02  6.4741822136147D-01  2.2771621528832D-01
9  8.0000000000000D-02  7.3432163565919D-01  2.5998335641544D-01
10  9.0000000000000D-02  8.1902778139188D-01  2.9202129158005D-01
11  1.0000000000000D-01  9.0128483976715D-01  3.2372819731102D-01
12  1.1000000000000D-01  9.8084897356572D-01  3.5497974603228D-01
13  1.2000000000000D-01  1.0574851670493D+00  3.8562836114564D-01
14  1.3000000000000D-01  1.1309680491083D+00  4.1550296220029D-01
15  1.4000000000000D-01  1.2010826970816D+00  4.4440921864881D-01
16  1.5000000000000D-01  1.2676254184776D+00  4.7213032303286D-01
17  1.6000000000000D-01  1.3304045076238D+00  4.9842828654513D-01
18  1.7000000000000D-01  1.3892409740784D+00  5.2304575188091D-01
19  1.8000000000000D-01  1.4439692394569D+00  5.4570831022928D-01
20  1.9000000000000D-01  1.4944377991637D+00  5.6612730126881D-01
21  2.0000000000000D-01  1.5405098453739D+00  5.8400306723154D-01
22  2.1000000000000D-01  1.5820638474988D+00  5.9902862459114D-01
23  2.2000000000000D-01  1.6189940862826D+00  6.1089370981745D-01
24  2.3000000000000D-01  1.6512111376267D+00  6.1928914902232D-01
25  2.4000000000000D-01  1.6786423022315D+00  6.2391149529427D-01
26  2.5000000000000D-01  1.7012319771716D+00  6.2446787217170D-01
27  2.6000000000000D-01  1.7189419656010D+00  6.2068095711524D-01
28  2.7000000000000D-01  1.7317517209039D+00  6.1229403508447D-01
29  2.8000000000000D-01  1.7396585217816D+00  5.9907604946214D-01
30  2.9000000000000D-01  1.7426775749866D+00  5.8082657565512D-01
31  3.0000000000000D-01  1.7408420426857D+00  5.5738064177460D-01
32  3.1000000000000D-01  1.7342029917587D+00  5.2861332088712D-01
33  3.2000000000000D-01  1.7228292627103D+00  4.9444402045179D-01
34  3.3000000000000D-01  1.7068072562895D+00  4.5484039671437D-01
35  3.4000000000000D-01  1.6862406363795D+00  4.0982182501476D-01
36  3.5000000000000D-01  1.6612499482256D+00  3.5946236114709D-01
37  3.6000000000000D-01  1.6319721516151D+00  3.0389313406299D-01
38  3.7000000000000D-01  1.5985600692037D+00  2.4330411627306D-01
39  3.8000000000000D-01  1.5611817507929D+00  1.7794522521943D-01
40  3.9000000000000D-01  1.5200197549961D+00  1.0812671658803D-01
41  4.0000000000000D-01  1.4752703503843D+00  3.4218838915812D-02
42  4.1000000000000D-01  1.4271426388639D+00 -4.3349272167806D-02
43  4.2000000000000D-01  1.3758576047095D+00 -1.2409147225506D-01
44  4.3000000000000D-01  1.3216470933377D+00 -2.0746726137137D-01
45  4.4000000000000D-01  1.2647527245665D+00 -2.9288520432557D-01
46  4.5000000000000D-01  1.2054247457406D+00 -3.7970710021212D-01
47  4.6000000000000D-01  1.1439208307185D+00 -4.6725287285467D-01
48  4.7000000000000D-01  1.0805048312965D+00 -5.5480614389331D-01
49  4.8000000000000D-01  1.0154454881861D+00 -6.4162044040370D-01
50  4.9000000000000D-01  9.4901510915526D-01 -7.2692597952425D-01
51  5.0000000000000D-01  8.8148822238183D-01 -8.0993696369309D-01
52  5.1000000000000D-01  8.1314021344909D-01 -8.8985931188265D-01
53  5.2000000000000D-01  7.4424595472260D-01 -9.6589874478569D-01
54  5.3000000000000D-01  6.7507843609037D-01 -1.0372691353665D+00
55  5.4000000000000D-01  6.0590740621161D-01 -1.1032010306503D+00
56  5.5000000000000D-01  5.3699803350289D-01 -1.1629502461643D+00
57  5.6000000000000D-01  4.6860959609087D-01 -1.2158064311571D+00
58  5.7000000000000D-01  4.0099420987529D-01 -1.2611015006665D+00
59  5.8000000000000D-01  3.3439560367304D-01 -1.2982178297358D+00
60  5.9000000000000D-01  2.6904795015505D-01 -1.3265961056194D+00
61  6.0000000000000D-01  2.0517476094036D-01 -1.3457427357126D+00
62  6.1000000000000D-01  1.4298785378190D-01 -1.3552367121517D+00
63  6.2000000000000D-01  8.2686399264335D-02 -1.3547358385863D+00
64  6.3000000000000D-01  2.4456053842181D-02 -1.3439822304648D+00
65  6.4000000000000D-01 -3.1531814616243D-02 -1.3228070072271D+00
66  6.5000000000000D-01 -8.5120803350323D-02 -1.2911341030765D+00
67  6.6000000000000D-01 -1.3617004865763D-01 -1.2489831323177D+00
68  6.7000000000000D-01 -1.8455469348465D-01 -1.1964712555462D+00
69  6.8000000000000D-01 -2.3016624576607D-01 -1.1338140042017D+00
70  6.9000000000000D-01 -2.7291282555081D-01 -1.0613250329108D+00
71  7.0000000000000D-01 -3.1271929990990D-01 -9.7941478154908D-01
72  7.1000000000000D-01 -3.4952730560027D-01 -8.8858804197315D-01
73  7.2000000000000D-01 -3.8329516044083D-01 -7.8944043762827D-01
74  7.3000000000000D-01 -4.1399766533673D-01 -6.8265383762622D-01
75  7.4000000000000D-01 -4.4162579985555D-01 -5.6899074026265D-01
76  7.5000000000000D-01 -4.6618631519753D-01 -4.4928767402754D-01
77  7.6000000000000D-01 -4.8770122931139D-01 -3.2444767695385D-01
78  7.7000000000000D-01 -5.0620722976664D-01 -1.9543192729686D-01
79  7.8000000000000D-01 -5.2175499079824D-01 -6.3250609986604D-02
80  7.9000000000000D-01 -5.3440841168090D-01  7.1046886141902D-02
81  8.0000000000000D-01 -5.4424378425704D-01  2.0638233581625D-01
82  8.1000000000000D-01 -5.5134889802854D-01  3.4165949662428D-01
83  8.2000000000000D-01 -5.5582209171988D-01  4.7577526023314D-01
84  8.3000000000000D-01 -5.5777126062321D-01  6.0763100999283D-01
85  8.4000000000000D-01 -5.5731282933917D-01  7.3614405526575D-01
86  8.5000000000000D-01 -5.5457069972774D-01  8.6025901028298D-01
87  8.6000000000000D-01 -5.4967518397674D-01  9.7895898442348D-01
88  8.7000000000000D-01 -5.4276193268263D-01  1.0912764515786D+00
89  8.8000000000000D-01 -5.3397086771650D-01  1.1963036687143D+00
90  8.9000000000000D-01 -5.2344512942064D-01  1.2932025178678D+00
91  9.0000000000000D-01 -5.1133004734893D-01  1.3812136515825D+00
92  9.1000000000000D-01 -4.9777214333218D-01  1.4596648291417D+00
93  9.2000000000000D-01 -4.8291817512166D-01  1.5279783398362D+00
94  9.3000000000000D-01 -4.6691422824713D-01  1.5856774197875D+00
95  9.4000000000000D-01 -4.4990486302662D-01  1.6323915804465D+00
96  9.5000000000000D-01 -4.3203232289257D-01  1.6678607796474D+00
97  9.6000000000000D-01 -4.1343580936167D-01  1.6919383798771D+00
98  9.7000000000000D-01 -3.9425082808571D-01  1.7045928530318D+00
99  9.8000000000000D-01 -3.7460860948025D-01  1.7059082063199D+00
100  9.9000000000000D-01 -3.5463560646650D-01  1.6960831196606D+00
101  1.0000000000000D+00 -3.3445307088129D-01  1.6754288008781D+00
102  1.0100000000000D+00 -3.1417670909262D-01  1.6443655814903D+00
103  1.0200000000000D+00 -2.9391641638681D-01  1.6034182915595D+00
104  1.0300000000000D+00 -2.7377608870966D-01  1.5532104678918D+00
105  1.0400000000000D+00 -2.5385350939794D-01  1.4944574649712D+00
106  1.0500000000000D+00 -2.3424030761180D-01  1.4279585526780D+00
107  1.0600000000000D+00 -2.1502198438316D-01  1.3545880973531D+00
108  1.0700000000000D+00 -1.9627800130859D-01  1.2752859365260D+00
109  1.0800000000000D+00 -1.7808192626221D-01  1.1910470675685D+00
110  1.0900000000000D+00 -1.6050162982773D-01  1.1029107806572D+00
111  1.1000000000000D+00 -1.4359952559952D-01  1.0119493743268D+00
112  1.1100000000000D+00 -1.2743284706241D-01  9.1925659805768D-01
113  1.1200000000000D+00 -1.1205395334261D-01  8.2593597161109D-01
114  1.1300000000000D+00 -9.7510655911646D-02  7.3308913298596D-01
115  1.1400000000000D+00 -8.3846558171380D-02  6.4180436744946D-01
116  1.1500000000000D+00 -7.1101399771802D-02  5.5314547017629D-01
117  1.1600000000000D+00 -5.9311397593647D-02  4.6814109106108D-01
118  1.1700000000000D+00 -4.8509575586470D-02  3.8777472178992D-01
119  1.1800000000000D+00 -3.8726075362204D-02  3.1297544950273D-01
120  1.1900000000000D+00 -2.9988440818041D-02  2.4460912946766D-01
121  1.2000000000000D+00 -2.2321871479432D-02  1.8347209915632D-01
122  1.2100000000000D+00 -1.5749438738512D-02  1.3028468210332D-01
123  1.2200000000000D+00 -1.0293483978073D-02  8.5679939952699D-02
124  1.2300000000000D+00 -5.9706154319713D-03  5.0136438267546D-02
125  1.2400000000000D+00 -2.7806070194358D-03  2.3853831719992D-02
126  1.2500000000000D+00 -8.2063277171875D-04  7.8226892550116D-03
127  1.2600000000000D+00 -9.9422472151055D-06  1.1997226984281D-03
128  1.2700000000000D+00  8.2539022326312D-05 -1.7492117373149D-04
129  1.2800000000000D+00 -1.7554049426875D-05  6.1369323912731D-05
130  1.2900000000000D+00 -1.0424905805286D-05  4.2297907587207D-05
131  1.3000000000000D+00  4.8885849572963D-06 -1.4639403305443D-05
132  1.3100000000000D+00 -6.3008162856645D-08 -9.0396883921730D-07
133  1.3200000000000D+00 -8.3399323249545D-08 -1.1965178162856D-06
134  1.3300000000000D+00  0.0000000000000D+00  0.0000000000000D+00
135  1.3400000000000D+00  0.0000000000000D+00  0.0000000000000D+00
136  1.3500000000000D+00  0.0000000000000D+00  0.0000000000000D+00
137  1.3600000000000D+00  0.0000000000000D+00  0.0000000000000D+00
138  1.3700000000000D+00  0.0000000000000D+00  0.0000000000000D+00
139  1.3800000000000D+00  0.0000000000000D+00  0.0000000000000D+00
140  1.3900000000000D+00  0.0000000000000D+00  0.0000000000000D+00
141  1.4000000000000D+00  0.0000000000000D+00  0.0000000000000D+00
142  1.4100000000000D+00  0.0000000000000D+00  0.0000000000000D+00
143  1.4200000000000D+00  0.0000000000000D+00  0.0000000000000D+00
144  1.4300000000000D+00  0.0000000000000D+00  0.0000000000000D+00
145  1.4400000000000D+00  0.0000000000000D+00  0.0000000000000D+00
146  1.4500000000000D+00  0.0000000000000D+00  0.0000000000000D+00
147  1.4600000000000D+00  0.0000000000000D+00  0.0000000000000D+00
148  1.4700000000000D+00  0.0000000000000D+00  0.0000000000000D+00
149  1.4800000000000D+00  0.0000000000000D+00  0.0000000000000D+00
150  1.4900000000000D+00  0.0000000000000D+00  0.0000000000000D+00
151  1.5000000000000D+00  0.0000000000000D+00  0.0000000000000D+00
152  1.5100000000000D+00  0.0000000000000D+00  0.0000000000000D+00
153  1.5200000000000D+00  0.0000000000000D+00  0.0000000000000D+00
154  1.5300000000000D+00  0.0000000000000D+00  0.0000000000000D+00
155  1.5400000000000D+00  0.0000000000000D+00  0.0000000000000D+00
156  1.5500000000000D+00  0.0000000000000D+00  0.0000000000000D+00
157  1.5600000000000D+00  0.0000000000000D+00  0.0000000000000D+00
158  1.5700000000000D+00  0.0000000000000D+00  0.0000000000000D+00
159  1.5800000000000D+00  0.0000000000000D+00  0.0000000000000D+00
160  1.5900000000000D+00  0.0000000000000D+00  0.0000000000000D+00
161  1.6000000000000D+00  0.0000000000000D+00  0.0000000000000D+00
162  1.6100000000000D+00  0.0000000000000D+00  0.0000000000000D+00
163  1.6200000000000D+00  0.0000000000000D+00  0.0000000000000D+00
164  1.6300000000000D+00  0.0000000000000D+00  0.0000000000000D+00
165  1.6400000000000D+00  0.0000000000000D+00  0.0000000000000D+00
166  1.6500000000000D+00  0.0000000000000D+00  0.0000000000000D+00
167  1.6600000000000D+00  0.0000000000000D+00  0.0000000000000D+00
168  1.6700000000000D+00  0.0000000000000D+00  0.0000000000000D+00
169  1.6800000000000D+00  0.0000000000000D+00  0.0000000000000D+00
170  1.6900000000000D+00  0.0000000000000D+00  0.0000000000000D+00
171  1.7000000000000D+00  0.0000000000000D+00  0.0000000000000D+00
172  1.7100000000000D+00  0.0000000000000D+00  0.0000000000000D+00
173  1.7200000000000D+00  0.0000000000000D+00  0.0000000000000D+00
174  1.7300000000000D+00  0.0000000000000D+00  0.0000000000000D+00
175  1.7400000000000D+00  0.0000000000000D+00  0.0000000000000D+00
176  1.7500000000000D+00  0.0000000000000D+00  0.0000000000000D+00
177  1.7600000000000D+00  0.0000000000000D+00  0.0000000000000D+00
178  1.7700000000000D+00  0.0000000000000D+00  0.0000000000000D+00
179  1.7800000000000D+00  0.0000000000000D+00  0.0000000000000D+00
180  1.7900000000000D+00  0.0000000000000D+00  0.0000000000000D+00
181  1.8000000000000D+00  0.0000000000000D+00  0.0000000000000D+00
182  1.8100000000000D+00  0.0000000000000D+00  0.0000000000000D+00
183  1.8200000000000D+00  0.0000000000000D+00  0.0000000000000D+00
184  1.8300000000000D+00  0.0000000000000D+00  0.0000000000000D+00
185  1.8400000000000D+00  0.0000000000000D+00  0.0000000000000D+00
186  1.8500000000000D+00  0.0000000000000D+00  0.0000000000000D+00
187  1.8600000000000D+00  0.0000000000000D+00  0.0000000000000D+00
188  1.8700000000000D+00  0.0000000000000D+00  0.0000000000000D+00
189  1.8800000000000D+00  0.0000000000000D+00  0.0000000000000D+00
190  1.8900000000000D+00  0.0000000000000D+00  0.0000000000000D+00
191  1.9000000000000D+00  0.0000000000000D+00  0.0000000000000D+00
192  1.9100000000000D+00  0.0000000000000D+00  0.0000000000000D+00
193  1.9200000000000D+00  0.0000000000000D+00  0.0000000000000D+00
194  1.9300000000000D+00  0.0000000000000D+00  0.0000000000000D+00
195  1.9400000000000D+00  0.0000000000000D+00  0.0000000000000D+00
196  1.9500000000000D+00  0.0000000000000D+00  0.0000000000000D+00
197  1.9600000000000D+00  0.0000000000000D+00  0.0000000000000D+00
198  1.9700000000000D+00  0.0000000000000D+00  0.0000000000000D+00
199  1.9800000000000D+00  0.0000000000000D+00  0.0000000000000D+00
200  1.9900000000000D+00  0.0000000000000D+00  0.0000000000000D+00
201  2.0000000000000D+00  0.0000000000000D+00  0.0000000000000D+00
202  2.0100000000000D+00  0.0000000000000D+00  0.0000000000000D+00
203  2.0200000000000D+00  0.0000000000000D+00  0.0000000000000D+00
204  2.0300000000000D+00  0.0000000000000D+00  0.0000000000000D+00
205  2.0400000000000D+00  0.0000000000000D+00  0.0000000000000D+00
206  2.0500000000000D+00  0.0000000000000D+00  0.0000000000000D+00
207  2.0600000000000D+00  0.0000000000000D+00  0.0000000000000D+00
208  2.0700000000000D+00  0.0000000000000D+00  0.0000000000000D+00
209  2.0800000000000D+00  0.0000000000000D+00  0.0000000000000D+00
210  2.0900000000000D+00  0.0000000000000D+00  0.0000000000000D+00
211  2.1000000000000D+00  0.0000000000000D+00  0.0000000000000D+00
212  2.1100000000000D+00  0.0000000000000D+00  0.0000000000000D+00
213  2.1200000000000D+00  0.0000000000000D+00  0.0000000000000D+00
214  2.1300000000000D+00  0.0000000000000D+00  0.0000000000000D+00
215  2.1400000000000D+00  0.0000000000000D+00  0.0000000000000D+00
216  2.1500000000000D+00  0.0000000000000D+00  0.0000000000000D+00
217  2.1600000000000D+00  0.0000000000000D+00  0.0000000000000D+00
218  2.1700000000000D+00  0.0000000000000D+00  0.0000000000000D+00
219  2.1800000000000D+00  0.0000000000000D+00  0.0000000000000D+00
220  2.1900000000000D+00  0.0000000000000D+00  0.0000000000000D+00
221  2.2000000000000D+00  0.0000000000000D+00  0.0000000000000D+00
222  2.2100000000000D+00  0.0000000000000D+00  0.0000000000000D+00
223  2.2200000000000D+00  0.0000000000000D+00  0.0000000000000D+00
224  2.2300000000000D+00  0.0000000000000D+00  0.0000000000000D+00
225  2.2400000000000D+00  0.0000000000000D+00  0.0000000000000D+00
226  2.2500000000000D+00  0.0000000000000D+00  0.0000000000000D+00
227  2.2600000000000D+00  0.0000000000000D+00  0.0000000000000D+00
228  2.2700000000000D+00  0.0000000000000D+00  0.0000000000000D+00
229  2.2800000000000D+00  0.0000000000000D+00  0.0000000000000D+00
230  2.2900000000000D+00  0.0000000000000D+00  0.0000000000000D+00
231  2.3000000000000D+00  0.0000000000000D+00  0.0000000000000D+00
232  2.3100000000000D+00  0.0000000000000D+00  0.0000000000000D+00
233  2.3200000000000D+00  0.0000000000000D+00  0.0000000000000D+00
234  2.3300000000000D+00  0.0000000000000D+00  0.0000000000000D+00
235  2.3400000000000D+00  0.0000000000000D+00  0.0000000000000D+00
236  2.3500000000000D+00  0.0000000000000D+00  0.0000000000000D+00
237  2.3600000000000D+00  0.0000000000000D+00  0.0000000000000D+00
238  2.3700000000000D+00  0.0000000000000D+00  0.0000000000000D+00
239  2.3800000000000D+00  0.0000000000000D+00  0.0000000000000D+00
240  2.3900000000000D+00  0.0000000000000D+00  0.0000000000000D+00
241  2.4000000000000D+00  0.0000000000000D+00  0.0000000000000D+00
242  2.4100000000000D+00  0.0000000000000D+00  0.0000000000000D+00
243  2.4200000000000D+00  0.0000000000000D+00  0.0000000000000D+00
244  2.4300000000000D+00  0.0000000000000D+00  0.0000000000000D+00
245  2.4400000000000D+00  0.0000000000000D+00  0.0000000000000D+00
246  2.4500000000000D+00  0.0000000000000D+00  0.0000000000000D+00
247  2.4600000000000D+00  0.0000000000000D+00  0.0000000000000D+00
248  2.4700000000000D+00  0.0000000000000D+00  0.0000000000000D+00
249  2.4800000000000D+00  0.0000000000000D+00  0.0000000000000D+00
250  2.4900000000000D+00  0.0000000000000D+00  0.0000000000000D+00
251  2.5000000000000D+00  0.0000000000000D+00  0.0000000000000D+00
252  2.5100000000000D+00  0.0000000000000D+00  0.0000000000000D+00
253  2.5200000000000D+00  0.0000000000000D+00  0.0000000000000D+00
254  2.5300000000000D+00  0.0000000000000D+00  0.0000000000000D+00
255  2.5400000000000D+00  0.0000000000000D+00  0.0000000000000D+00
256  2.5500000000000D+00  0.0000000000000D+00  0.0000000000000D+00
257  2.5600000000000D+00  0.0000000000000D+00  0.0000000000000D+00
258  2.5700000000000D+00  0.0000000000000D+00  0.0000000000000D+00
259  2.5800000000000D+00  0.0000000000000D+00  0.0000000000000D+00
260  2.5900000000000D+00  0.0000000000000D+00  0.0000000000000D+00
261  2.6000000000000D+00  0.0000000000000D+00  0.0000000000000D+00
262  2.6100000000000D+00  0.0000000000000D+00  0.0000000000000D+00
263  2.6200000000000D+00  0.0000000000000D+00  0.0000000000000D+00
264  2.6300000000000D+00  0.0000000000000D+00  0.0000000000000D+00
265  2.6400000000000D+00  0.0000000000000D+00  0.0000000000000D+00
266  2.6500000000000D+00  0.0000000000000D+00  0.0000000000000D+00
267  2.6600000000000D+00  0.0000000000000D+00  0.0000000000000D+00
268  2.6700000000000D+00  0.0000000000000D+00  0.0000000000000D+00
269  2.6800000000000D+00  0.0000000000000D+00  0.0000000000000D+00
270  2.6900000000000D+00  0.0000000000000D+00  0.0000000000000D+00
271  2.7000000000000D+00  0.0000000000000D+00  0.0000000000000D+00
272  2.7100000000000D+00  0.0000000000000D+00  0.0000000000000D+00
273  2.7200000000000D+00  0.0000000000000D+00  0.0000000000000D+00
274  2.7300000000000D+00  0.0000000000000D+00  0.0000000000000D+00
275  2.7400000000000D+00  0.0000000000000D+00  0.0000000000000D+00
276  2.7500000000000D+00  0.0000000000000D+00  0.0000000000000D+00
277  2.7600000000000D+00  0.0000000000000D+00  0.0000000000000D+00
278  2.7700000000000D+00  0.0000000000000D+00  0.0000000000000D+00
279  2.7800000000000D+00  0.0000000000000D+00  0.0000000000000D+00
280  2.7900000000000D+00  0.0000000000000D+00  0.0000000000000D+00
281  2.8000000000000D+00  0.0000000000000D+00  0.0000000000000D+00
282  2.8100000000000D+00  0.0000000000000D+00  0.0000000000000D+00
283  2.8200000000000D+00  0.0000000000000D+00  0.0000000000000D+00
284  2.8300000000000D+00  0.0000000000000D+00  0.0000000000000D+00
285  2.8400000000000D+00  0.0000000000000D+00  0.0000000000000D+00
286  2.8500000000000D+00  0.0000000000000D+00  0.0000000000000D+00
287  2.8600000000000D+00  0.0000000000000D+00  0.0000000000000D+00
288  2.8700000000000D+00  0.0000000000000D+00  0.0000000000000D+00
289  2.8800000000000D+00  0.0000000000000D+00  0.0000000000000D+00
290  2.8900000000000D+00  0.0000000000000D+00  0.0000000000000D+00
291  2.9000000000000D+00  0.0000000000000D+00  0.0000000000000D+00
292  2.9100000000000D+00  0.0000000000000D+00  0.0000000000000D+00
293  2.9200000000000D+00  0.0000000000000D+00  0.0000000000000D+00
294  2.9300000000000D+00  0.0000000000000D+00  0.0000000000000D+00
295  2.9400000000000D+00  0.0000000000000D+00  0.0000000000000D+00
296  2.9500000000000D+00  0.0000000000000D+00  0.0000000000000D+00
297  2.9600000000000D+00  0.0000000000000D+00  0.0000000000000D+00
298  2.9700000000000D+00  0.0000000000000D+00  0.0000000000000D+00
299  2.9800000000000D+00  0.0000000000000D+00  0.0000000000000D+00
300  2.9900000000000D+00  0.0000000000000D+00  0.0000000000000D+00
301  3.0000000000000D+00  0.0000000000000D+00  0.0000000000000D+00
302  3.0100000000000D+00  0.0000000000000D+00  0.0000000000000D+00
303  3.0200000000000D+00  0.0000000000000D+00  0.0000000000000D+00
304  3.0300000000000D+00  0.0000000000000D+00  0.0000000000000D+00
305  3.0400000000000D+00  0.0000000000000D+00  0.0000000000000D+00
306  3.0500000000000D+00  0.0000000000000D+00  0.0000000000000D+00
307  3.0600000000000D+00  0.0000000000000D+00  0.0000000000000D+00
308  3.0700000000000D+00  0.0000000000000D+00  0.0000000000000D+00
309  3.0800000000000D+00  0.0000000000000D+00  0.0000000000000D+00
310  3.0900000000000D+00  0.0000000000000D+00  0.0000000000000D+00
311  3.1000000000000D+00  0.0000000000000D+00  0.0000000000000D+00
312  3.1100000000000D+00  0.0000000000000D+00  0.0000000000000D+00
313  3.1200000000000D+00  0.0000000000000D+00  0.0000000000000D+00
314  3.1300000000000D+00  0.0000000000000D+00  0.0000000000000D+00
315  3.1400000000000D+00  0.0000000000000D+00  0.0000000000000D+00
316  3.1500000000000D+00  0.0000000000000D+00  0.0000000000000D+00
317  3.1600000000000D+00  0.0000000000000D+00  0.0000000000000D+00
318  3.1700000000000D+00  0.0000000000000D+00  0.0000000000000D+00
319  3.1800000000000D+00  0.0000000000000D+00  0.0000000000000D+00
320  3.1900000000000D+00  0.0000000000000D+00  0.0000000000000D+00
321  3.2000000000000D+00  0.0000000000000D+00  0.0000000000000D+00
322  3.2100000000000D+00  0.0000000000000D+00  0.0000000000000D+00
323  3.2200000000000D+00  0.0000000000000D+00  0.0000000000000D+00
324  3.2300000000000D+00  0.0000000000000D+00  0.0000000000000D+00
325  3.2400000000000D+00  0.0000000000000D+00  0.0000000000000D+00
326  3.2500000000000D+00  0.0000000000000D+00  0.0000000000000D+00
327  3.2600000000000D+00  0.0000000000000D+00  0.0000000000000D+00
328  3.2700000000000D+00  0.0000000000000D+00  0.0000000000000D+00
329  3.2800000000000D+00  0.0000000000000D+00  0.0000000000000D+00
330  3.2900000000000D+00  0.0000000000000D+00  0.0000000000000D+00
331  3.3000000000000D+00  0.0000000000000D+00  0.0000000000000D+00
332  3.3100000000000D+00  0.0000000000000D+00  0.0000000000000D+00
333  3.3200000000000D+00  0.0000000000000D+00  0.0000000000000D+00
334  3.3300000000000D+00  0.0000000000000D+00  0.0000000000000D+00
335  3.3400000000000D+00  0.0000000000000D+00  0.0000000000000D+00
336  3.3500000000000D+00  0.0000000000000D+00  0.0000000000000D+00
337  3.3600000000000D+00  0.0000000000000D+00  0.0000000000000D+00
338  3.3700000000000D+00  0.0000000000000D+00  0.0000000000000D+00
339  3.3800000000000D+00  0.0000000000000D+00  0.0000000000000D+00
340  3.3900000000000D+00  0.0000000000000D+00  0.0000000000000D+00
341  3.4000000000000D+00  0.0000000000000D+00  0.0000000000000D+00
342  3.4100000000000D+00  0.0000000000000D+00  0.0000000000000D+00
343  3.4200000000000D+00  0.0000000000000D+00  0.0000000000000D+00
344  3.4300000000000D+00  0.0000000000000D+00  0.0000000000000D+00
345  3.4400000000000D+00  0.0000000000000D+00  0.0000000000000D+00
346  3.4500000000000D+00  0.0000000000000D+00  0.0000000000000D+00
347  3.4600000000000D+00  0.0000000000000D+00  0.0000000000000D+00
348  3.4700000000000D+00  0.0000000000000D+00  0.0000000000000D+00
349  3.4800000000000D+00  0.0000000000000D+00  0.0000000000000D+00
350  3.4900000000000D+00  0.0000000000000D+00  0.0000000000000D+00
351  3.5000000000000D+00  0.0000000000000D+00  0.0000000000000D+00
352  3.5100000000000D+00  0.0000000000000D+00  0.0000000000000D+00
353  3.5200000000000D+00  0.0000000000000D+00  0.0000000000000D+00
354  3.5300000000000D+00  0.0000000000000D+00  0.0000000000000D+00
355  3.5400000000000D+00  0.0000000000000D+00  0.0000000000000D+00
356  3.5500000000000D+00  0.0000000000000D+00  0.0000000000000D+00
357  3.5600000000000D+00  0.0000000000000D+00  0.0000000000000D+00
358  3.5700000000000D+00  0.0000000000000D+00  0.0000000000000D+00
359  3.5800000000000D+00  0.0000000000000D+00  0.0000000000000D+00
360  3.5900000000000D+00  0.0000000000000D+00  0.0000000000000D+00
361  3.6000000000000D+00  0.0000000000000D+00  0.0000000000000D+00
362  3.6100000000000D+00  0.0000000000000D+00  0.0000000000000D+00
363  3.6200000000000D+00  0.0000000000000D+00  0.0000000000000D+00
364  3.6300000000000D+00  0.0000000000000D+00  0.0000000000000D+00
365  3.6400000000000D+00  0.0000000000000D+00  0.0000000000000D+00
366  3.6500000000000D+00  0.0000000000000D+00  0.0000000000000D+00
367  3.6600000000000D+00  0.0000000000000D+00  0.0000000000000D+00
368  3.6700000000000D+00  0.0000000000000D+00  0.0000000000000D+00
369  3.6800000000000D+00  0.0000000000000D+00  0.0000000000000D+00
370  3.6900000000000D+00  0.0000000000000D+00  0.0000000000000D+00
371  3.7000000000000D+00  0.0000000000000D+00  0.0000000000000D+00
372  3.7100000000000D+00  0.0000000000000D+00  0.0000000000000D+00
373  3.7200000000000D+00  0.0000000000000D+00  0.0000000000000D+00
374  3.7300000000000D+00  0.0000000000000D+00  0.0000000000000D+00
375  3.7400000000000D+00  0.0000000000000D+00  0.0000000000000D+00
376  3.7500000000000D+00  0.0000000000000D+00  0.0000000000000D+00
377  3.7600000000000D+00  0.0000000000000D+00  0.0000000000000D+00
378  3.7700000000000D+00  0.0000000000000D+00  0.0000000000000D+00
379  3.7800000000000D+00  0.0000000000000D+00  0.0000000000000D+00
380  3.7900000000000D+00  0.0000000000000D+00  0.0000000000000D+00
381  3.8000000000000D+00  0.0000000000000D+00  0.0000000000000D+00
382  3.8100000000000D+00  0.0000000000000D+00  0.0000000000000D+00
383  3.8200000000000D+00  0.0000000000000D+00  0.0000000000000D+00
384  3.8300000000000D+00  0.0000000000000D+00  0.0000000000000D+00
385  3.8400000000000D+00  0.0000000000000D+00  0.0000000000000D+00
386  3.8500000000000D+00  0.0000000000000D+00  0.0000000000000D+00
387  3.8600000000000D+00  0.0000000000000D+00  0.0000000000000D+00
388  3.8700000000000D+00  0.0000000000000D+00  0.0000000000000D+00
389  3.8800000000000D+00  0.0000000000000D+00  0.0000000000000D+00
390  3.8900000000000D+00  0.0000000000000D+00  0.0000000000000D+00
391  3.9000000000000D+00  0.0000000000000D+00  0.0000000000000D+00
392  3.9100000000000D+00  0.0000000000000D+00  0.0000000000000D+00
393  3.9200000000000D+00  0.0000000000000D+00  0.0000000000000D+00
394  3.9300000000000D+00  0.0000000000000D+00  0.0000000000000D+00
395  3.9400000000000D+00  0.0000000000000D+00  0.0000000000000D+00
396  3.9500000000000D+00  0.0000000000000D+00  0.0000000000000D+00
397  3.9600000000000D+00  0.0000000000000D+00  0.0000000000000D+00
398  3.9700000000000D+00  0.0000000000000D+00  0.0000000000000D+00
399  3.9800000000000D+00  0.0000000000000D+00  0.0000000000000D+00
400  3.9900000000000D+00  0.0000000000000D+00  0.0000000000000D+00
401  4.0000000000000D+00  0.0000000000000D+00  0.0000000000000D+00
402  4.0100000000000D+00  0.0000000000000D+00  0.0000000000000D+00
403  4.0200000000000D+00  0.0000000000000D+00  0.0000000000000D+00
404  4.0300000000000D+00  0.0000000000000D+00  0.0000000000000D+00
405  4.0400000000000D+00  0.0000000000000D+00  0.0000000000000D+00
406  4.0500000000000D+00  0.0000000000000D+00  0.0000000000000D+00
407  4.0600000000000D+00  0.0000000000000D+00  0.0000000000000D+00
408  4.0700000000000D+00  0.0000000000000D+00  0.0000000000000D+00
409  4.0800000000000D+00  0.0000000000000D+00  0.0000000000000D+00
410  4.0900000000000D+00  0.0000000000000D+00  0.0000000000000D+00
411  4.1000000000000D+00  0.0000000000000D+00  0.0000000000000D+00
412  4.1100000000000D+00  0.0000000000000D+00  0.0000000000000D+00
413  4.1200000000000D+00  0.0000000000000D+00  0.0000000000000D+00
414  4.1300000000000D+00  0.0000000000000D+00  0.0000000000000D+00
415  4.1400000000000D+00  0.0000000000000D+00  0.0000000000000D+00
416  4.1500000000000D+00  0.0000000000000D+00  0.0000000000000D+00
417  4.1600000000000D+00  0.0000000000000D+00  0.0000000000000D+00
418  4.1700000000000D+00  0.0000000000000D+00  0.0000000000000D+00
419  4.1800000000000D+00  0.0000000000000D+00  0.0000000000000D+00
420  4.1900000000000D+00  0.0000000000000D+00  0.0000000000000D+00
421  4.2000000000000D+00  0.0000000000000D+00  0.0000000000000D+00
422  4.2100000000000D+00  0.0000000000000D+00  0.0000000000000D+00
423  4.2200000000000D+00  0.0000000000000D+00  0.0000000000000D+00
424  4.2300000000000D+00  0.0000000000000D+00  0.0000000000000D+00
425  4.2400000000000D+00  0.0000000000000D+00  0.0000000000000D+00
426  4.2500000000000D+00  0.0000000000000D+00  0.0000000000000D+00
427  4.2600000000000D+00  0.0000000000000D+00  0.0000000000000D+00
428  4.2700000000000D+00  0.0000000000000D+00  0.0000000000000D+00
429  4.2800000000000D+00  0.0000000000000D+00  0.0000000000000D+00
430  4.2900000000000D+00  0.0000000000000D+00  0.0000000000000D+00
431  4.3000000000000D+00  0.0000000000000D+00  0.0000000000000D+00
432  4.3100000000000D+00  0.0000000000000D+00  0.0000000000000D+00
433  4.3200000000000D+00  0.0000000000000D+00  0.0000000000000D+00
434  4.3300000000000D+00  0.0000000000000D+00  0.0000000000000D+00
435  4.3400000000000D+00  0.0000000000000D+00  0.0000000000000D+00
436  4.3500000000000D+00  0.0000000000000D+00  0.0000000000000D+00
437  4.3600000000000D+00  0.0000000000000D+00  0.0000000000000D+00
438  4.3700000000000D+00  0.0000000000000D+00  0.0000000000000D+00
439  4.3800000000000D+00  0.0000000000000D+00  0.0000000000000D+00
440  4.3900000000000D+00  0.0000000000000D+00  0.0000000000000D+00
441  4.4000000000000D+00  0.0000000000000D+00  0.0000000000000D+00
442  4.4100000000000D+00  0.0000000000000D+00  0.0000000000000D+00
443  4.4200000000000D+00  0.0000000000000D+00  0.0000000000000D+00