Mg    ONCVPSP  r_core=  1.16  1.66
     12.0000     10.0000      141003    zatom,zion,pspd
     8    11     1     4   401     0    pspcod,pspxc,lmax,lloc,mmax,r2well
  4.00000000  0.00000000  0.00000000    rchrg fchrg qchrg
     2     2     0     0     0    nproj
     0                 extension_switch
   0                         2.1158925690454D+00 -8.1222340707288D-01
     1  0.0000000000000D+00  0.0000000000000D+00  0.0000000000000D+00
     2  1.0000000000000D-02  1.2456541345462D-01  2.7630442569534D-02
     3  2.0000000000000D-02  2.4756595874094D-01  5.5303690202200D-02
     4  3.0000000000000D-02  3.6746929118922D-01  8.3062133553363D-02
     5  4.0000000000000D-02  4.8280737647702D-01  1.1094733534774D-01
     6  5.0000000000000D-02  5.9220682078922D-01  1.3899961867303D-01
     7  6.0000000000000D-02  6.9441705711437D-01  1.6725765811352D-01
     8  7.0000000000000D-02  7.8833574884995D-01  1.9575807488144D-01
     9  8.0000000000000D-02  8.7303083475671D-01  2.2453503727427D-01
    10  9.0000000000000D-02  9.4775871493576D-01  2.5361986799361D-01
    11  1.0000000000000D-01  1.0119781651996D+00  2.8304066007835D-01
    12  1.1000000000000D-01  1.0653596629761D+00  3.1282190346640D-01
    13  1.2000000000000D-01  1.1077899125570D+00  3.4298412443274D-01
    14  1.3000000000000D-01  1.1393714657263D+00  3.7354354042957D-01
    15  1.4000000000000D-01  1.1604174454129D+00  4.0451173301845D-01
    16  1.5000000000000D-01  1.1714414911331D+00  4.3589534196651D-01
    17  1.6000000000000D-01  1.1731431521784D+00  4.6769578349003D-01
    18  1.7000000000000D-01  1.1663890655595D+00  4.9990899617927D-01
    19  1.8000000000000D-01  1.1521903401271D+00  5.3252521772025D-01
    20  1.9000000000000D-01  1.1316766570339D+00  5.6552879594135D-01
    21  2.0000000000000D-01  1.1060677016594D+00  5.9889803784173D-01
    22  2.1000000000000D-01  1.0766425463416D+00  6.3260509945300D-01
    23  2.2000000000000D-01  1.0447077207623D+00  6.6661592009628D-01
    24  2.3000000000000D-01  1.0115646590292D+00  7.0089020359996D-01
    25  2.4000000000000D-01  9.7847732689571D-01  7.3538144940679D-01
    26  2.5000000000000D-01  9.4664077142410D-01  7.7003703547195D-01
    27  2.6000000000000D-01  9.1715118769312D-01  8.0479835480885D-01
    28  2.7000000000000D-01  8.9097846633841D-01  8.3960100704636D-01
    29  2.8000000000000D-01  8.6894165218497D-01  8.7437504523849D-01
    30  2.9000000000000D-01  8.5168792199563D-01  9.0904527829094D-01
    31  3.0000000000000D-01  8.3967564692872D-01  9.4353162825134D-01
    32  3.1000000000000D-01  8.3316192560615D-01  9.7774954111788D-01
    33  3.2000000000000D-01  8.3219491718242D-01  1.0116104489216D+00
    34  3.3000000000000D-01  8.3661129434632D-01  1.0450222761295D+00
    35  3.4000000000000D-01  8.4603820815090D-01  1.0778900047667D+00
    36  3.5000000000000D-01  8.5990130108037D-01  1.1101162548332D+00
    37  3.6000000000000D-01  8.7743658856762D-01  1.1416019338185D+00
    38  3.7000000000000D-01  8.9770784146079D-01  1.1722468786132D+00
    39  3.8000000000000D-01  9.1962775770111D-01  1.2019505547825D+00
    40  3.9000000000000D-01  9.4198330044336D-01  1.2306127567997D+00
    41  4.0000000000000D-01  9.6346419014320D-01  1.2581343151829D+00
    42  4.1000000000000D-01  9.8269412928084D-01  1.2844178151670D+00
    43  4.2000000000000D-01  9.9826404339443D-01  1.3093683081946D+00
    44  4.3000000000000D-01  1.0087665855534D+00  1.3328940112083D+00
    45  4.4000000000000D-01  1.0128311322153D+00  1.3549069863539D+00
    46  4.5000000000000D-01  1.0091584844773D+00  1.3753237937832D+00
    47  4.6000000000000D-01  9.9655448413858D-01  1.3940661103215D+00
    48  4.7000000000000D-01  9.7396175906199D-01  1.4110613068521D+00
    49  4.8000000000000D-01  9.4048878013180D-01  1.4262429761568D+00
    50  4.9000000000000D-01  8.9543476868957D-01  1.4395513865715D+00
    51  5.0000000000000D-01  8.3831474765059D-01  1.4509339764297D+00
    52  5.1000000000000D-01  7.6887431857227D-01  1.4603456407268D+00
    53  5.2000000000000D-01  6.8710148671381D-01  1.4677490005299D+00
    54  5.3000000000000D-01  5.9323864916110D-01  1.4731147344491D+00
    55  5.4000000000000D-01  4.8778056905461D-01  1.4764216296298D+00
    56  5.5000000000000D-01  3.7147206817267D-01  1.4776566842304D+00
    57  5.6000000000000D-01  2.4530148334137D-01  1.4768151885263D+00
    58  5.7000000000000D-01  1.1048250688269D-01  1.4739005428176D+00
    59  5.8000000000000D-01 -3.1560682956021D-02  1.4689242826155D+00
    60  5.9000000000000D-01 -1.7922083247052D-01  1.4619057512330D+00
    61  6.0000000000000D-01 -3.3073372478941D-01  1.4528719575208D+00
    62  6.1000000000000D-01 -4.8421085082810D-01  1.4418572223711D+00
    63  6.2000000000000D-01 -6.3767304321686D-01  1.4289028196984D+00
    64  6.3000000000000D-01 -7.8909025575531D-01  1.4140566305507D+00
    65  6.4000000000000D-01 -9.3641647070838D-01  1.3973726572688D+00
    66  6.5000000000000D-01 -1.0776299247376D+00  1.3789105930520D+00
    67  6.6000000000000D-01 -1.2107763745976D+00  1.3587353156300D+00
    68  6.7000000000000D-01 -1.3340016624102D+00  1.3369163944394D+00
    69  6.8000000000000D-01 -1.4455862135059D+00  1.3135276095472D+00
    70  6.9000000000000D-01 -1.5439879825121D+00  1.2886463705233D+00
    71  7.0000000000000D-01 -1.6278663618459D+00  1.2623532468397D+00
    72  7.1000000000000D-01 -1.6961081523665D+00  1.2347314796977D+00
    73  7.2000000000000D-01 -1.7478503736552D+00  1.2058664967194D+00
    74  7.3000000000000D-01 -1.7824939811075D+00  1.1758454991070D+00
    75  7.4000000000000D-01 -1.7997252828302D+00  1.1447569066028D+00
    76  7.5000000000000D-01 -1.7995127447939D+00  1.1126900676986D+00
    77  7.6000000000000D-01 -1.7821087597998D+00  1.0797348825629D+00
    78  7.7000000000000D-01 -1.7480445445583D+00  1.0459814737816D+00
    79  7.8000000000000D-01 -1.6981188565465D+00  1.0115199037261D+00
    80  7.9000000000000D-01 -1.6333813071863D+00  9.7643993294045D-01
    81  8.0000000000000D-01 -1.5551106361966D+00  9.4083081974301D-01
    82  8.1000000000000D-01 -1.4647884237079D+00  9.0478116041164D-01
    83  8.2000000000000D-01 -1.3640688167005D+00  8.6837876854985D-01
    84  8.3000000000000D-01 -1.2547449324420D+00  8.3171059152161D-01
    85  8.4000000000000D-01 -1.1387126722695D+00  7.9486266121181D-01
    86  8.5000000000000D-01 -1.0179327331655D+00  7.5792007582439D-01
    87  8.6000000000000D-01 -8.9439164142339D-01  7.2096700897548D-01
    88  8.7000000000000D-01 -7.7006265194885D-01  6.8408674198007D-01
    89  8.8000000000000D-01 -6.4686735830183D-01  6.4736171496622D-01
    90  8.9000000000000D-01 -5.2663884249093D-01  6.1087359228366D-01
    91  9.0000000000000D-01 -4.1108715988250D-01  5.7470333759996D-01
    92  9.1000000000000D-01 -3.0176790346631D-01  5.3893129409995D-01
    93  9.2000000000000D-01 -2.0005452323151D-01  5.0363726531954D-01
    94  9.3000000000000D-01 -1.0711499075583D-01  4.6890059235547D-01
    95  9.4000000000000D-01 -2.3893296805010D-02  4.3480022349603D-01
    96  9.5000000000000D-01  4.8903848132884D-02  4.0141477271355D-01
    97  9.6000000000000D-01  1.1081487185831D-01  3.6882256394262D-01
    98  9.7000000000000D-01  1.6162333431061D-01  3.3710167328906D-01
    99  9.8000000000000D-01  2.0135638873189D-01  3.0632993545100D-01
   100  9.9000000000000D-01  2.3028830648837D-01  2.7658485216046D-01
   101  1.0000000000000D+00  2.4890902856088D-01  2.4794366219626D-01
   102  1.0100000000000D+00  2.5791160877190D-01  2.2048324795913D-01
   103  1.0200000000000D+00  2.5816917480099D-01  1.9428005829422D-01
   104  1.0300000000000D+00  2.5070831818490D-01  1.6941001419990D-01
   105  1.0400000000000D+00  2.3668056704448D-01  1.4594850188879D-01
   106  1.0500000000000D+00  2.1733503163700D-01  1.2396990086394D-01
   107  1.0600000000000D+00  1.9397249817898D-01  1.0354773238437D-01
   108  1.0700000000000D+00  1.6791631139724D-01  8.4754402007195D-02
   109  1.0800000000000D+00  1.4048072579837D-01  6.7661053556472D-02
   110  1.0900000000000D+00  1.1294785093005D-01  5.2337498983296D-02
   111  1.1000000000000D+00  8.6499283289493D-02  3.8851502626082D-02
   112  1.1100000000000D+00  6.2216632815287D-02  2.7269126500360D-02
   113  1.1200000000000D+00  4.1046122022335D-02  1.7653414678623D-02
   114  1.1300000000000D+00  2.3800885181692D-02  1.0063949748586D-02
   115  1.1400000000000D+00  1.1048074079520D-02  4.5531028246660D-03
   116  1.1500000000000D+00  3.3455877346723D-03  1.2419463906179D-03
   117  1.1600000000000D+00  4.0275418835531D-04 -2.2231548886929D-05
   118  1.1700000000000D+00 -1.3913689331731D-04 -1.2048623544754D-04
   119  1.1800000000000D+00 -2.1925716089020D-05  3.4328443074748D-06
   120  1.1900000000000D+00  0.0000000000000D+00  0.0000000000000D+00
   121  1.2000000000000D+00  0.0000000000000D+00  0.0000000000000D+00
   122  1.2100000000000D+00  0.0000000000000D+00  0.0000000000000D+00
   123  1.2200000000000D+00  0.0000000000000D+00  0.0000000000000D+00
   124  1.2300000000000D+00  0.0000000000000D+00  0.0000000000000D+00
   125  1.2400000000000D+00  0.0000000000000D+00  0.0000000000000D+00
   126  1.2500000000000D+00  0.0000000000000D+00  0.0000000000000D+00
   127  1.2600000000000D+00  0.0000000000000D+00  0.0000000000000D+00
   128  1.2700000000000D+00  0.0000000000000D+00  0.0000000000000D+00
   129  1.2800000000000D+00  0.0000000000000D+00  0.0000000000000D+00
   130  1.2900000000000D+00  0.0000000000000D+00  0.0000000000000D+00
   131  1.3000000000000D+00  0.0000000000000D+00  0.0000000000000D+00
   132  1.3100000000000D+00  0.0000000000000D+00  0.0000000000000D+00
   133  1.3200000000000D+00  0.0000000000000D+00  0.0000000000000D+00
   134  1.3300000000000D+00  0.0000000000000D+00  0.0000000000000D+00
   135  1.3400000000000D+00  0.0000000000000D+00  0.0000000000000D+00
   136  1.3500000000000D+00  0.0000000000000D+00  0.0000000000000D+00
   137  1.3600000000000D+00  0.0000000000000D+00  0.0000000000000D+00
   138  1.3700000000000D+00  0.0000000000000D+00  0.0000000000000D+00
   139  1.3800000000000D+00  0.0000000000000D+00  0.0000000000000D+00
   140  1.3900000000000D+00  0.0000000000000D+00  0.0000000000000D+00
   141  1.4000000000000D+00  0.0000000000000D+00  0.0000000000000D+00
   142  1.4100000000000D+00  0.0000000000000D+00  0.0000000000000D+00
   143  1.4200000000000D+00  0.0000000000000D+00  0.0000000000000D+00
   144  1.4300000000000D+00  0.0000000000000D+00  0.0000000000000D+00
   145  1.4400000000000D+00  0.0000000000000D+00  0.0000000000000D+00
   146  1.4500000000000D+00  0.0000000000000D+00  0.0000000000000D+00
   147  1.4600000000000D+00  0.0000000000000D+00  0.0000000000000D+00
   148  1.4700000000000D+00  0.0000000000000D+00  0.0000000000000D+00
   149  1.4800000000000D+00  0.0000000000000D+00  0.0000000000000D+00
   150  1.4900000000000D+00  0.0000000000000D+00  0.0000000000000D+00
   151  1.5000000000000D+00  0.0000000000000D+00  0.0000000000000D+00
   152  1.5100000000000D+00  0.0000000000000D+00  0.0000000000000D+00
   153  1.5200000000000D+00  0.0000000000000D+00  0.0000000000000D+00
   154  1.5300000000000D+00  0.0000000000000D+00  0.0000000000000D+00
   155  1.5400000000000D+00  0.0000000000000D+00  0.0000000000000D+00
   156  1.5500000000000D+00  0.0000000000000D+00  0.0000000000000D+00
   157  1.5600000000000D+00  0.0000000000000D+00  0.0000000000000D+00
   158  1.5700000000000D+00  0.0000000000000D+00  0.0000000000000D+00
   159  1.5800000000000D+00  0.0000000000000D+00  0.0000000000000D+00
   160  1.5900000000000D+00  0.0000000000000D+00  0.0000000000000D+00
   161  1.6000000000000D+00  0.0000000000000D+00  0.0000000000000D+00
   162  1.6100000000000D+00  0.0000000000000D+00  0.0000000000000D+00
   163  1.6200000000000D+00  0.0000000000000D+00  0.0000000000000D+00
   164  1.6300000000000D+00  0.0000000000000D+00  0.0000000000000D+00
   165  1.6400000000000D+00  0.0000000000000D+00  0.0000000000000D+00
   166  1.6500000000000D+00  0.0000000000000D+00  0.0000000000000D+00
   167  1.6600000000000D+00  0.0000000000000D+00  0.0000000000000D+00
   168  1.6700000000000D+00  0.0000000000000D+00  0.0000000000000D+00
   169  1.6800000000000D+00  0.0000000000000D+00  0.0000000000000D+00
   170  1.6900000000000D+00  0.0000000000000D+00  0.0000000000000D+00
   171  1.7000000000000D+00  0.0000000000000D+00  0.0000000000000D+00
   172  1.7100000000000D+00  0.0000000000000D+00  0.0000000000000D+00
   173  1.7200000000000D+00  0.0000000000000D+00  0.0000000000000D+00
   174  1.7300000000000D+00  0.0000000000000D+00  0.0000000000000D+00
   175  1.7400000000000D+00  0.0000000000000D+00  0.0000000000000D+00
   176  1.7500000000000D+00  0.0000000000000D+00  0.0000000000000D+00
   177  1.7600000000000D+00  0.0000000000000D+00  0.0000000000000D+00
   178  1.7700000000000D+00  0.0000000000000D+00  0.0000000000000D+00
   179  1.7800000000000D+00  0.0000000000000D+00  0.0000000000000D+00
   180  1.7900000000000D+00  0.0000000000000D+00  0.0000000000000D+00
   181  1.8000000000000D+00  0.0000000000000D+00  0.0000000000000D+00
   182  1.8100000000000D+00  0.0000000000000D+00  0.0000000000000D+00
   183  1.8200000000000D+00  0.0000000000000D+00  0.0000000000000D+00
   184  1.8300000000000D+00  0.0000000000000D+00  0.0000000000000D+00
   185  1.8400000000000D+00  0.0000000000000D+00  0.0000000000000D+00
   186  1.8500000000000D+00  0.0000000000000D+00  0.0000000000000D+00
   187  1.8600000000000D+00  0.0000000000000D+00  0.0000000000000D+00
   188  1.8700000000000D+00  0.0000000000000D+00  0.0000000000000D+00
   189  1.8800000000000D+00  0.0000000000000D+00  0.0000000000000D+00
   190  1.8900000000000D+00  0.0000000000000D+00  0.0000000000000D+00
   191  1.9000000000000D+00  0.0000000000000D+00  0.0000000000000D+00
   192  1.9100000000000D+00  0.0000000000000D+00  0.0000000000000D+00
   193  1.9200000000000D+00  0.0000000000000D+00  0.0000000000000D+00
   194  1.9300000000000D+00  0.0000000000000D+00  0.0000000000000D+00
   195  1.9400000000000D+00  0.0000000000000D+00  0.0000000000000D+00
   196  1.9500000000000D+00  0.0000000000000D+00  0.0000000000000D+00
   197  1.9600000000000D+00  0.0000000000000D+00  0.0000000000000D+00
   198  1.9700000000000D+00  0.0000000000000D+00  0.0000000000000D+00
   199  1.9800000000000D+00  0.0000000000000D+00  0.0000000000000D+00
   200  1.9900000000000D+00  0.0000000000000D+00  0.0000000000000D+00
   201  2.0000000000000D+00  0.0000000000000D+00  0.0000000000000D+00
   202  2.0100000000000D+00  0.0000000000000D+00  0.0000000000000D+00
   203  2.0200000000000D+00  0.0000000000000D+00  0.0000000000000D+00
   204  2.0300000000000D+00  0.0000000000000D+00  0.0000000000000D+00
   205  2.0400000000000D+00  0.0000000000000D+00  0.0000000000000D+00
   206  2.0500000000000D+00  0.0000000000000D+00  0.0000000000000D+00
   207  2.0600000000000D+00  0.0000000000000D+00  0.0000000000000D+00
   208  2.0700000000000D+00  0.0000000000000D+00  0.0000000000000D+00
   209  2.0800000000000D+00  0.0000000000000D+00  0.0000000000000D+00
   210  2.0900000000000D+00  0.0000000000000D+00  0.0000000000000D+00
   211  2.1000000000000D+00  0.0000000000000D+00  0.0000000000000D+00
   212  2.1100000000000D+00  0.0000000000000D+00  0.0000000000000D+00
   213  2.1200000000000D+00  0.0000000000000D+00  0.0000000000000D+00
   214  2.1300000000000D+00  0.0000000000000D+00  0.0000000000000D+00
   215  2.1400000000000D+00  0.0000000000000D+00  0.0000000000000D+00
   216  2.1500000000000D+00  0.0000000000000D+00  0.0000000000000D+00
   217  2.1600000000000D+00  0.0000000000000D+00  0.0000000000000D+00
   218  2.1700000000000D+00  0.0000000000000D+00  0.0000000000000D+00
   219  2.1800000000000D+00  0.0000000000000D+00  0.0000000000000D+00
   220  2.1900000000000D+00  0.0000000000000D+00  0.0000000000000D+00
   221  2.2000000000000D+00  0.0000000000000D+00  0.0000000000000D+00
   222  2.2100000000000D+00  0.0000000000000D+00  0.0000000000000D+00
   223  2.2200000000000D+00  0.0000000000000D+00  0.0000000000000D+00
   224  2.2300000000000D+00  0.0000000000000D+00  0.0000000000000D+00
   225  2.2400000000000D+00  0.0000000000000D+00  0.0000000000000D+00
   226  2.2500000000000D+00  0.0000000000000D+00  0.0000000000000D+00
   227  2.2600000000000D+00  0.0000000000000D+00  0.0000000000000D+00
   228  2.2700000000000D+00  0.0000000000000D+00  0.0000000000000D+00
   229  2.2800000000000D+00  0.0000000000000D+00  0.0000000000000D+00
   230  2.2900000000000D+00  0.0000000000000D+00  0.0000000000000D+00
   231  2.3000000000000D+00  0.0000000000000D+00  0.0000000000000D+00
   232  2.3100000000000D+00  0.0000000000000D+00  0.0000000000000D+00
   233  2.3200000000000D+00  0.0000000000000D+00  0.0000000000000D+00
   234  2.3300000000000D+00  0.0000000000000D+00  0.0000000000000D+00
   235  2.3400000000000D+00  0.0000000000000D+00  0.0000000000000D+00
   236  2.3500000000000D+00  0.0000000000000D+00  0.0000000000000D+00
   237  2.3600000000000D+00  0.0000000000000D+00  0.0000000000000D+00
   238  2.3700000000000D+00  0.0000000000000D+00  0.0000000000000D+00
   239  2.3800000000000D+00  0.0000000000000D+00  0.0000000000000D+00
   240  2.3900000000000D+00  0.0000000000000D+00  0.0000000000000D+00
   241  2.4000000000000D+00  0.0000000000000D+00  0.0000000000000D+00
   242  2.4100000000000D+00  0.0000000000000D+00  0.0000000000000D+00
   243  2.4200000000000D+00  0.0000000000000D+00  0.0000000000000D+00
   244  2.4300000000000D+00  0.0000000000000D+00  0.0000000000000D+00
   245  2.4400000000000D+00  0.0000000000000D+00  0.0000000000000D+00
   246  2.4500000000000D+00  0.0000000000000D+00  0.0000000000000D+00
   247  2.4600000000000D+00  0.0000000000000D+00  0.0000000000000D+00
   248  2.4700000000000D+00  0.0000000000000D+00  0.0000000000000D+00
   249  2.4800000000000D+00  0.0000000000000D+00  0.0000000000000D+00
   250  2.4900000000000D+00  0.0000000000000D+00  0.0000000000000D+00
   251  2.5000000000000D+00  0.0000000000000D+00  0.0000000000000D+00
   252  2.5100000000000D+00  0.0000000000000D+00  0.0000000000000D+00
   253  2.5200000000000D+00  0.0000000000000D+00  0.0000000000000D+00
   254  2.5300000000000D+00  0.0000000000000D+00  0.0000000000000D+00
   255  2.5400000000000D+00  0.0000000000000D+00  0.0000000000000D+00
   256  2.5500000000000D+00  0.0000000000000D+00  0.0000000000000D+00
   257  2.5600000000000D+00  0.0000000000000D+00  0.0000000000000D+00
   258  2.5700000000000D+00  0.0000000000000D+00  0.0000000000000D+00
   259  2.5800000000000D+00  0.0000000000000D+00  0.0000000000000D+00
   260  2.5900000000000D+00  0.0000000000000D+00  0.0000000000000D+00
   261  2.6000000000000D+00  0.0000000000000D+00  0.0000000000000D+00
   262  2.6100000000000D+00  0.0000000000000D+00  0.0000000000000D+00
   263  2.6200000000000D+00  0.0000000000000D+00  0.0000000000000D+00
   264  2.6300000000000D+00  0.0000000000000D+00  0.0000000000000D+00
   265  2.6400000000000D+00  0.0000000000000D+00  0.0000000000000D+00
   266  2.6500000000000D+00  0.0000000000000D+00  0.0000000000000D+00
   267  2.6600000000000D+00  0.0000000000000D+00  0.0000000000000D+00
   268  2.6700000000000D+00  0.0000000000000D+00  0.0000000000000D+00
   269  2.6800000000000D+00  0.0000000000000D+00  0.0000000000000D+00
   270  2.6900000000000D+00  0.0000000000000D+00  0.0000000000000D+00
   271  2.7000000000000D+00  0.0000000000000D+00  0.0000000000000D+00
   272  2.7100000000000D+00  0.0000000000000D+00  0.0000000000000D+00
   273  2.7200000000000D+00  0.0000000000000D+00  0.0000000000000D+00
   274  2.7300000000000D+00  0.0000000000000D+00  0.0000000000000D+00
   275  2.7400000000000D+00  0.0000000000000D+00  0.0000000000000D+00
   276  2.7500000000000D+00  0.0000000000000D+00  0.0000000000000D+00
   277  2.7600000000000D+00  0.0000000000000D+00  0.0000000000000D+00
   278  2.7700000000000D+00  0.0000000000000D+00  0.0000000000000D+00
   279  2.7800000000000D+00  0.0000000000000D+00  0.0000000000000D+00
   280  2.7900000000000D+00  0.0000000000000D+00  0.0000000000000D+00
   281  2.8000000000000D+00  0.0000000000000D+00  0.0000000000000D+00
   282  2.8100000000000D+00  0.0000000000000D+00  0.0000000000000D+00
   283  2.8200000000000D+00  0.0000000000000D+00  0.0000000000000D+00
   284  2.8300000000000D+00  0.0000000000000D+00  0.0000000000000D+00
   285  2.8400000000000D+00  0.0000000000000D+00  0.0000000000000D+00
   286  2.8500000000000D+00  0.0000000000000D+00  0.0000000000000D+00
   287  2.8600000000000D+00  0.0000000000000D+00  0.0000000000000D+00
   288  2.8700000000000D+00  0.0000000000000D+00  0.0000000000000D+00
   289  2.8800000000000D+00  0.0000000000000D+00  0.0000000000000D+00
   290  2.8900000000000D+00  0.0000000000000D+00  0.0000000000000D+00
   291  2.9000000000000D+00  0.0000000000000D+00  0.0000000000000D+00
   292  2.9100000000000D+00  0.0000000000000D+00  0.0000000000000D+00
   293  2.9200000000000D+00  0.0000000000000D+00  0.0000000000000D+00
   294  2.9300000000000D+00  0.0000000000000D+00  0.0000000000000D+00
   295  2.9400000000000D+00  0.0000000000000D+00  0.0000000000000D+00
   296  2.9500000000000D+00  0.0000000000000D+00  0.0000000000000D+00
   297  2.9600000000000D+00  0.0000000000000D+00  0.0000000000000D+00
   298  2.9700000000000D+00  0.0000000000000D+00  0.0000000000000D+00
   299  2.9800000000000D+00  0.0000000000000D+00  0.0000000000000D+00
   300  2.9900000000000D+00  0.0000000000000D+00  0.0000000000000D+00
   301  3.0000000000000D+00  0.0000000000000D+00  0.0000000000000D+00
   302  3.0100000000000D+00  0.0000000000000D+00  0.0000000000000D+00
   303  3.0200000000000D+00  0.0000000000000D+00  0.0000000000000D+00
   304  3.0300000000000D+00  0.0000000000000D+00  0.0000000000000D+00
   305  3.0400000000000D+00  0.0000000000000D+00  0.0000000000000D+00
   306  3.0500000000000D+00  0.0000000000000D+00  0.0000000000000D+00
   307  3.0600000000000D+00  0.0000000000000D+00  0.0000000000000D+00
   308  3.0700000000000D+00  0.0000000000000D+00  0.0000000000000D+00
   309  3.0800000000000D+00  0.0000000000000D+00  0.0000000000000D+00
   310  3.0900000000000D+00  0.0000000000000D+00  0.0000000000000D+00
   311  3.1000000000000D+00  0.0000000000000D+00  0.0000000000000D+00
   312  3.1100000000000D+00  0.0000000000000D+00  0.0000000000000D+00
   313  3.1200000000000D+00  0.0000000000000D+00  0.0000000000000D+00
   314  3.1300000000000D+00  0.0000000000000D+00  0.0000000000000D+00
   315  3.1400000000000D+00  0.0000000000000D+00  0.0000000000000D+00
   316  3.1500000000000D+00  0.0000000000000D+00  0.0000000000000D+00
   317  3.1600000000000D+00  0.0000000000000D+00  0.0000000000000D+00
   318  3.1700000000000D+00  0.0000000000000D+00  0.0000000000000D+00
   319  3.1800000000000D+00  0.0000000000000D+00  0.0000000000000D+00
   320  3.1900000000000D+00  0.0000000000000D+00  0.0000000000000D+00
   321  3.2000000000000D+00  0.0000000000000D+00  0.0000000000000D+00
   322  3.2100000000000D+00  0.0000000000000D+00  0.0000000000000D+00
   323  3.2200000000000D+00  0.0000000000000D+00  0.0000000000000D+00
   324  3.2300000000000D+00  0.0000000000000D+00  0.0000000000000D+00
   325  3.2400000000000D+00  0.0000000000000D+00  0.0000000000000D+00
   326  3.2500000000000D+00  0.0000000000000D+00  0.0000000000000D+00
   327  3.2600000000000D+00  0.0000000000000D+00  0.0000000000000D+00
   328  3.2700000000000D+00  0.0000000000000D+00  0.0000000000000D+00
   329  3.2800000000000D+00  0.0000000000000D+00  0.0000000000000D+00
   330  3.2900000000000D+00  0.0000000000000D+00  0.0000000000000D+00
   331  3.3000000000000D+00  0.0000000000000D+00  0.0000000000000D+00
   332  3.3100000000000D+00  0.0000000000000D+00  0.0000000000000D+00
   333  3.3200000000000D+00  0.0000000000000D+00  0.0000000000000D+00
   334  3.3300000000000D+00  0.0000000000000D+00  0.0000000000000D+00
   335  3.3400000000000D+00  0.0000000000000D+00  0.0000000000000D+00
   336  3.3500000000000D+00  0.0000000000000D+00  0.0000000000000D+00
   337  3.3600000000000D+00  0.0000000000000D+00  0.0000000000000D+00
   338  3.3700000000000D+00  0.0000000000000D+00  0.0000000000000D+00
   339  3.3800000000000D+00  0.0000000000000D+00  0.0000000000000D+00
   340  3.3900000000000D+00  0.0000000000000D+00  0.0000000000000D+00
   341  3.4000000000000D+00  0.0000000000000D+00  0.0000000000000D+00
   342  3.4100000000000D+00  0.0000000000000D+00  0.0000000000000D+00
   343  3.4200000000000D+00  0.0000000000000D+00  0.0000000000000D+00
   344  3.4300000000000D+00  0.0000000000000D+00  0.0000000000000D+00
   345  3.4400000000000D+00  0.0000000000000D+00  0.0000000000000D+00
   346  3.4500000000000D+00  0.0000000000000D+00  0.0000000000000D+00
   347  3.4600000000000D+00  0.0000000000000D+00  0.0000000000000D+00
   348  3.4700000000000D+00  0.0000000000000D+00  0.0000000000000D+00
   349  3.4800000000000D+00  0.0000000000000D+00  0.0000000000000D+00
   350  3.4900000000000D+00  0.0000000000000D+00  0.0000000000000D+00
   351  3.5000000000000D+00  0.0000000000000D+00  0.0000000000000D+00
   352  3.5100000000000D+00  0.0000000000000D+00  0.0000000000000D+00
   353  3.5200000000000D+00  0.0000000000000D+00  0.0000000000000D+00
   354  3.5300000000000D+00  0.0000000000000D+00  0.0000000000000D+00
   355  3.5400000000000D+00  0.0000000000000D+00  0.0000000000000D+00
   356  3.5500000000000D+00  0.0000000000000D+00  0.0000000000000D+00
   357  3.5600000000000D+00  0.0000000000000D+00  0.0000000000000D+00
   358  3.5700000000000D+00  0.0000000000000D+00  0.0000000000000D+00
   359  3.5800000000000D+00  0.0000000000000D+00  0.0000000000000D+00
   360  3.5900000000000D+00  0.0000000000000D+00  0.0000000000000D+00
   361  3.6000000000000D+00  0.0000000000000D+00  0.0000000000000D+00
   362  3.6100000000000D+00  0.0000000000000D+00  0.0000000000000D+00
   363  3.6200000000000D+00  0.0000000000000D+00  0.0000000000000D+00
   364  3.6300000000000D+00  0.0000000000000D+00  0.0000000000000D+00
   365  3.6400000000000D+00  0.0000000000000D+00  0.0000000000000D+00
   366  3.6500000000000D+00  0.0000000000000D+00  0.0000000000000D+00
   367  3.6600000000000D+00  0.0000000000000D+00  0.0000000000000D+00
   368  3.6700000000000D+00  0.0000000000000D+00  0.0000000000000D+00
   369  3.6800000000000D+00  0.0000000000000D+00  0.0000000000000D+00
   370  3.6900000000000D+00  0.0000000000000D+00  0.0000000000000D+00
   371  3.7000000000000D+00  0.0000000000000D+00  0.0000000000000D+00
   372  3.7100000000000D+00  0.0000000000000D+00  0.0000000000000D+00
   373  3.7200000000000D+00  0.0000000000000D+00  0.0000000000000D+00
   374  3.7300000000000D+00  0.0000000000000D+00  0.0000000000000D+00
   375  3.7400000000000D+00  0.0000000000000D+00  0.0000000000000D+00
   376  3.7500000000000D+00  0.0000000000000D+00  0.0000000000000D+00
   377  3.7600000000000D+00  0.0000000000000D+00  0.0000000000000D+00
   378  3.7700000000000D+00  0.0000000000000D+00  0.0000000000000D+00
   379  3.7800000000000D+00  0.0000000000000D+00  0.0000000000000D+00
   380  3.7900000000000D+00  0.0000000000000D+00  0.0000000000000D+00
   381  3.8000000000000D+00  0.0000000000000D+00  0.0000000000000D+00
   382  3.8100000000000D+00  0.0000000000000D+00  0.0000000000000D+00
   383  3.8200000000000D+00  0.0000000000000D+00  0.0000000000000D+00
   384  3.8300000000000D+00  0.0000000000000D+00  0.0000000000000D+00
   385  3.8400000000000D+00  0.0000000000000D+00  0.0000000000000D+00
   386  3.8500000000000D+00  0.0000000000000D+00  0.0000000000000D+00
   387  3.8600000000000D+00  0.0000000000000D+00  0.0000000000000D+00
   388  3.8700000000000D+00  0.0000000000000D+00  0.0000000000000D+00
   389  3.8800000000000D+00  0.0000000000000D+00  0.0000000000000D+00
   390  3.8900000000000D+00  0.0000000000000D+00  0.0000000000000D+00
   391  3.9000000000000D+00  0.0000000000000D+00  0.0000000000000D+00
   392  3.9100000000000D+00  0.0000000000000D+00  0.0000000000000D+00
   393  3.9200000000000D+00  0.0000000000000D+00  0.0000000000000D+00
   394  3.9300000000000D+00  0.0000000000000D+00  0.0000000000000D+00
   395  3.9400000000000D+00  0.0000000000000D+00  0.0000000000000D+00
   396  3.9500000000000D+00  0.0000000000000D+00  0.0000000000000D+00
   397  3.9600000000000D+00  0.0000000000000D+00  0.0000000000000D+00
   398  3.9700000000000D+00  0.0000000000000D+00  0.0000000000000D+00
   399  3.9800000000000D+00  0.0000000000000D+00  0.0000000000000D+00
   400  3.9900000000000D+00  0.0000000000000D+00  0.0000000000000D+00
   401  4.0000000000000D+00  0.0000000000000D+00  0.0000000000000D+00
   1                        -5.9398701689800D+00 -2.6318932552427D+00
     1  0.0000000000000D+00  0.0000000000000D+00  0.0000000000000D+00
     2  1.0000000000000D-02  1.8429280541555D-03  7.5423091978696D-04
     3  2.0000000000000D-02  7.3630178218265D-03  3.0094850281429D-03
     4  3.0000000000000D-02  1.6534237953355D-02  6.7435088205167D-03
     5  4.0000000000000D-02  2.9313375107109D-02  1.1919420564890D-02
     6  5.0000000000000D-02  4.5640290425222D-02  1.8486018958707D-02
     7  6.0000000000000D-02  6.5438274858725D-02  2.6378210275532D-02
     8  7.0000000000000D-02  8.8614499672718D-02  3.5517549120370D-02
     9  8.0000000000000D-02  1.1506055751507D-01  4.5812886648147D-02
    10  9.0000000000000D-02  1.4465308855681D-01  5.7161118927920D-02
    11  1.0000000000000D-01  1.7725448542772D-01  6.9448027080242D-02
    12  1.1000000000000D-01  2.1271366997745D-01  8.2549199878262D-02
    13  1.2000000000000D-01  2.5086693431771D-01  9.6331028719143D-02
    14  1.3000000000000D-01  2.9153883812955D-01  1.1065176422338D-01
    15  1.4000000000000D-01  3.3454315390870D-01  1.2536262327372D-01
    16  1.5000000000000D-01  3.7968385154775D-01  1.4030893492296D-01
    17  1.6000000000000D-01  4.2675611367780D-01  1.5533131357578D-01
    18  1.7000000000000D-01  4.7554737307837D-01  1.7026684770157D-01
    19  1.8000000000000D-01  5.2583836384385D-01  1.8495029275290D-01
    20  1.9000000000000D-01  5.7740417813740D-01  1.9921525714491D-01
    21  2.0000000000000D-01  6.3001532069964D-01  2.1289537061184D-01