Pt    ONCVPSP  r_core=  1.41  1.46  1.41
78.0000     18.0000      160315    zatom,zion,pspd
8   -1013   2     4   500     0    pspcod,pspxc,lmax,lloc,mmax,r2well
4.99000000  0.15000000  0.00000000    rchrg fchrg qchrg
2     2     2     0     0    nproj
1                 extension_switch
0                         4.1843567030014D+01  2.5941314485120D+00
1  0.0000000000000D+00 -2.2761981188779D-10 -2.4647551361001D-10
2  1.0000000000000D-02  8.4644486580633D-02 -2.4898105519171D-03
3  2.0000000000000D-02  1.6908645547165D-01 -4.9600160980806D-03
4  3.0000000000000D-02  2.5312376080072D-01 -7.3903755416329D-03
5  4.0000000000000D-02  3.3655499408775D-01 -9.7593702700475D-03
6  5.0000000000000D-02  4.1917984305358D-01 -1.2043565757208D-02
7  6.0000000000000D-02  5.0079944466544D-01 -1.4216987634860D-02
8  7.0000000000000D-02  5.8121673369894D-01 -1.6250523591274D-02
9  8.0000000000000D-02  6.6023678832413D-01 -1.8111362208508D-02
10  9.0000000000000D-02  7.3766717441720D-01 -1.9762479494342D-02
11  1.0000000000000D-01  8.1331829045409D-01 -2.1162183397952D-02
12  1.1000000000000D-01  8.8700371495177D-01 -2.2263726020121D-02
13  1.2000000000000D-01  9.5854055848411D-01 -2.3014992540024D-02
14  1.3000000000000D-01  1.0277498223077D+00 -2.3358275084710D-02
15  1.4000000000000D-01  1.0944567655875D+00 -2.3230138868517D-02
16  1.5000000000000D-01  1.1584912831100D+00 -2.2561386934711D-02
17  1.6000000000000D-01  1.2196882952168D+00 -2.1277128746907D-02
18  1.7000000000000D-01  1.2778881514754D+00 -1.9296956713392D-02
19  1.8000000000000D-01  1.3329370493419D+00 -1.6535233492907D-02
20  1.9000000000000D-01  1.3846874687506D+00 -1.2901491636104D-02
21  2.0000000000000D-01  1.4329986232039D+00 -8.3009457768636D-03
22  2.1000000000000D-01  1.4777369275259D+00 -2.6351162122576D-03
23  2.2000000000000D-01  1.5187764819981D+00  4.1974386849280D-03
24  2.3000000000000D-01  1.5559995721190D+00  1.2300285179011D-02
25  2.4000000000000D-01  1.5892971827198D+00  2.1778177361130D-02
26  2.5000000000000D-01  1.6185695246496D+00  3.2736027538200D-02
27  2.6000000000000D-01  1.6437265717017D+00  4.5277791876982D-02
28  2.7000000000000D-01  1.6646886049129D+00  5.9505280640510D-02
29  2.8000000000000D-01  1.6813867608288D+00  7.5516903568890D-02
30  2.9000000000000D-01  1.6937635798007D+00  9.3406362090306D-02
31  3.0000000000000D-01  1.7017735498690D+00  1.1326130108845D-01
32  3.1000000000000D-01  1.7053836413118D+00  1.3516193388468D-01
33  3.2000000000000D-01  1.7045738264854D+00  1.5917965490649D-01
34  3.3000000000000D-01  1.6993375791880D+00  1.8537565519678D-01
35  3.4000000000000D-01  1.6896823474217D+00  2.1379955645856D-01
36  3.5000000000000D-01  1.6756299931388D+00  2.4448807972192D-01
37  3.6000000000000D-01  1.6572171923276D+00  2.7746376495135D-01
38  3.7000000000000D-01  1.6344957886400D+00  3.1273375797991D-01
39  3.8000000000000D-01  1.6075330936800D+00  3.5028868105280D-01
40  3.9000000000000D-01  1.5764121270791D+00  3.9010160298637D-01
41  4.0000000000000D-01  1.5412317895677D+00  4.3212712449396D-01
42  4.1000000000000D-01  1.5021069624350D+00  4.7630059359967D-01
43  4.2000000000000D-01  1.4591685270339D+00  5.2253746525323D-01
44  4.3000000000000D-01  1.4125632983521D+00  5.7073281827943D-01
45  4.4000000000000D-01  1.3624538671252D+00  6.2076104164534D-01
46  4.5000000000000D-01  1.3090183455136D+00  6.7247570071687D-01
47  4.6000000000000D-01  1.2524500120029D+00  7.2570959271039D-01
48  4.7000000000000D-01  1.1929568519118D+00  7.8027499893316D-01
49  4.8000000000000D-01  1.1307609906991D+00  8.3596413966334D-01
50  4.9000000000000D-01  1.0660980181439D+00  8.9254983565660D-01
51  5.0000000000000D-01  9.9921620243095D-01  9.4978637829868D-01
52  5.1000000000000D-01  9.3037559418883D-01  1.0074106083673D+00
53  5.2000000000000D-01  8.5984702160172D-01  1.0651432012423D+00
54  5.3000000000000D-01  7.8791097883208D-01  1.1226901542245D+00
55  5.4000000000000D-01  7.1485641114048D-01  1.1797444694235D+00
56  5.5000000000000D-01  6.4097940126110D-01  1.2359880234563D+00
57  5.6000000000000D-01  5.6658176277153D-01  1.2910936130035D+00
58  5.7000000000000D-01  4.9196954737191D-01  1.3447271631117D+00
59  5.8000000000000D-01  4.1745147414840D-01  1.3965500830292D+00
60  5.9000000000000D-01  3.4333729002145D-01  1.4462217523574D+00
61  6.0000000000000D-01  2.6993607166217D-01  1.4934021183948D+00
62  6.1000000000000D-01  1.9755448017961D-01  1.5377543837894D+00
63  6.2000000000000D-01  1.2649498082701D-01  1.5789477620082D+00
64  6.3000000000000D-01  5.7054040833830D-02  1.6166602767029D+00
65  6.4000000000000D-01 -1.0479680778365D-02  1.6505815798332D+00
66  6.5000000000000D-01 -7.5827136896667D-02  1.6804157624019D+00
67  6.6000000000000D-01 -1.3872067452466D-01  1.7058841309005D+00
68  6.7000000000000D-01 -1.9890578011587D-01  1.7267279220591D+00
69  6.8000000000000D-01 -2.5614277242577D-01  1.7427109282647D+00
70  6.9000000000000D-01 -3.1020842721013D-01  1.7536220060639D+00
71  7.0000000000000D-01 -3.6089751819373D-01  1.7592774405145D+00
72  7.1000000000000D-01 -4.0802425899958D-01  1.7595231387890D+00
73  7.2000000000000D-01 -4.5142363116875D-01  1.7542366273869D+00
74  7.3000000000000D-01 -4.9095258401384D-01  1.7433288285525D+00
75  7.4000000000000D-01 -5.2649109283562D-01  1.7267455930441D+00
76  7.5000000000000D-01 -5.5794306299071D-01  1.7044689682330D+00
77  7.6000000000000D-01 -5.8523706841877D-01  1.6765181826188D+00
78  7.7000000000000D-01 -6.0832691452375D-01  1.6429503302315D+00
79  7.8000000000000D-01 -6.2719201673127D-01  1.6038607410057D+00
80  7.9000000000000D-01 -6.4183758761452D-01  1.5593830260565D+00
81  8.0000000000000D-01 -6.5229462717269D-01  1.5096887898318D+00
82  8.1000000000000D-01 -6.5861971264737D-01  1.4549870043208D+00
83  8.2000000000000D-01 -6.6089458615249D-01  1.3955230438504D+00
84  8.3000000000000D-01 -6.5922554035617D-01  1.3315773824471D+00
85  8.4000000000000D-01 -6.5374260446469D-01  1.2634639592596D+00
86  8.5000000000000D-01 -6.4459853479823D-01  1.1915282210780D+00
87  8.6000000000000D-01 -6.3196761629270D-01  1.1161448545127D+00
88  8.7000000000000D-01 -6.1604428328534D-01  1.0377152238688D+00
89  8.8000000000000D-01 -5.9704156992085D-01  9.5666453412302D-01
90  8.9000000000000D-01 -5.7518940242381D-01  8.7343874164336D-01
91  9.0000000000000D-01 -5.5073274729633D-01  7.8850123833878D-01
92  9.1000000000000D-01 -5.2392963119348D-01  7.0232933774735D-01
93  9.2000000000000D-01 -4.9504904977883D-01  6.1541059412963D-01
94  9.3000000000000D-01 -4.6436878424454D-01  5.2823898788529D-01
95  9.4000000000000D-01 -4.3217314537479D-01  4.4131101252484D-01
96  9.5000000000000D-01 -3.9875066601671D-01  3.5512169996939D-01
97  9.6000000000000D-01 -3.6439176358225D-01  2.7016062209135D-01
98  9.7000000000000D-01 -3.2938639472355D-01  1.8690790712670D-01
99  9.8000000000000D-01 -2.9402172457944D-01  1.0583030984121D-01
100  9.9000000000000D-01 -2.5857983300128D-01  2.7377374168062D-02
101  1.0000000000000D+00 -2.2333547988325D-01 -4.8022273654853D-02
102  1.0100000000000D+00 -1.8855395117452D-01 -1.1996446455346D-01
103  1.0200000000000D+00 -1.5448900632651D-01 -1.8807282341269D-01
104  1.0300000000000D+00 -1.2138094683608D-01 -2.5200186999316D-01
105  1.0400000000000D+00 -8.9454824150112D-02 -3.1143985335885D-01
106  1.0500000000000D+00 -5.8918803614743D-02 -3.6611129210806D-01
107  1.0600000000000D+00 -2.9962699308783D-02 -4.1577919605301D-01
108  1.0700000000000D+00 -2.7566924273534D-03 -4.6024694890806D-01
109  1.0800000000000D+00  2.2549756310732D-02 -4.9935983547258D-01
110  1.0900000000000D+00  4.5828792356207D-02 -5.3300620142030D-01
111  1.1000000000000D+00  6.6974845718805D-02 -5.6111823818779D-01
112  1.1100000000000D+00  8.5905099444232D-02 -5.8367239039406D-01
113  1.1200000000000D+00  1.0255974854524D-01 -6.0068938845462D-01
114  1.1300000000000D+00  1.1690205253309D-01 -6.1223391392535D-01
115  1.1400000000000D+00  1.2891818773911D-01 -6.1841391042847D-01
116  1.1500000000000D+00  1.3861690815324D-01 -6.1937955743970D-01
117  1.1600000000000D+00  1.4602902702361D-01 -6.1532193032230D-01
118  1.1700000000000D+00  1.5120673385975D-01 -6.0647137414161D-01
119  1.1800000000000D+00  1.5422276409062D-01 -5.9309562329741D-01
120  1.1900000000000D+00  1.5516944119000D-01 -5.7549770342405D-01
121  1.2000000000000D+00  1.5415761370702D-01 -5.5401365650000D-01
122  1.2100000000000D+00  1.5131551158344D-01 -5.2901013340421D-01
123  1.2200000000000D+00  1.4678754740033D-01 -5.0088190031453D-01
124  1.2300000000000D+00  1.4073309089216D-01 -4.7004930987655D-01
125  1.2400000000000D+00  1.3332524553408D-01 -4.3695578879298D-01
126  1.2500000000000D+00  1.2474965695500D-01 -4.0206539505831D-01
127  1.2600000000000D+00  1.1520338407893D-01 -3.6586049990374D-01
128  1.2700000000000D+00  1.0489388113443D-01 -3.2883968320814D-01
129  1.2800000000000D+00  9.4038043752071D-02 -2.9151574417362D-01
130  1.2900000000000D+00  8.2861479750799D-02 -2.5441414057510D-01
131  1.3000000000000D+00  7.1597324426267D-02 -2.1807051098066D-01
132  1.3100000000000D+00  6.0488901834581D-02 -1.8303570524782D-01
133  1.3200000000000D+00  4.9781746950192D-02 -1.4985993224342D-01
134  1.3300000000000D+00  3.9710867475880D-02 -1.1906763932104D-01
135  1.3400000000000D+00  3.0486559313723D-02 -9.1130078369479D-02
136  1.3500000000000D+00  2.2287367768497D-02 -6.6451935781025D-02
137  1.3600000000000D+00  1.5263887868822D-02 -4.5381858432175D-02
138  1.3700000000000D+00  9.5252101357056D-03 -2.8176199665156D-02
139  1.3800000000000D+00  5.1198956687140D-03 -1.4949314993072D-02
140  1.3900000000000D+00  2.2037709336100D-03 -6.1360545343880D-03
141  1.4000000000000D+00  7.8504918055860D-04 -1.7843090374961D-03
142  1.4100000000000D+00  2.3575510117619D-04 -2.7624620164658D-04
143  1.4200000000000D+00  2.6055768888674D-05  5.1124144267996D-06
144  1.4300000000000D+00 -1.3134984252718D-05 -1.9458535780891D-05
145  1.4400000000000D+00  6.3493214817252D-08 -8.2238798649242D-09
146  1.4500000000000D+00  3.8115127090818D-06  7.6177347206499D-07
147  1.4600000000000D+00 -6.1810394402979D-07  1.0312177497281D-06
148  1.4700000000000D+00 -8.1845341619687D-07  1.3654720994098D-06
149  1.4800000000000D+00  0.0000000000000D+00  0.0000000000000D+00
150  1.4900000000000D+00  0.0000000000000D+00  0.0000000000000D+00
151  1.5000000000000D+00  0.0000000000000D+00  0.0000000000000D+00
152  1.5100000000000D+00  0.0000000000000D+00  0.0000000000000D+00
153  1.5200000000000D+00  0.0000000000000D+00  0.0000000000000D+00
154  1.5300000000000D+00  0.0000000000000D+00  0.0000000000000D+00
155  1.5400000000000D+00  0.0000000000000D+00  0.0000000000000D+00
156  1.5500000000000D+00  0.0000000000000D+00  0.0000000000000D+00
157  1.5600000000000D+00  0.0000000000000D+00  0.0000000000000D+00
158  1.5700000000000D+00  0.0000000000000D+00  0.0000000000000D+00
159  1.5800000000000D+00  0.0000000000000D+00  0.0000000000000D+00
160  1.5900000000000D+00  0.0000000000000D+00  0.0000000000000D+00
161  1.6000000000000D+00  0.0000000000000D+00  0.0000000000000D+00
162  1.6100000000000D+00  0.0000000000000D+00  0.0000000000000D+00
163  1.6200000000000D+00  0.0000000000000D+00  0.0000000000000D+00
164  1.6300000000000D+00  0.0000000000000D+00  0.0000000000000D+00
165  1.6400000000000D+00  0.0000000000000D+00  0.0000000000000D+00
166  1.6500000000000D+00  0.0000000000000D+00  0.0000000000000D+00
167  1.6600000000000D+00  0.0000000000000D+00  0.0000000000000D+00
168  1.6700000000000D+00  0.0000000000000D+00  0.0000000000000D+00
169  1.6800000000000D+00  0.0000000000000D+00  0.0000000000000D+00
170  1.6900000000000D+00  0.0000000000000D+00  0.0000000000000D+00
171  1.7000000000000D+00  0.0000000000000D+00  0.0000000000000D+00
172  1.7100000000000D+00  0.0000000000000D+00  0.0000000000000D+00
173  1.7200000000000D+00  0.0000000000000D+00  0.0000000000000D+00
174  1.7300000000000D+00  0.0000000000000D+00  0.0000000000000D+00
175  1.7400000000000D+00  0.0000000000000D+00  0.0000000000000D+00
176  1.7500000000000D+00  0.0000000000000D+00  0.0000000000000D+00
177  1.7600000000000D+00  0.0000000000000D+00  0.0000000000000D+00
178  1.7700000000000D+00  0.0000000000000D+00  0.0000000000000D+00
179  1.7800000000000D+00  0.0000000000000D+00  0.0000000000000D+00
180  1.7900000000000D+00  0.0000000000000D+00  0.0000000000000D+00
181  1.8000000000000D+00  0.0000000000000D+00  0.0000000000000D+00
182  1.8100000000000D+00  0.0000000000000D+00  0.0000000000000D+00
183  1.8200000000000D+00  0.0000000000000D+00  0.0000000000000D+00
184  1.8300000000000D+00  0.0000000000000D+00  0.0000000000000D+00
185  1.8400000000000D+00  0.0000000000000D+00  0.0000000000000D+00
186  1.8500000000000D+00  0.0000000000000D+00  0.0000000000000D+00
187  1.8600000000000D+00  0.0000000000000D+00  0.0000000000000D+00
188  1.8700000000000D+00  0.0000000000000D+00  0.0000000000000D+00
189  1.8800000000000D+00  0.0000000000000D+00  0.0000000000000D+00
190  1.8900000000000D+00  0.0000000000000D+00  0.0000000000000D+00
191  1.9000000000000D+00  0.0000000000000D+00  0.0000000000000D+00
192  1.9100000000000D+00  0.0000000000000D+00  0.0000000000000D+00
193  1.9200000000000D+00  0.0000000000000D+00  0.0000000000000D+00
194  1.9300000000000D+00  0.0000000000000D+00  0.0000000000000D+00
195  1.9400000000000D+00  0.0000000000000D+00  0.0000000000000D+00
196  1.9500000000000D+00  0.0000000000000D+00  0.0000000000000D+00
197  1.9600000000000D+00  0.0000000000000D+00  0.0000000000000D+00
198  1.9700000000000D+00  0.0000000000000D+00  0.0000000000000D+00
199  1.9800000000000D+00  0.0000000000000D+00  0.0000000000000D+00
200  1.9900000000000D+00  0.0000000000000D+00  0.0000000000000D+00
201  2.0000000000000D+00  0.0000000000000D+00  0.0000000000000D+00
202  2.0100000000000D+00  0.0000000000000D+00  0.0000000000000D+00
203  2.0200000000000D+00  0.0000000000000D+00  0.0000000000000D+00
204  2.0300000000000D+00  0.0000000000000D+00  0.0000000000000D+00
205  2.0400000000000D+00  0.0000000000000D+00  0.0000000000000D+00
206  2.0500000000000D+00  0.0000000000000D+00  0.0000000000000D+00
207  2.0600000000000D+00  0.0000000000000D+00  0.0000000000000D+00
208  2.0700000000000D+00  0.0000000000000D+00  0.0000000000000D+00
209  2.0800000000000D+00  0.0000000000000D+00  0.0000000000000D+00
210  2.0900000000000D+00  0.0000000000000D+00  0.0000000000000D+00
211  2.1000000000000D+00  0.0000000000000D+00  0.0000000000000D+00
212  2.1100000000000D+00  0.0000000000000D+00  0.0000000000000D+00
213  2.1200000000000D+00  0.0000000000000D+00  0.0000000000000D+00
214  2.1300000000000D+00  0.0000000000000D+00  0.0000000000000D+00
215  2.1400000000000D+00  0.0000000000000D+00  0.0000000000000D+00
216  2.1500000000000D+00  0.0000000000000D+00  0.0000000000000D+00
217  2.1600000000000D+00  0.0000000000000D+00  0.0000000000000D+00
218  2.1700000000000D+00  0.0000000000000D+00  0.0000000000000D+00
219  2.1800000000000D+00  0.0000000000000D+00  0.0000000000000D+00
220  2.1900000000000D+00  0.0000000000000D+00  0.0000000000000D+00
221  2.2000000000000D+00  0.0000000000000D+00  0.0000000000000D+00
222  2.2100000000000D+00  0.0000000000000D+00  0.0000000000000D+00
223  2.2200000000000D+00  0.0000000000000D+00  0.0000000000000D+00
224  2.2300000000000D+00  0.0000000000000D+00  0.0000000000000D+00
225  2.2400000000000D+00  0.0000000000000D+00  0.0000000000000D+00
226  2.2500000000000D+00  0.0000000000000D+00  0.0000000000000D+00
227  2.2600000000000D+00  0.0000000000000D+00  0.0000000000000D+00
228  2.2700000000000D+00  0.0000000000000D+00  0.0000000000000D+00
229  2.2800000000000D+00  0.0000000000000D+00  0.0000000000000D+00
230  2.2900000000000D+00  0.0000000000000D+00  0.0000000000000D+00
231  2.3000000000000D+00  0.0000000000000D+00  0.0000000000000D+00
232  2.3100000000000D+00  0.0000000000000D+00  0.0000000000000D+00
233  2.3200000000000D+00  0.0000000000000D+00  0.0000000000000D+00
234  2.3300000000000D+00  0.0000000000000D+00  0.0000000000000D+00
235  2.3400000000000D+00  0.0000000000000D+00  0.0000000000000D+00
236  2.3500000000000D+00  0.0000000000000D+00  0.0000000000000D+00
237  2.3600000000000D+00  0.0000000000000D+00  0.0000000000000D+00
238  2.3700000000000D+00  0.0000000000000D+00  0.0000000000000D+00
239  2.3800000000000D+00  0.0000000000000D+00  0.0000000000000D+00
240  2.3900000000000D+00  0.0000000000000D+00  0.0000000000000D+00
241  2.4000000000000D+00  0.0000000000000D+00  0.0000000000000D+00
242  2.4100000000000D+00  0.0000000000000D+00  0.0000000000000D+00
243  2.4200000000000D+00  0.0000000000000D+00  0.0000000000000D+00
244  2.4300000000000D+00  0.0000000000000D+00  0.0000000000000D+00
245  2.4400000000000D+00  0.0000000000000D+00  0.0000000000000D+00
246  2.4500000000000D+00  0.0000000000000D+00  0.0000000000000D+00
247  2.4600000000000D+00  0.0000000000000D+00  0.0000000000000D+00
248  2.4700000000000D+00  0.0000000000000D+00  0.0000000000000D+00
249  2.4800000000000D+00  0.0000000000000D+00  0.0000000000000D+00
250  2.4900000000000D+00  0.0000000000000D+00  0.0000000000000D+00
251  2.5000000000000D+00  0.0000000000000D+00  0.0000000000000D+00
252  2.5100000000000D+00  0.0000000000000D+00  0.0000000000000D+00
253  2.5200000000000D+00  0.0000000000000D+00  0.0000000000000D+00
254  2.5300000000000D+00  0.0000000000000D+00  0.0000000000000D+00
255  2.5400000000000D+00  0.0000000000000D+00  0.0000000000000D+00
256  2.5500000000000D+00  0.0000000000000D+00  0.0000000000000D+00
257  2.5600000000000D+00  0.0000000000000D+00  0.0000000000000D+00
258  2.5700000000000D+00  0.0000000000000D+00  0.0000000000000D+00
259  2.5800000000000D+00  0.0000000000000D+00  0.0000000000000D+00
260  2.5900000000000D+00  0.0000000000000D+00  0.0000000000000D+00
261  2.6000000000000D+00  0.0000000000000D+00  0.0000000000000D+00
262  2.6100000000000D+00  0.0000000000000D+00  0.0000000000000D+00
263  2.6200000000000D+00  0.0000000000000D+00  0.0000000000000D+00
264  2.6300000000000D+00  0.0000000000000D+00  0.0000000000000D+00
265  2.6400000000000D+00  0.0000000000000D+00  0.0000000000000D+00
266  2.6500000000000D+00  0.0000000000000D+00  0.0000000000000D+00
267  2.6600000000000D+00  0.0000000000000D+00  0.0000000000000D+00
268  2.6700000000000D+00  0.0000000000000D+00  0.0000000000000D+00
269  2.6800000000000D+00  0.0000000000000D+00  0.0000000000000D+00
270  2.6900000000000D+00  0.0000000000000D+00  0.0000000000000D+00
271  2.7000000000000D+00  0.0000000000000D+00  0.0000000000000D+00
272  2.7100000000000D+00  0.0000000000000D+00  0.0000000000000D+00
273  2.7200000000000D+00  0.0000000000000D+00  0.0000000000000D+00
274  2.7300000000000D+00  0.0000000000000D+00  0.0000000000000D+00
275  2.7400000000000D+00  0.0000000000000D+00  0.0000000000000D+00
276  2.7500000000000D+00  0.0000000000000D+00  0.0000000000000D+00
277  2.7600000000000D+00  0.0000000000000D+00  0.0000000000000D+00
278  2.7700000000000D+00  0.0000000000000D+00  0.0000000000000D+00
279  2.7800000000000D+00  0.0000000000000D+00  0.0000000000000D+00
280  2.7900000000000D+00  0.0000000000000D+00  0.0000000000000D+00
281  2.8000000000000D+00  0.0000000000000D+00  0.0000000000000D+00
282  2.8100000000000D+00  0.0000000000000D+00  0.0000000000000D+00
283  2.8200000000000D+00  0.0000000000000D+00  0.0000000000000D+00
284  2.8300000000000D+00  0.0000000000000D+00  0.0000000000000D+00
285  2.8400000000000D+00  0.0000000000000D+00  0.0000000000000D+00
286  2.8500000000000D+00  0.0000000000000D+00  0.0000000000000D+00
287  2.8600000000000D+00  0.0000000000000D+00  0.0000000000000D+00
288  2.8700000000000D+00  0.0000000000000D+00  0.0000000000000D+00
289  2.8800000000000D+00  0.0000000000000D+00  0.0000000000000D+00
290  2.8900000000000D+00  0.0000000000000D+00  0.0000000000000D+00
291  2.9000000000000D+00  0.0000000000000D+00  0.0000000000000D+00
292  2.9100000000000D+00  0.0000000000000D+00  0.0000000000000D+00
293  2.9200000000000D+00  0.0000000000000D+00  0.0000000000000D+00
294  2.9300000000000D+00  0.0000000000000D+00  0.0000000000000D+00
295  2.9400000000000D+00  0.0000000000000D+00  0.0000000000000D+00
296  2.9500000000000D+00  0.0000000000000D+00  0.0000000000000D+00
297  2.9600000000000D+00  0.0000000000000D+00  0.0000000000000D+00
298  2.9700000000000D+00  0.0000000000000D+00  0.0000000000000D+00
299  2.9800000000000D+00  0.0000000000000D+00  0.0000000000000D+00
300  2.9900000000000D+00  0.0000000000000D+00  0.0000000000000D+00
301  3.0000000000000D+00  0.0000000000000D+00  0.0000000000000D+00
302  3.0100000000000D+00  0.0000000000000D+00  0.0000000000000D+00
303  3.0200000000000D+00  0.0000000000000D+00  0.0000000000000D+00
304  3.0300000000000D+00  0.0000000000000D+00  0.0000000000000D+00
305  3.0400000000000D+00  0.0000000000000D+00  0.0000000000000D+00
306  3.0500000000000D+00  0.0000000000000D+00  0.0000000000000D+00
307  3.0600000000000D+00  0.0000000000000D+00  0.0000000000000D+00
308  3.0700000000000D+00  0.0000000000000D+00  0.0000000000000D+00
309  3.0800000000000D+00  0.0000000000000D+00  0.0000000000000D+00
310  3.0900000000000D+00  0.0000000000000D+00  0.0000000000000D+00
311  3.1000000000000D+00  0.0000000000000D+00  0.0000000000000D+00
312  3.1100000000000D+00  0.0000000000000D+00  0.0000000000000D+00
313  3.1200000000000D+00  0.0000000000000D+00  0.0000000000000D+00
314  3.1300000000000D+00  0.0000000000000D+00  0.0000000000000D+00
315  3.1400000000000D+00  0.0000000000000D+00  0.0000000000000D+00
316  3.1500000000000D+00  0.0000000000000D+00  0.0000000000000D+00
317  3.1600000000000D+00  0.0000000000000D+00  0.0000000000000D+00
318  3.1700000000000D+00  0.0000000000000D+00  0.0000000000000D+00
319  3.1800000000000D+00  0.0000000000000D+00  0.0000000000000D+00
320  3.1900000000000D+00  0.0000000000000D+00  0.0000000000000D+00
321  3.2000000000000D+00  0.0000000000000D+00  0.0000000000000D+00
322  3.2100000000000D+00  0.0000000000000D+00  0.0000000000000D+00
323  3.2200000000000D+00  0.0000000000000D+00  0.0000000000000D+00
324  3.2300000000000D+00  0.0000000000000D+00  0.0000000000000D+00
325  3.2400000000000D+00  0.0000000000000D+00  0.0000000000000D+00
326  3.2500000000000D+00  0.0000000000000D+00  0.0000000000000D+00
327  3.2600000000000D+00  0.0000000000000D+00  0.0000000000000D+00
328  3.2700000000000D+00  0.0000000000000D+00  0.0000000000000D+00
329  3.2800000000000D+00  0.0000000000000D+00  0.0000000000000D+00
330  3.2900000000000D+00  0.0000000000000D+00  0.0000000000000D+00
331  3.3000000000000D+00  0.0000000000000D+00  0.0000000000000D+00
332  3.3100000000000D+00  0.0000000000000D+00  0.0000000000000D+00
333  3.3200000000000D+00  0.0000000000000D+00  0.0000000000000D+00
334  3.3300000000000D+00  0.0000000000000D+00  0.0000000000000D+00
335  3.3400000000000D+00  0.0000000000000D+00  0.0000000000000D+00
336  3.3500000000000D+00  0.0000000000000D+00  0.0000000000000D+00
337  3.3600000000000D+00  0.0000000000000D+00  0.0000000000000D+00
338  3.3700000000000D+00  0.0000000000000D+00  0.0000000000000D+00
339  3.3800000000000D+00  0.0000000000000D+00  0.0000000000000D+00
340  3.3900000000000D+00  0.0000000000000D+00  0.0000000000000D+00
341  3.4000000000000D+00  0.0000000000000D+00  0.0000000000000D+00
342  3.4100000000000D+00  0.0000000000000D+00  0.0000000000000D+00
343  3.4200000000000D+00  0.0000000000000D+00  0.0000000000000D+00
344  3.4300000000000D+00  0.0000000000000D+00  0.0000000000000D+00
345  3.4400000000000D+00  0.0000000000000D+00  0.0000000000000D+00
346  3.4500000000000D+00  0.0000000000000D+00  0.0000000000000D+00
347  3.4600000000000D+00  0.0000000000000D+00  0.0000000000000D+00
348  3.4700000000000D+00  0.0000000000000D+00  0.0000000000000D+00
349  3.4800000000000D+00  0.0000000000000D+00  0.0000000000000D+00
350  3.4900000000000D+00  0.0000000000000D+00  0.0000000000000D+00
351  3.5000000000000D+00  0.0000000000000D+00  0.0000000000000D+00
352  3.5100000000000D+00  0.0000000000000D+00  0.0000000000000D+00
353  3.5200000000000D+00  0.0000000000000D+00  0.0000000000000D+00
354  3.5300000000000D+00  0.0000000000000D+00  0.0000000000000D+00
355  3.5400000000000D+00  0.0000000000000D+00  0.0000000000000D+00
356  3.5500000000000D+00  0.0000000000000D+00  0.0000000000000D+00
357  3.5600000000000D+00  0.0000000000000D+00  0.0000000000000D+00
358  3.5700000000000D+00  0.0000000000000D+00  0.0000000000000D+00
359  3.5800000000000D+00  0.0000000000000D+00  0.0000000000000D+00
360  3.5900000000000D+00  0.0000000000000D+00  0.0000000000000D+00
361  3.6000000000000D+00  0.0000000000000D+00  0.0000000000000D+00
362  3.6100000000000D+00  0.0000000000000D+00  0.0000000000000D+00
363  3.6200000000000D+00  0.0000000000000D+00  0.0000000000000D+00
364  3.6300000000000D+00  0.0000000000000D+00  0.0000000000000D+00
365  3.6400000000000D+00  0.0000000000000D+00  0.0000000000000D+00
366  3.6500000000000D+00  0.0000000000000D+00  0.0000000000000D+00
367  3.6600000000000D+00  0.0000000000000D+00  0.0000000000000D+00
368  3.6700000000000D+00  0.0000000000000D+00  0.0000000000000D+00
369  3.6800000000000D+00  0.0000000000000D+00  0.0000000000000D+00
370  3.6900000000000D+00  0.0000000000000D+00  0.0000000000000D+00
371  3.7000000000000D+00  0.0000000000000D+00  0.0000000000000D+00
372  3.7100000000000D+00  0.0000000000000D+00  0.0000000000000D+00
373  3.7200000000000D+00  0.0000000000000D+00  0.0000000000000D+00
374  3.7300000000000D+00  0.0000000000000D+00  0.0000000000000D+00
375  3.7400000000000D+00  0.0000000000000D+00  0.0000000000000D+00
376  3.7500000000000D+00  0.0000000000000D+00  0.0000000000000D+00
377  3.7600000000000D+00  0.0000000000000D+00  0.0000000000000D+00
378  3.7700000000000D+00  0.0000000000000D+00  0.0000000000000D+00
379  3.7800000000000D+00  0.0000000000000D+00  0.0000000000000D+00
380  3.7900000000000D+00  0.0000000000000D+00  0.0000000000000D+00
381  3.8000000000000D+00  0.0000000000000D+00  0.0000000000000D+00
382  3.8100000000000D+00  0.0000000000000D+00  0.0000000000000D+00
383  3.8200000000000D+00  0.0000000000000D+00  0.0000000000000D+00
384  3.8300000000000D+00  0.0000000000000D+00  0.0000000000000D+00
385  3.8400000000000D+00  0.0000000000000D+00  0.0000000000000D+00
386  3.8500000000000D+00  0.0000000000000D+00  0.0000000000000D+00
387  3.8600000000000D+00  0.0000000000000D+00  0.0000000000000D+00
388  3.8700000000000D+00  0.0000000000000D+00  0.0000000000000D+00
389  3.8800000000000D+00  0.0000000000000D+00  0.0000000000000D+00
390  3.8900000000000D+00  0.0000000000000D+00  0.0000000000000D+00
391  3.9000000000000D+00  0.0000000000000D+00  0.0000000000000D+00
392  3.9100000000000D+00  0.0000000000000D+00  0.0000000000000D+00
393  3.9200000000000D+00  0.0000000000000D+00  0.0000000000000D+00
394  3.9300000000000D+00  0.0000000000000D+00  0.0000000000000D+00
395  3.9400000000000D+00  0.0000000000000D+00  0.0000000000000D+00
396  3.9500000000000D+00  0.0000000000000D+00  0.0000000000000D+00
397  3.9600000000000D+00  0.0000000000000D+00  0.0000000000000D+00
398  3.9700000000000D+00  0.0000000000000D+00  0.0000000000000D+00
399  3.9800000000000D+00  0.0000000000000D+00  0.0000000000000D+00
400  3.9900000000000D+00  0.0000000000000D+00  0.0000000000000D+00
401  4.0000000000000D+00  0.0000000000000D+00  0.0000000000000D+00
402  4.0100000000000D+00  0.0000000000000D+00  0.0000000000000D+00
403  4.0200000000000D+00  0.0000000000000D+00  0.0000000000000D+00
404  4.0300000000000D+00  0.0000000000000D+00  0.0000000000000D+00
405  4.0400000000000D+00  0.0000000000000D+00  0.0000000000000D+00
406  4.0500000000000D+00  0.0000000000000D+00  0.0000000000000D+00
407  4.0600000000000D+00  0.0000000000000D+00  0.0000000000000D+00
408  4.0700000000000D+00  0.0000000000000D+00  0.0000000000000D+00
409  4.0800000000000D+00  0.0000000000000D+00  0.0000000000000D+00
410  4.0900000000000D+00  0.0000000000000D+00  0.0000000000000D+00
411  4.1000000000000D+00  0.0000000000000D+00  0.0000000000000D+00
412  4.1100000000000D+00  0.0000000000000D+00  0.0000000000000D+00
413  4.1200000000000D+00  0.0000000000000D+00  0.0000000000000D+00
414  4.1300000000000D+00  0.0000000000000D+00  0.0000000000000D+00
415  4.1400000000000D+00  0.0000000000000D+00  0.0000000000000D+00
416  4.1500000000000D+00  0.0000000000000D+00  0.0000000000000D+00
417  4.1600000000000D+00  0.0000000000000D+00  0.0000000000000D+00
418  4.1700000000000D+00  0.0000000000000D+00  0.0000000000000D+00
419  4.1800000000000D+00  0.0000000000000D+00  0.0000000000000D+00
420  4.1900000000000D+00  0.0000000000000D+00  0.0000000000000D+00
421  4.2000000000000D+00  0.0000000000000D+00  0.0000000000000D+00
422  4.2100000000000D+00  0.0000000000000D+00  0.0000000000000D+00
423  4.2200000000000D+00  0.0000000000000D+00  0.0000000000000D+00
424  4.2300000000000D+00  0.0000000000000D+00  0.0000000000000D+00
425  4.2400000000000D+00  0.0000000000000D+00  0.0000000000000D+00
426  4.2500000000000D+00  0.0000000000000D+00  0.0000000000000D+00
427  4.2600000000000D+00  0.0000000000000D+00  0.0000000000000D+00
428  4.2700000000000D+00  0.0000000000000D+00  0.0000000000000D+00
429  4.2800000000000D+00  0.0000000000000D+00  0.0000000000000D+00
430  4.2900000000000D+00  0.0000000000000D+00  0.0000000000000D+00
431  4.3000000000000D+00  0.0000000000000D+00  0.0000000000000D+00
432  4.3100000000000D+00  0.0000000000000D+00  0.0000000000000D+00
433  4.3200000000000D+00  0.0000000000000D+00  0.0000000000000D+00
434  4.3300000000000D+00  0.0000000000000D+00  0.0000000000000D+00
435  4.3400000000000D+00  0.0000000000000D+00  0.0000000000000D+00
436  4.3500000000000D+00  0.0000000000000D+00  0.0000000000000D+00
437  4.3600000000000D+00  0.0000000000000D+00  0.0000000000000D+00
438  4.3700000000000D+00  0.0000000000000D+00  0.0000000000000D+00
439  4.3800000000000D+00  0.0000000000000D+00  0.0000000000000D+00
440  4.3900000000000D+00  0.0000000000000D+00  0.0000000000000D+00
441  4.4000000000000D+00  0.0000000000000D+00  0.0000000000000D+00
442  4.4100000000000D+00  0.0000000000000D+00  0.0000000000000D+00
443  4.4200000000000D+00  0.0000000000000D+00  0.0000000000000D+00
444  4.4300000000000D+00  0.0000000000000D+00  0.0000000000000D+00