Gd    ONCVPSP-3.2.3  r_core=   2.07389   1.86278   1.81887   2.51001
64.0000     11.0000      170421    zatom,zion,pspd
8      11   3     4   600     0    pspcod,pspxc,lmax,lloc,mmax,r2well
5.99000000  0.25000000  0.00000000    rchrg fchrg qchrg
2     2     2     1     0    nproj
1     1           extension_switch
0                         3.7073910871052D+00 -4.2613576162090D-01
1  0.0000000000000D+00  5.9104943161969D-12  1.2981277164315D-10
2  1.0000000000000D-02  4.4334612369603D-02 -4.0421026169242D-02
3  2.0000000000000D-02  8.8619515830351D-02 -8.0694899360880D-02
4  3.0000000000000D-02  1.3280506251149D-01 -1.2067519705951D-01
5  4.0000000000000D-02  1.7684172667152D-01 -1.6021695298853D-01
6  5.0000000000000D-02  2.2068016589387D-01 -1.9917737354848D-01
7  6.0000000000000D-02  2.6427128243566D-01 -2.3741654033063D-01
8  7.0000000000000D-02  3.0756628477353D-01 -2.7479809421705D-01
9  8.0000000000000D-02  3.5051674938467D-01 -3.1118989670891D-01
10  9.0000000000000D-02  3.9307468279385D-01 -3.4646466428459D-01
11  1.0000000000000D-01  4.3519258390870D-01 -3.8050057177967D-01
12  1.1000000000000D-01  4.7682350665570D-01 -4.1318182099887D-01
13  1.2000000000000D-01  5.1792112291835D-01 -4.4439917101469D-01
14  1.3000000000000D-01  5.5843978576710D-01 -4.7405042687674D-01
15  1.4000000000000D-01  5.9833459295779D-01 -5.0204088374848D-01
16  1.5000000000000D-01  6.3756145066163D-01 -5.2828372380027D-01
17  1.6000000000000D-01  6.7607713737565D-01 -5.5270036351954D-01
18  1.7000000000000D-01  7.1383936794757D-01 -5.7522074944577D-01
19  1.8000000000000D-01  7.5080685763418D-01 -5.9578360069878D-01
20  1.9000000000000D-01  7.8693938609671D-01 -6.1433659704054D-01
21  2.0000000000000D-01  8.2219786122161D-01 -6.3083651159044D-01
22  2.1000000000000D-01  8.5654438263956D-01 -6.4524928769898D-01
23  2.2000000000000D-01  8.8994230480092D-01 -6.5755005987293D-01
24  2.3000000000000D-01  9.2235629945087D-01 -6.6772311903272D-01
25  2.4000000000000D-01  9.5375241733382D-01 -6.7576182276726D-01
26  2.5000000000000D-01  9.8409814894325D-01 -6.8166845163098D-01
27  2.6000000000000D-01  1.0133624841208D+00 -6.8545401289838D-01
28  2.7000000000000D-01  1.0415159702968D+00 -6.8713799355060D-01
29  2.8000000000000D-01  1.0685307691557D+00 -6.8674806461554D-01
30  2.9000000000000D-01  1.0943807114971D+00 -6.8431973931208D-01
31  3.0000000000000D-01  1.1190413500619D+00 -6.7989598776102D-01
32  3.1000000000000D-01  1.1424900100802D+00 -6.7352681131630D-01
33  3.2000000000000D-01  1.1647058372978D+00 -6.6526877983825D-01
34  3.3000000000000D-01  1.1856698432340D+00 -6.5518453547478D-01
35  3.4000000000000D-01  1.2053649474226D+00 -6.4334226673339D-01
36  3.5000000000000D-01  1.2237760163876D+00 -6.2981515681754D-01
37  3.6000000000000D-01  1.2408898991107D+00 -6.1468081036134D-01
38  3.7000000000000D-01  1.2566954587490D+00 -5.9802066282736D-01
39  3.8000000000000D-01  1.2711836003698D+00 -5.7991937693232D-01
40  3.9000000000000D-01  1.2843472944790D+00 -5.6046423053360D-01
41  4.0000000000000D-01  1.2961815961251D+00 -5.3974450044572D-01
42  4.1000000000000D-01  1.3066836593797D+00 -5.1785084665985D-01
43  4.2000000000000D-01  1.3158527470035D+00 -4.9487470141161D-01
44  4.3000000000000D-01  1.3236902351260D+00 -4.7090766748179D-01
45  4.4000000000000D-01  1.3301996127836D+00 -4.4604093002405D-01
46  4.5000000000000D-01  1.3353864761796D+00 -4.2036468609099D-01
47  4.6000000000000D-01  1.3392585175497D+00 -3.9396759587837D-01
48  4.7000000000000D-01  1.3418255085404D+00 -3.6693625952735D-01
49  4.8000000000000D-01  1.3430992780290D+00 -3.3935472311690D-01
50  4.9000000000000D-01  1.3430936843381D+00 -3.1130401724511D-01
51  5.0000000000000D-01  1.3418245818253D+00 -2.8286173134187D-01
52  5.1000000000000D-01  1.3393097818515D+00 -2.5410162657527D-01
53  5.2000000000000D-01  1.3355690081608D+00 -2.2509328991605D-01
54  5.3000000000000D-01  1.3306238467307D+00 -1.9590183160622D-01
55  5.4000000000000D-01  1.3244976901794D+00 -1.6658762794662D-01
56  5.5000000000000D-01  1.3172156768453D+00 -1.3720611097143D-01
57  5.6000000000000D-01  1.3088046246805D+00 -1.0780760622207D-01
58  5.7000000000000D-01  1.2992929601286D+00 -7.8437219467559D-02
59  5.8000000000000D-01  1.2887106421832D+00 -4.9134772849046D-02
60  5.9000000000000D-01  1.2770890818526D+00 -1.9934790552432D-02
61  6.0000000000000D-01  1.2644610572770D+00  9.1334662596219D-03
62  6.1000000000000D-01  1.2508606247762D+00  3.8045915896479D-02
63  6.2000000000000D-01  1.2363230261232D+00  6.6783524975422D-02
64  6.3000000000000D-01  1.2208845923657D+00  9.5332131008613D-02
65  6.4000000000000D-01  1.2045826445373D+00  1.2368222045436D-01
66  6.5000000000000D-01  1.1874553916196D+00  1.5182866428154D-01
67  6.6000000000000D-01  1.1695418261345D+00  1.7977041341674D-01
68  6.7000000000000D-01  1.1508816177622D+00  2.0751015674766D-01
69  6.8000000000000D-01  1.1315150053931D+00  2.3505394464218D-01
70  6.9000000000000D-01  1.1114826880374D+00  2.6241078120347D-01
71  7.0000000000000D-01  1.0908257150201D+00  2.8959218872471D-01
72  7.1000000000000D-01  1.0695853759031D+00  3.1661174802083D-01
73  7.2000000000000D-01  1.0478030905761D+00  3.4348461850512D-01
74  7.3000000000000D-01  1.0255202999647D+00  3.7022704203964D-01
75  7.4000000000000D-01  1.0027783578016D+00  3.9685583472229D-01
76  7.5000000000000D-01  9.7961842390661D-01  4.2338787087665D-01
77  7.6000000000000D-01  9.5608135941743D-01  4.4983956358411D-01
78  7.7000000000000D-01  9.3220762440294D-01  4.7622634613898D-01
79  7.8000000000000D-01  9.0803717828580D-01  5.0256215882054D-01
80  7.9000000000000D-01  8.8360938348625D-01  5.2885894535295D-01
81  8.0000000000000D-01  8.5896291268664D-01  5.5512616337435D-01
82  8.1000000000000D-01  8.3413566009928D-01  5.8137031315328D-01
83  8.2000000000000D-01  8.0916465710215D-01  6.0759448867722D-01
84  8.3000000000000D-01  7.8408599258607D-01  6.3379795509582D-01
85  8.4000000000000D-01  7.5893473833474D-01  6.5997575632985D-01
86  8.5000000000000D-01  7.3374487973443D-01  6.8611835645722D-01
87  8.6000000000000D-01  7.0854925208402D-01  7.1221131826271D-01
88  8.7000000000000D-01  6.8337948274817D-01  7.3823502208661D-01
89  8.8000000000000D-01  6.5826593936751D-01  7.6416442783390D-01
90  8.9000000000000D-01  6.3323768430884D-01  7.8996888271102D-01
91  9.0000000000000D-01  6.0832243550688D-01  8.1561197694137D-01
92  9.1000000000000D-01  5.8354653381661D-01  8.4105144937918D-01
93  9.2000000000000D-01  5.5893491696158D-01  8.6623914459202D-01
94  9.3000000000000D-01  5.3451110012996D-01  8.9112102262504D-01
95  9.4000000000000D-01  5.1029716323565D-01  9.1563722228528D-01
96  9.5000000000000D-01  4.8631374482708D-01  9.3972217840634D-01
97  9.6000000000000D-01  4.6258004259207D-01  9.6330479316898D-01
98  9.7000000000000D-01  4.3911382037268D-01  9.8630866116488D-01
99  9.8000000000000D-01  4.1593142157008D-01  1.0086523475019D+00
100  9.9000000000000D-01  3.9304778878603D-01  1.0302497178629D+00
101  1.0000000000000D+00  3.7047648951533D-01  1.0510103190509D+00
102  1.0100000000000D+00  3.4822974767121D-01  1.0708398081677D+00
103  1.0200000000000D+00  3.2631848069689D-01  1.0896404282339D+00
104  1.0300000000000D+00  3.0475234198530D-01  1.1073115276741D+00
105  1.0400000000000D+00  2.8353976830293D-01  1.1237501207774D+00
106  1.0500000000000D+00  2.6268803188732D-01  1.1388514859121D+00
107  1.0600000000000D+00  2.4220329686345D-01  1.1525097979751D+00
108  1.0700000000000D+00  2.2209067960227D-01  1.1646187912748D+00
109  1.0800000000000D+00  2.0235431262530D-01  1.1750724488008D+00
110  1.0900000000000D+00  1.8299741163967D-01  1.1837657135825D+00
111  1.1000000000000D+00  1.6402234527404D-01  1.1905952176512D+00
112  1.1100000000000D+00  1.4543070707167D-01  1.1954600239344D+00
113  1.1200000000000D+00  1.2722338928752D-01  1.1982623762785D+00
114  1.1300000000000D+00  1.0940065802653D-01  1.1989084526638D+00
115  1.1400000000000D+00  9.1962229255766D-02  1.1973091165976D+00
116  1.1500000000000D+00  7.4907345220369D-02  1.1933806616291D+00
117  1.1600000000000D+00  5.8234850792723D-02  1.1870455439032D+00
118  1.1700000000000D+00  4.1943269286191D-02  1.1782330976807D+00
119  1.1800000000000D+00  2.6030877270437D-02  1.1668802288057D+00
120  1.1900000000000D+00  1.0495777935234D-02  1.1529320812120D+00
121  1.2000000000000D+00 -4.6640274463505D-03  1.1363426715970D+00
122  1.2100000000000D+00 -1.9450570385097D-02  1.1170754876181D+00
123  1.2200000000000D+00 -3.3865848788959D-02  1.0951040451285D+00
124  1.2300000000000D+00 -4.7911763724464D-02  1.0704124001374D+00
125  1.2400000000000D+00 -6.1590059707510D-02  1.0429956114208D+00
126  1.2500000000000D+00 -7.4902268876758D-02  1.0128601500572D+00
127  1.2600000000000D+00 -8.7849659385372D-02  9.8002425237239D-01
128  1.2700000000000D+00 -1.0043318832705D-01  9.4451821302091D-01
129  1.2800000000000D+00 -1.1265345946675D-01  9.0638461549531D-01
130  1.2900000000000D+00 -1.2451068603236D-01  8.6567849753099D-01
131  1.3000000000000D+00 -1.3600465880176D-01  8.2246744914547D-01
132  1.3100000000000D+00 -1.4713471965804D-01  7.7683164182133D-01
133  1.3200000000000D+00 -1.5789974078453D-01  7.2886378735737D-01
134  1.3300000000000D+00 -1.6829810963580D-01  6.7866902535864D-01
135  1.3400000000000D+00 -1.7832771975346D-01  6.2636473918317D-01
136  1.3500000000000D+00 -1.8798596751658D-01  5.7208029989752D-01
137  1.3600000000000D+00 -1.9726975484731D-01  5.1595673867126D-01
138  1.3700000000000D+00 -2.0617549784217D-01  4.5814634866630D-01
139  1.3800000000000D+00 -2.1469914134517D-01  3.9881221690896D-01
140  1.3900000000000D+00 -2.2283617934242D-01  3.3812768834698D-01
141  1.4000000000000D+00 -2.3058168110467D-01  2.7627576371007D-01
142  1.4100000000000D+00 -2.3793032296335D-01  2.1344843330530D-01
143  1.4200000000000D+00 -2.4487642551932D-01  1.4984594996163D-01
144  1.4300000000000D+00 -2.5141399616065D-01  8.5676043373514D-02
145  1.4400000000000D+00 -2.5753677663226D-01  2.1153079763748D-02
146  1.4500000000000D+00 -2.6323829545237D-01 -4.3502829878092D-02
147  1.4600000000000D+00 -2.6851192493268D-01 -1.0806676922972D-01
148  1.4700000000000D+00 -2.7335094250056D-01 -1.7230999931351D-01
149  1.4800000000000D+00 -2.7774859608908D-01 -2.3600098076473D-01
150  1.4900000000000D+00 -2.8169817324851D-01 -2.9890643073933D-01
151  1.5000000000000D+00 -2.8519307371143D-01 -3.6079241042363D-01
152  1.5100000000000D+00 -2.8822688507176D-01 -4.2142543827149D-01
153  1.5200000000000D+00 -2.9079346127818D-01 -4.8057362463285D-01
154  1.5300000000000D+00 -2.9288700360209D-01 -5.3800782285839D-01
155  1.5400000000000D+00 -2.9450214379293D-01 -5.9350279284770D-01
156  1.5500000000000D+00 -2.9563402906015D-01 -6.4683837181021D-01
157  1.5600000000000D+00 -2.9627840864312D-01 -6.9780064897257D-01
158  1.5700000000000D+00 -2.9643172159310D-01 -7.4618313881130D-01
159  1.5800000000000D+00 -2.9609118557449D-01 -7.9178795021268D-01
160  1.5900000000000D+00 -2.9525488633822D-01 -8.3442694660690D-01
161  1.6000000000000D+00 -2.9392186769324D-01 -8.7392289472629D-01
162  1.6100000000000D+00 -2.9209222170485D-01 -9.1011059816974D-01
163  1.6200000000000D+00 -2.8976717894530D-01 -9.4283801340200D-01
164  1.6300000000000D+00 -2.8694919863652D-01 -9.7196734597851D-01
165  1.6400000000000D+00 -2.8364205849920D-01 -9.9737612446152D-01
166  1.6500000000000D+00 -2.7985094428281D-01 -1.0189582517419D+00
167  1.6600000000000D+00 -2.7558253877862D-01 -1.0366250310625D+00
168  1.6700000000000D+00 -2.7084511043476D-01 -1.0503061685016D+00
169  1.6800000000000D+00 -2.6564860137363D-01 -1.0599507491928D+00
170  1.6900000000000D+00 -2.6000471506884D-01 -1.0655281909853D+00
171  1.7000000000000D+00 -2.5392700350293D-01 -1.0670291731214D+00
172  1.7100000000000D+00 -2.4743095417836D-01 -1.0644665452527D+00
173  1.7200000000000D+00 -2.4053407685819D-01 -1.0578762151541D+00
174  1.7300000000000D+00 -2.3325599048601D-01 -1.0473180215337D+00
175  1.7400000000000D+00 -2.2561851026037D-01 -1.0328765916866D+00
176  1.7500000000000D+00 -2.1764573533972D-01 -1.0146621907682D+00
177  1.7600000000000D+00 -2.0936414288097D-01 -9.9281161123364D-01
178  1.7700000000000D+00 -2.0080265710116D-01 -9.6748884280499D-01
179  1.7800000000000D+00 -1.9199279044874D-01 -9.3888634443487D-01
180  1.7900000000000D+00 -1.8296865110589D-01 -9.0722516351976D-01
181  1.8000000000000D+00 -1.7376695750327D-01 -8.7275514071410D-01
182  1.8100000000000D+00 -1.6442756324002D-01 -8.3575941722743D-01
183  1.8200000000000D+00 -1.5499360183827D-01 -7.9655564905051D-01
184  1.8300000000000D+00 -1.4550996470438D-01 -7.5548339482734D-01
185  1.8400000000000D+00 -1.3602235725775D-01 -7.1289634001602D-01
186  1.8500000000000D+00 -1.2657636004342D-01 -6.6915371352518D-01
187  1.8600000000000D+00 -1.1721563289532D-01 -6.2460471868753D-01
188  1.8700000000000D+00 -1.0798234772877D-01 -5.7959145157482D-01
189  1.8800000000000D+00 -9.8917380844643D-02 -5.3444962973438D-01
190  1.8900000000000D+00 -9.0060084664434D-02 -4.8950598640084D-01
191  1.9000000000000D+00 -8.1448181420730D-02 -4.4507667119667D-01
192  1.9100000000000D+00 -7.3117733214588D-02 -4.0146627606129D-01
193  1.9200000000000D+00 -6.5103045707138D-02 -3.5896634114790D-01
194  1.9300000000000D+00 -5.7436605590171D-02 -3.1785416017290D-01
195  1.9400000000000D+00 -5.0149019967052D-02 -2.7839163337026D-01
196  1.9500000000000D+00 -4.3268960838031D-02 -2.4082419021091D-01
197  1.9600000000000D+00 -3.6823105806794D-02 -2.0537971472516D-01
198  1.9700000000000D+00 -3.0836084065670D-02 -1.7226754795524D-01
199  1.9800000000000D+00 -2.5330430678679D-02 -1.4167760217860D-01
200  1.9900000000000D+00 -2.0326547302334D-02 -1.1377957054620D-01
201  2.0000000000000D+00 -1.5842667097586D-02 -8.8722213460914D-02
202  2.0100000000000D+00 -1.1898288019720D-02 -6.6651951705294D-02
203  2.0200000000000D+00 -8.4994786342490D-03 -4.7630924525169D-02
204  2.0300000000000D+00 -5.6472191369933D-03 -3.1681214984970D-02
205  2.0400000000000D+00 -3.3701759663793D-03 -1.8972147410078D-02
206  2.0500000000000D+00 -1.7114159222678D-03 -9.7455136238521D-03
207  2.0600000000000D+00 -6.7820497027643D-04 -4.0356365713722D-03
208  2.0700000000000D+00 -1.4188818976460D-04 -1.0671013020022D-03
209  2.0800000000000D+00  5.0667516168335D-05  6.6933886960580D-05
210  2.0900000000000D+00  5.2811730256069D-05  1.9742172262634D-04
211  2.1000000000000D+00 -4.5963591745192D-06 -1.8858842014108D-05
212  2.1100000000000D+00 -2.3762417346042D-05 -1.0238347897550D-04
213  2.1200000000000D+00 -1.0071697425327D-05 -4.4473830309973D-05
214  2.1300000000000D+00  3.0389970153618D-06  1.1926276726264D-05
215  2.1400000000000D+00  3.7116568681642D-06  1.4935698196077D-05
216  2.1500000000000D+00  8.1481985318185D-09  1.0625021769272D-07
217  2.1600000000000D+00  9.9782497166394D-08  1.3011357055737D-06
218  2.1700000000000D+00  5.7460958071953D-08  7.4927473602127D-07
219  2.1800000000000D+00  0.0000000000000D+00  0.0000000000000D+00
220  2.1900000000000D+00  0.0000000000000D+00  0.0000000000000D+00
221  2.2000000000000D+00  0.0000000000000D+00  0.0000000000000D+00
222  2.2100000000000D+00  0.0000000000000D+00  0.0000000000000D+00
223  2.2200000000000D+00  0.0000000000000D+00  0.0000000000000D+00
224  2.2300000000000D+00  0.0000000000000D+00  0.0000000000000D+00
225  2.2400000000000D+00  0.0000000000000D+00  0.0000000000000D+00
226  2.2500000000000D+00  0.0000000000000D+00  0.0000000000000D+00
227  2.2600000000000D+00  0.0000000000000D+00  0.0000000000000D+00
228  2.2700000000000D+00  0.0000000000000D+00  0.0000000000000D+00
229  2.2800000000000D+00  0.0000000000000D+00  0.0000000000000D+00
230  2.2900000000000D+00  0.0000000000000D+00  0.0000000000000D+00
231  2.3000000000000D+00  0.0000000000000D+00  0.0000000000000D+00
232  2.3100000000000D+00  0.0000000000000D+00  0.0000000000000D+00
233  2.3200000000000D+00  0.0000000000000D+00  0.0000000000000D+00
234  2.3300000000000D+00  0.0000000000000D+00  0.0000000000000D+00
235  2.3400000000000D+00  0.0000000000000D+00  0.0000000000000D+00
236  2.3500000000000D+00  0.0000000000000D+00  0.0000000000000D+00
237  2.3600000000000D+00  0.0000000000000D+00  0.0000000000000D+00
238  2.3700000000000D+00  0.0000000000000D+00  0.0000000000000D+00
239  2.3800000000000D+00  0.0000000000000D+00  0.0000000000000D+00
240  2.3900000000000D+00  0.0000000000000D+00  0.0000000000000D+00
241  2.4000000000000D+00  0.0000000000000D+00  0.0000000000000D+00
242  2.4100000000000D+00  0.0000000000000D+00  0.0000000000000D+00
243  2.4200000000000D+00  0.0000000000000D+00  0.0000000000000D+00
244  2.4300000000000D+00  0.0000000000000D+00  0.0000000000000D+00
245  2.4400000000000D+00  0.0000000000000D+00  0.0000000000000D+00
246  2.4500000000000D+00  0.0000000000000D+00  0.0000000000000D+00
247  2.4600000000000D+00  0.0000000000000D+00  0.0000000000000D+00
248  2.4700000000000D+00  0.0000000000000D+00  0.0000000000000D+00
249  2.4800000000000D+00  0.0000000000000D+00  0.0000000000000D+00
250  2.4900000000000D+00  0.0000000000000D+00  0.0000000000000D+00
251  2.5000000000000D+00  0.0000000000000D+00  0.0000000000000D+00
252  2.5100000000000D+00  0.0000000000000D+00  0.0000000000000D+00
253  2.5200000000000D+00  0.0000000000000D+00  0.0000000000000D+00
254  2.5300000000000D+00  0.0000000000000D+00  0.0000000000000D+00
255  2.5400000000000D+00  0.0000000000000D+00  0.0000000000000D+00
256  2.5500000000000D+00  0.0000000000000D+00  0.0000000000000D+00
257  2.5600000000000D+00  0.0000000000000D+00  0.0000000000000D+00
258  2.5700000000000D+00  0.0000000000000D+00  0.0000000000000D+00
259  2.5800000000000D+00  0.0000000000000D+00  0.0000000000000D+00
260  2.5900000000000D+00  0.0000000000000D+00  0.0000000000000D+00
261  2.6000000000000D+00  0.0000000000000D+00  0.0000000000000D+00
262  2.6100000000000D+00  0.0000000000000D+00  0.0000000000000D+00
263  2.6200000000000D+00  0.0000000000000D+00  0.0000000000000D+00
264  2.6300000000000D+00  0.0000000000000D+00  0.0000000000000D+00
265  2.6400000000000D+00  0.0000000000000D+00  0.0000000000000D+00
266  2.6500000000000D+00  0.0000000000000D+00  0.0000000000000D+00
267  2.6600000000000D+00  0.0000000000000D+00  0.0000000000000D+00
268  2.6700000000000D+00  0.0000000000000D+00  0.0000000000000D+00
269  2.6800000000000D+00  0.0000000000000D+00  0.0000000000000D+00
270  2.6900000000000D+00  0.0000000000000D+00  0.0000000000000D+00
271  2.7000000000000D+00  0.0000000000000D+00  0.0000000000000D+00
272  2.7100000000000D+00  0.0000000000000D+00  0.0000000000000D+00
273  2.7200000000000D+00  0.0000000000000D+00  0.0000000000000D+00
274  2.7300000000000D+00  0.0000000000000D+00  0.0000000000000D+00
275  2.7400000000000D+00  0.0000000000000D+00  0.0000000000000D+00
276  2.7500000000000D+00  0.0000000000000D+00  0.0000000000000D+00
277  2.7600000000000D+00  0.0000000000000D+00  0.0000000000000D+00
278  2.7700000000000D+00  0.0000000000000D+00  0.0000000000000D+00
279  2.7800000000000D+00  0.0000000000000D+00  0.0000000000000D+00
280  2.7900000000000D+00  0.0000000000000D+00  0.0000000000000D+00
281  2.8000000000000D+00  0.0000000000000D+00  0.0000000000000D+00
282  2.8100000000000D+00  0.0000000000000D+00  0.0000000000000D+00
283  2.8200000000000D+00  0.0000000000000D+00  0.0000000000000D+00
284  2.8300000000000D+00  0.0000000000000D+00  0.0000000000000D+00
285  2.8400000000000D+00  0.0000000000000D+00  0.0000000000000D+00
286  2.8500000000000D+00  0.0000000000000D+00  0.0000000000000D+00
287  2.8600000000000D+00  0.0000000000000D+00  0.0000000000000D+00
288  2.8700000000000D+00  0.0000000000000D+00  0.0000000000000D+00
289  2.8800000000000D+00  0.0000000000000D+00  0.0000000000000D+00
290  2.8900000000000D+00  0.0000000000000D+00  0.0000000000000D+00
291  2.9000000000000D+00  0.0000000000000D+00  0.0000000000000D+00
292  2.9100000000000D+00  0.0000000000000D+00  0.0000000000000D+00
293  2.9200000000000D+00  0.0000000000000D+00  0.0000000000000D+00
294  2.9300000000000D+00  0.0000000000000D+00  0.0000000000000D+00
295  2.9400000000000D+00  0.0000000000000D+00  0.0000000000000D+00
296  2.9500000000000D+00  0.0000000000000D+00  0.0000000000000D+00
297  2.9600000000000D+00  0.0000000000000D+00  0.0000000000000D+00
298  2.9700000000000D+00  0.0000000000000D+00  0.0000000000000D+00
299  2.9800000000000D+00  0.0000000000000D+00  0.0000000000000D+00
300  2.9900000000000D+00  0.0000000000000D+00  0.0000000000000D+00
301  3.0000000000000D+00  0.0000000000000D+00  0.0000000000000D+00
302  3.0100000000000D+00  0.0000000000000D+00  0.0000000000000D+00
303  3.0200000000000D+00  0.0000000000000D+00  0.0000000000000D+00
304  3.0300000000000D+00  0.0000000000000D+00  0.0000000000000D+00
305  3.0400000000000D+00  0.0000000000000D+00  0.0000000000000D+00
306  3.0500000000000D+00  0.0000000000000D+00  0.0000000000000D+00
307  3.0600000000000D+00  0.0000000000000D+00  0.0000000000000D+00
308  3.0700000000000D+00  0.0000000000000D+00  0.0000000000000D+00
309  3.0800000000000D+00  0.0000000000000D+00  0.0000000000000D+00
310  3.0900000000000D+00  0.0000000000000D+00  0.0000000000000D+00
311  3.1000000000000D+00  0.0000000000000D+00  0.0000000000000D+00
312  3.1100000000000D+00  0.0000000000000D+00  0.0000000000000D+00
313  3.1200000000000D+00  0.0000000000000D+00  0.0000000000000D+00
314  3.1300000000000D+00  0.0000000000000D+00  0.0000000000000D+00
315  3.1400000000000D+00  0.0000000000000D+00  0.0000000000000D+00
316  3.1500000000000D+00  0.0000000000000D+00  0.0000000000000D+00
317  3.1600000000000D+00  0.0000000000000D+00  0.0000000000000D+00
318  3.1700000000000D+00  0.0000000000000D+00  0.0000000000000D+00
319  3.1800000000000D+00  0.0000000000000D+00  0.0000000000000D+00
320  3.1900000000000D+00  0.0000000000000D+00  0.0000000000000D+00
321  3.2000000000000D+00  0.0000000000000D+00  0.0000000000000D+00
322  3.2100000000000D+00  0.0000000000000D+00  0.0000000000000D+00
323  3.2200000000000D+00  0.0000000000000D+00  0.0000000000000D+00
324  3.2300000000000D+00  0.0000000000000D+00  0.0000000000000D+00
325  3.2400000000000D+00  0.0000000000000D+00  0.0000000000000D+00
326  3.2500000000000D+00  0.0000000000000D+00  0.0000000000000D+00
327  3.2600000000000D+00  0.0000000000000D+00  0.0000000000000D+00
328  3.2700000000000D+00  0.0000000000000D+00  0.0000000000000D+00
329  3.2800000000000D+00  0.0000000000000D+00  0.0000000000000D+00
330  3.2900000000000D+00  0.0000000000000D+00  0.0000000000000D+00
331  3.3000000000000D+00  0.0000000000000D+00  0.0000000000000D+00
332  3.3100000000000D+00  0.0000000000000D+00  0.0000000000000D+00
333  3.3200000000000D+00  0.0000000000000D+00  0.0000000000000D+00
334  3.3300000000000D+00  0.0000000000000D+00  0.0000000000000D+00
335  3.3400000000000D+00  0.0000000000000D+00  0.0000000000000D+00
336  3.3500000000000D+00  0.0000000000000D+00  0.0000000000000D+00
337  3.3600000000000D+00  0.0000000000000D+00  0.0000000000000D+00
338  3.3700000000000D+00  0.0000000000000D+00  0.0000000000000D+00
339  3.3800000000000D+00  0.0000000000000D+00  0.0000000000000D+00
340  3.3900000000000D+00  0.0000000000000D+00  0.0000000000000D+00
341  3.4000000000000D+00  0.0000000000000D+00  0.0000000000000D+00
342  3.4100000000000D+00  0.0000000000000D+00  0.0000000000000D+00
343  3.4200000000000D+00  0.0000000000000D+00  0.0000000000000D+00
344  3.4300000000000D+00  0.0000000000000D+00  0.0000000000000D+00
345  3.4400000000000D+00  0.0000000000000D+00  0.0000000000000D+00
346  3.4500000000000D+00  0.0000000000000D+00  0.0000000000000D+00
347  3.4600000000000D+00  0.0000000000000D+00  0.0000000000000D+00
348  3.4700000000000D+00  0.0000000000000D+00  0.0000000000000D+00
349  3.4800000000000D+00  0.0000000000000D+00  0.0000000000000D+00
350  3.4900000000000D+00  0.0000000000000D+00  0.0000000000000D+00
351  3.5000000000000D+00  0.0000000000000D+00  0.0000000000000D+00
352  3.5100000000000D+00  0.0000000000000D+00  0.0000000000000D+00
353  3.5200000000000D+00  0.0000000000000D+00  0.0000000000000D+00
354  3.5300000000000D+00  0.0000000000000D+00  0.0000000000000D+00
355  3.5400000000000D+00  0.0000000000000D+00  0.0000000000000D+00
356  3.5500000000000D+00  0.0000000000000D+00  0.0000000000000D+00
357  3.5600000000000D+00  0.0000000000000D+00  0.0000000000000D+00
358  3.5700000000000D+00  0.0000000000000D+00  0.0000000000000D+00
359  3.5800000000000D+00  0.0000000000000D+00  0.0000000000000D+00
360  3.5900000000000D+00  0.0000000000000D+00  0.0000000000000D+00
361  3.6000000000000D+00  0.0000000000000D+00  0.0000000000000D+00
362  3.6100000000000D+00  0.0000000000000D+00  0.0000000000000D+00
363  3.6200000000000D+00  0.0000000000000D+00  0.0000000000000D+00
364  3.6300000000000D+00  0.0000000000000D+00  0.0000000000000D+00
365  3.6400000000000D+00  0.0000000000000D+00  0.0000000000000D+00
366  3.6500000000000D+00  0.0000000000000D+00  0.0000000000000D+00
367  3.6600000000000D+00  0.0000000000000D+00  0.0000000000000D+00
368  3.6700000000000D+00  0.0000000000000D+00  0.0000000000000D+00
369  3.6800000000000D+00  0.0000000000000D+00  0.0000000000000D+00
370  3.6900000000000D+00  0.0000000000000D+00  0.0000000000000D+00
371  3.7000000000000D+00  0.0000000000000D+00  0.0000000000000D+00
372  3.7100000000000D+00  0.0000000000000D+00  0.0000000000000D+00
373  3.7200000000000D+00  0.0000000000000D+00  0.0000000000000D+00
374  3.7300000000000D+00  0.0000000000000D+00  0.0000000000000D+00
375  3.7400000000000D+00  0.0000000000000D+00  0.0000000000000D+00
376  3.7500000000000D+00  0.0000000000000D+00  0.0000000000000D+00
377  3.7600000000000D+00  0.0000000000000D+00  0.0000000000000D+00
378  3.7700000000000D+00  0.0000000000000D+00  0.0000000000000D+00
379  3.7800000000000D+00  0.0000000000000D+00  0.0000000000000D+00
380  3.7900000000000D+00  0.0000000000000D+00  0.0000000000000D+00
381  3.8000000000000D+00  0.0000000000000D+00  0.0000000000000D+00
382  3.8100000000000D+00  0.0000000000000D+00  0.0000000000000D+00
383  3.8200000000000D+00  0.0000000000000D+00  0.0000000000000D+00
384  3.8300000000000D+00  0.0000000000000D+00  0.0000000000000D+00
385  3.8400000000000D+00  0.0000000000000D+00  0.0000000000000D+00
386  3.8500000000000D+00  0.0000000000000D+00  0.0000000000000D+00
387  3.8600000000000D+00  0.0000000000000D+00  0.0000000000000D+00
388  3.8700000000000D+00  0.0000000000000D+00  0.0000000000000D+00
389  3.8800000000000D+00  0.0000000000000D+00  0.0000000000000D+00
390  3.8900000000000D+00  0.0000000000000D+00  0.0000000000000D+00
391  3.9000000000000D+00  0.0000000000000D+00  0.0000000000000D+00
392  3.9100000000000D+00  0.0000000000000D+00  0.0000000000000D+00
393  3.9200000000000D+00  0.0000000000000D+00  0.0000000000000D+00
394  3.9300000000000D+00  0.0000000000000D+00  0.0000000000000D+00
395  3.9400000000000D+00  0.0000000000000D+00  0.0000000000000D+00
396  3.9500000000000D+00  0.0000000000000D+00  0.0000000000000D+00
397  3.9600000000000D+00  0.0000000000000D+00  0.0000000000000D+00
398  3.9700000000000D+00  0.0000000000000D+00  0.0000000000000D+00
399  3.9800000000000D+00  0.0000000000000D+00  0.0000000000000D+00
400  3.9900000000000D+00  0.0000000000000D+00  0.0000000000000D+00
401  4.0000000000000D+00  0.0000000000000D+00  0.0000000000000D+00
402  4.0100000000000D+00  0.0000000000000D+00  0.0000000000000D+00
403  4.0200000000000D+00  0.0000000000000D+00  0.0000000000000D+00
404  4.0300000000000D+00  0.0000000000000D+00  0.0000000000000D+00
405  4.0400000000000D+00  0.0000000000000D+00  0.0000000000000D+00
406  4.0500000000000D+00  0.0000000000000D+00  0.0000000000000D+00
407  4.0600000000000D+00  0.0000000000000D+00  0.0000000000000D+00
408  4.0700000000000D+00  0.0000000000000D+00  0.0000000000000D+00
409  4.0800000000000D+00  0.0000000000000D+00  0.0000000000000D+00
410  4.0900000000000D+00  0.0000000000000D+00  0.0000000000000D+00
411  4.1000000000000D+00  0.0000000000000D+00  0.0000000000000D+00
412  4.1100000000000D+00  0.0000000000000D+00  0.0000000000000D+00
413  4.1200000000000D+00  0.0000000000000D+00  0.0000000000000D+00
414  4.1300000000000D+00  0.0000000000000D+00  0.0000000000000D+00
415  4.1400000000000D+00  0.0000000000000D+00  0.0000000000000D+00
416  4.1500000000000D+00  0.0000000000000D+00  0.0000000000000D+00
417  4.1600000000000D+00  0.0000000000000D+00  0.0000000000000D+00
418  4.1700000000000D+00  0.0000000000000D+00  0.0000000000000D+00
419  4.1800000000000D+00  0.0000000000000D+00  0.0000000000000D+00
420  4.1900000000000D+00  0.0000000000000D+00  0.0000000000000D+00
421  4.2000000000000D+00  0.0000000000000D+00  0.0000000000000D+00
422  4.2100000000000D+00  0.0000000000000D+00  0.0000000000000D+00
423  4.2200000000000D+00  0.0000000000000D+00  0.0000000000000D+00
424  4.2300000000000D+00  0.0000000000000D+00  0.0000000000000D+00
425  4.2400000000000D+00  0.0000000000000D+00  0.0000000000000D+00
426  4.2500000000000D+00  0.0000000000000D+00  0.0000000000000D+00
427  4.2600000000000D+00  0.0000000000000D+00  0.0000000000000D+00
428  4.2700000000000D+00  0.0000000000000D+00  0.0000000000000D+00
429  4.2800000000000D+00  0.0000000000000D+00  0.0000000000000D+00
430  4.2900000000000D+00  0.0000000000000D+00  0.0000000000000D+00
431  4.3000000000000D+00  0.0000000000000D+00  0.0000000000000D+00
432  4.3100000000000D+00  0.0000000000000D+00  0.0000000000000D+00
433  4.3200000000000D+00  0.0000000000000D+00  0.0000000000000D+00
434  4.3300000000000D+00  0.0000000000000D+00  0.0000000000000D+00
435  4.3400000000000D+00  0.0000000000000D+00  0.0000000000000D+00
436  4.3500000000000D+00  0.0000000000000D+00  0.0000000000000D+00
437  4.3600000000000D+00  0.0000000000000D+00  0.0000000000000D+00
438  4.3700000000000D+00  0.0000000000000D+00  0.0000000000000D+00
439  4.3800000000000D+00  0.0000000000000D+00  0.0000000000000D+00
440  4.3900000000000D+00  0.0000000000000D+00  0.0000000000000D+00
441  4.4000000000000D+00  0.0000000000000D+00  0.0000000000000D+00
442  4.4100000000000D+00  0.0000000000000D+00  0.0000000000000D+00
443  4.4200000000000D+00  0.0000000000000D+00  0.0000000000000D+00