Ag    ONCVPSP-3.2.3  r_core=   1.41384   1.46535   1.61207
47.0000     19.0000      170222    zatom,zion,pspd
8      11   2     4   600     0    pspcod,pspxc,lmax,lloc,mmax,r2well
5.99000000  7.00000000  0.00000000    rchrg fchrg qchrg
2     4     3     0    nproj
3     1           extension_switch
4     3     0    nprojso
0                        -3.4047486449824D-01  9.5547603408495D+00
1  0.0000000000000D+00 -4.7968747862726D-09 -6.2066352057855D-11
2  1.0000000000000D-02  7.3388696852392D-02  7.8630697148074D-02
3  2.0000000000000D-02  1.4618785903717D-01  1.5707485165827D-01
4  3.0000000000000D-02  2.1781419426501D-01  2.3514649379083D-01
5  4.0000000000000D-02  2.8769681085734D-01  3.1266079732501D-01
6  5.0000000000000D-02  3.5528320893261D-01  3.8943464564171D-01
7  6.0000000000000D-02  4.2004502411750D-01  4.6528719103844D-01
8  7.0000000000000D-02  4.8148344701616D-01  5.4004040509456D-01
9  8.0000000000000D-02  5.3913424646712D-01  6.1351961796698D-01
10  9.0000000000000D-02  5.9257233047796D-01  6.8555404457211D-01
11  1.0000000000000D-01  6.4141578556369D-01  7.5597729569937D-01
12  1.1000000000000D-01  6.8532934292502D-01  8.2462787220208D-01
13  1.2000000000000D-01  7.2402722837075D-01  8.9134964052331D-01
14  1.3000000000000D-01  7.5727536198818D-01  9.5599228793458D-01
15  1.4000000000000D-01  7.8489288316025D-01  1.0184117559941D+00
16  1.5000000000000D-01  8.0675298647359D-01  1.0784706508648D+00
17  1.6000000000000D-01  8.2278306420807D-01  1.1360386292722D+00
18  1.7000000000000D-01  8.3296416129432D-01  1.1909927590225D+00
19  1.8000000000000D-01  8.3732975871390D-01  1.2432178531448D+00
20  1.9000000000000D-01  8.3596391114894D-01  1.2926067768638D+00
21  2.0000000000000D-01  8.2899877411036D-01  1.3390607267467D+00
22  2.1000000000000D-01  8.1661156464712D-01  1.3824894815085D+00
23  2.2000000000000D-01  7.9902100792370D-01  1.4228116240877D+00
24  2.3000000000000D-01  7.7648332932727D-01  1.4599547347301D+00
25  2.4000000000000D-01  7.4928785821365D-01  1.4938555549378D+00
26  2.5000000000000D-01  7.1775231482247D-01  1.5244601222469D+00
27  2.6000000000000D-01  6.8221785620443D-01  1.5517238758999D+00
28  2.7000000000000D-01  6.4304396013406D-01  1.5756117335663D+00
29  2.8000000000000D-01  6.0060322788625D-01  1.5960981393484D+00
30  2.9000000000000D-01  5.5527618739421D-01  1.6131670833745D+00
31  3.0000000000000D-01  5.0744617767410D-01  1.6268120933469D+00
32  3.1000000000000D-01  4.5749439350045D-01  1.6370361984543D+00
33  3.2000000000000D-01  4.0579516617206D-01  1.6438518661055D+00
34  3.3000000000000D-01  3.5271155186884D-01  1.6472809119652D+00
35  3.4000000000000D-01  2.9859129362541D-01  1.6473543838014D+00
36  3.5000000000000D-01  2.4376321642290D-01  1.6441124196634D+00
37  3.6000000000000D-01  1.8853410742142D-01  1.6376040809247D+00
38  3.7000000000000D-01  1.3318612503703D-01  1.6278871607250D+00
39  3.8000000000000D-01  7.7974771537417D-02  1.6150279683504D+00
40  3.9000000000000D-01  2.3127454224665D-02  1.5991010900884D+00
41  4.0000000000000D-01 -3.1157349753184D-02  1.5801891270945D+00
42  4.1000000000000D-01 -8.4710320216695D-02  1.5583824108074D+00
43  4.2000000000000D-01 -1.3739091805234D-01  1.5337786964526D+00
44  4.3000000000000D-01 -1.8908642258980D-01  1.5064828351823D+00
45  4.4000000000000D-01 -2.3971040837538D-01  1.4766064254116D+00
46  4.5000000000000D-01 -2.8920069718516D-01  1.4442674439307D+00
47  4.6000000000000D-01 -3.3751683030561D-01  1.4095898574029D+00
48  4.7000000000000D-01 -3.8463711459340D-01  1.3727032148909D+00
49  4.8000000000000D-01 -4.3055530347202D-01  1.3337422221063D+00
50  4.9000000000000D-01 -4.7527698069866D-01  1.2928462981297D+00
51  5.0000000000000D-01 -5.1881572032497D-01  1.2501591154206D+00
52  5.1000000000000D-01 -5.6118910068073D-01  1.2058281240144D+00
53  5.2000000000000D-01 -6.0241465334632D-01  1.1600040608948D+00
54  5.3000000000000D-01 -6.4250582988634D-01  1.1128404456297D+00
55  5.4000000000000D-01 -6.8146806954865D-01  1.0644930634713D+00
56  5.5000000000000D-01 -7.1929505017020D-01  1.0151194372406D+00
57  5.6000000000000D-01 -7.5596520217275D-01  9.6487828944151D-01
58  5.7000000000000D-01 -7.9143856179612D-01  9.1392899618750D-01
59  5.8000000000000D-01 -8.2565403466368D-01  8.6243103465921D-01
60  5.9000000000000D-01 -8.5852713443711D-01  8.1054342595250D-01
61  6.0000000000000D-01 -8.8994825383271D-01  7.5842417531887D-01
62  6.1000000000000D-01 -9.1978151668563D-01  7.0622971193804D-01
63  6.2000000000000D-01 -9.4786425023513D-01  6.5411433049833D-01
64  6.3000000000000D-01 -9.7400710649763D-01  6.0222963698761D-01
65  6.4000000000000D-01 -9.9799485058564D-01  5.5072400121636D-01
66  6.5000000000000D-01 -1.0195878224288D+00  4.9974201869972D-01
67  6.6000000000000D-01 -1.0385240665656D+00  4.4942398461671D-01
68  6.7000000000000D-01 -1.0545221128038D+00  3.9990538263790D-01
69  6.8000000000000D-01 -1.0672843787752D+00  3.5131639146577D-01
70  6.9000000000000D-01 -1.0765011538608D+00  3.0378141196317D-01
71  7.0000000000000D-01 -1.0818551128782D+00  2.5741861775085D-01
72  7.1000000000000D-01 -1.0830262974942D+00  2.1233953213515D-01
73  7.2000000000000D-01 -1.0796974937051D+00  1.6864863417775D-01
74  7.3000000000000D-01 -1.0715599250964D+00  1.2644299664215D-01
75  7.4000000000000D-01 -1.0583191740820D+00  8.5811958442120D-02
76  7.5000000000000D-01 -1.0397012371281D+00  4.6836834078688D-02
77  7.6000000000000D-01 -1.0154586151464D+00  9.5906623810124D-03
78  7.7000000000000D-01 -9.8537633692931D-01 -2.5862003334749D-02
79  7.8000000000000D-01 -9.4927781177581D-01 -5.9465261806755D-02
80  7.9000000000000D-01 -9.0703040735420D-01 -9.1171985447339D-02
81  8.0000000000000D-01 -8.5855065042321D-01 -1.2094389570867D-01
82  8.1000000000000D-01 -8.0380895127731D-01 -1.4875159117519D-01
83  8.2000000000000D-01 -7.4283375767143D-01 -1.7457452770016D-01
84  8.3000000000000D-01 -6.7571505047218D-01 -1.9840095026046D-01
85  8.4000000000000D-01 -6.0260710130539D-01 -2.2022777657721D-01
86  8.5000000000000D-01 -5.2373042191812D-01 -2.4006043293591D-01
87  8.6000000000000D-01 -4.3937284573048D-01 -2.5791264303557D-01
88  8.7000000000000D-01 -3.4988969397134D-01 -2.7380617109623D-01
89  8.8000000000000D-01 -2.5570299170750D-01 -2.8777052085524D-01
90  8.9000000000000D-01 -1.5729971280521D-01 -2.9984259247861D-01
91  9.0000000000000D-01 -5.5229047207488D-02 -3.1006629980133D-01
92  9.1000000000000D-01  4.9901301341532D-02 -3.1849215068374D-01
93  9.2000000000000D-01  1.5742976406794D-01 -3.2517679362589D-01
94  9.3000000000000D-01  2.6664646447868D-01 -3.3018253411350D-01
95  9.4000000000000D-01  3.7679963162301D-01 -3.3357682447311D-01
96  9.5000000000000D-01  4.8710280273406D-01 -3.3543173128311D-01
97  9.6000000000000D-01  5.9674273508850D-01 -3.3582338462680D-01
98  9.7000000000000D-01  7.0488793466105D-01 -3.3483141366534D-01
99  9.8000000000000D-01  8.1069769779562D-01 -3.3253837316236D-01
100  9.9000000000000D-01  9.1333155218692D-01 -3.2902916569785D-01
101  1.0000000000000D+00  1.0119589750426D+00 -3.2439046436700D-01
102  1.0100000000000D+00  1.1057692595245D+00 -3.1871014076792D-01
103  1.0200000000000D+00  1.1939813956676D+00 -3.1207670303523D-01
104  1.0300000000000D+00  1.2758538288703D+00 -3.0457874859085D-01
105  1.0400000000000D+00  1.3506939579379D+00 -2.9630443612586D-01
106  1.0500000000000D+00  1.4178672356952D+00 -2.8734098113683D-01
107  1.0600000000000D+00  1.4768057380548D+00 -2.7777417909414D-01
108  1.0700000000000D+00  1.5270160728617D+00 -2.6768796001004D-01
109  1.0800000000000D+00  1.5680865060869D+00 -2.5716397786825D-01
110  1.0900000000000D+00  1.5996931924502D+00 -2.4628123796827D-01
111  1.1000000000000D+00  1.6216054081747D+00 -2.3511576482974D-01
112  1.1100000000000D+00  1.6336896958358D+00 -2.2374031285631D-01
113  1.1200000000000D+00  1.6359128460590D+00 -2.1222412145452D-01
114  1.1300000000000D+00  1.6283436533229D+00 -2.0063271588694D-01
115  1.1400000000000D+00  1.6111534032776D+00 -1.8902775450340D-01
116  1.1500000000000D+00  1.5846150635944D+00 -1.7746692255275D-01
117  1.1600000000000D+00  1.5491011703131D+00 -1.6600387218636D-01
118  1.1700000000000D+00  1.5050804155772D+00 -1.5468820785633D-01
119  1.1800000000000D+00  1.4531129672861D+00 -1.4356551561713D-01
120  1.1900000000000D+00  1.3938445662545D+00 -1.3267743443091D-01
121  1.2000000000000D+00  1.3279994628055D+00 -1.2206176713103D-01
122  1.2100000000000D+00  1.2563722740241D+00 -1.1175262818309D-01
123  1.2200000000000D+00  1.1798188605615D+00 -1.0178062493048D-01
124  1.2300000000000D+00  1.0992463351658D+00 -9.2173068679447D-02
125  1.2400000000000D+00  1.0156023257210D+00 -8.2954211704823D-02
126  1.2500000000000D+00  9.2986363553920D-01 -7.4145505778693D-02
127  1.2600000000000D+00  8.4302444828713D-01 -6.5765877735258D-02
128  1.2700000000000D+00  7.5608423148838D-01 -5.7832017415850D-02
129  1.2800000000000D+00  6.7003550660575D-01 -5.0358673049627D-02
130  1.2900000000000D+00  5.8585164942769D-01 -4.3358949264722D-02
131  1.3000000000000D+00  5.0447489129351D-01 -3.6844602749054D-02
132  1.3100000000000D+00  4.2680469094206D-01 -3.0826330700582D-02
133  1.3200000000000D+00  3.5368663755486D-01 -2.5314047456919D-02
134  1.3300000000000D+00  2.8590205375164D-01 -2.0317144490833D-02
135  1.3400000000000D+00  2.2415844432924D-01 -1.5844729662441D-02
136  1.3500000000000D+00  1.6908093387561D-01 -1.1905841668430D-02
137  1.3600000000000D+00  1.2120483584916D-01 -8.5096356824544D-03
138  1.3700000000000D+00  8.0992651534911D-02 -5.6671153385554D-03
139  1.3800000000000D+00  4.8716425923364D-02 -3.3835793814579D-03
140  1.3900000000000D+00  2.4494776037738D-02 -1.6623066316567D-03
141  1.4000000000000D+00  9.2177565556499D-03 -5.6064607646823D-04
142  1.4100000000000D+00  2.1932797862820D-03 -4.7578895354358D-05
143  1.4200000000000D+00  9.0363500022716D-05  6.2534777868726D-05
144  1.4300000000000D+00 -1.7580712484458D-05  5.3409400318222D-06
145  1.4400000000000D+00  7.3033157624180D-05 -1.5848520290169D-05
146  1.4500000000000D+00 -3.0549948686620D-06  1.3006361629744D-06
147  1.4600000000000D+00 -7.3999449448573D-06  2.4463987563416D-06
148  1.4700000000000D+00 -2.2959171220223D-06 -6.8271221237044D-08
149  1.4800000000000D+00 -1.3641496246432D-06 -4.0564252050359D-08
150  1.4900000000000D+00  0.0000000000000D+00  0.0000000000000D+00
151  1.5000000000000D+00  0.0000000000000D+00  0.0000000000000D+00
152  1.5100000000000D+00  0.0000000000000D+00  0.0000000000000D+00
153  1.5200000000000D+00  0.0000000000000D+00  0.0000000000000D+00
154  1.5300000000000D+00  0.0000000000000D+00  0.0000000000000D+00
155  1.5400000000000D+00  0.0000000000000D+00  0.0000000000000D+00
156  1.5500000000000D+00  0.0000000000000D+00  0.0000000000000D+00
157  1.5600000000000D+00  0.0000000000000D+00  0.0000000000000D+00
158  1.5700000000000D+00  0.0000000000000D+00  0.0000000000000D+00
159  1.5800000000000D+00  0.0000000000000D+00  0.0000000000000D+00
160  1.5900000000000D+00  0.0000000000000D+00  0.0000000000000D+00
161  1.6000000000000D+00  0.0000000000000D+00  0.0000000000000D+00
162  1.6100000000000D+00  0.0000000000000D+00  0.0000000000000D+00
163  1.6200000000000D+00  0.0000000000000D+00  0.0000000000000D+00
164  1.6300000000000D+00  0.0000000000000D+00  0.0000000000000D+00
165  1.6400000000000D+00  0.0000000000000D+00  0.0000000000000D+00
166  1.6500000000000D+00  0.0000000000000D+00  0.0000000000000D+00
167  1.6600000000000D+00  0.0000000000000D+00  0.0000000000000D+00
168  1.6700000000000D+00  0.0000000000000D+00  0.0000000000000D+00
169  1.6800000000000D+00  0.0000000000000D+00  0.0000000000000D+00
170  1.6900000000000D+00  0.0000000000000D+00  0.0000000000000D+00
171  1.7000000000000D+00  0.0000000000000D+00  0.0000000000000D+00
172  1.7100000000000D+00  0.0000000000000D+00  0.0000000000000D+00
173  1.7200000000000D+00  0.0000000000000D+00  0.0000000000000D+00
174  1.7300000000000D+00  0.0000000000000D+00  0.0000000000000D+00
175  1.7400000000000D+00  0.0000000000000D+00  0.0000000000000D+00
176  1.7500000000000D+00  0.0000000000000D+00  0.0000000000000D+00
177  1.7600000000000D+00  0.0000000000000D+00  0.0000000000000D+00
178  1.7700000000000D+00  0.0000000000000D+00  0.0000000000000D+00
179  1.7800000000000D+00  0.0000000000000D+00  0.0000000000000D+00
180  1.7900000000000D+00  0.0000000000000D+00  0.0000000000000D+00
181  1.8000000000000D+00  0.0000000000000D+00  0.0000000000000D+00
182  1.8100000000000D+00  0.0000000000000D+00  0.0000000000000D+00
183  1.8200000000000D+00  0.0000000000000D+00  0.0000000000000D+00
184  1.8300000000000D+00  0.0000000000000D+00  0.0000000000000D+00
185  1.8400000000000D+00  0.0000000000000D+00  0.0000000000000D+00
186  1.8500000000000D+00  0.0000000000000D+00  0.0000000000000D+00
187  1.8600000000000D+00  0.0000000000000D+00  0.0000000000000D+00
188  1.8700000000000D+00  0.0000000000000D+00  0.0000000000000D+00
189  1.8800000000000D+00  0.0000000000000D+00  0.0000000000000D+00
190  1.8900000000000D+00  0.0000000000000D+00  0.0000000000000D+00
191  1.9000000000000D+00  0.0000000000000D+00  0.0000000000000D+00
192  1.9100000000000D+00  0.0000000000000D+00  0.0000000000000D+00
193  1.9200000000000D+00  0.0000000000000D+00  0.0000000000000D+00
194  1.9300000000000D+00  0.0000000000000D+00  0.0000000000000D+00
195  1.9400000000000D+00  0.0000000000000D+00  0.0000000000000D+00
196  1.9500000000000D+00  0.0000000000000D+00  0.0000000000000D+00
197  1.9600000000000D+00  0.0000000000000D+00  0.0000000000000D+00
198  1.9700000000000D+00  0.0000000000000D+00  0.0000000000000D+00
199  1.9800000000000D+00  0.0000000000000D+00  0.0000000000000D+00
200  1.9900000000000D+00  0.0000000000000D+00  0.0000000000000D+00
201  2.0000000000000D+00  0.0000000000000D+00  0.0000000000000D+00
202  2.0100000000000D+00  0.0000000000000D+00  0.0000000000000D+00
203  2.0200000000000D+00  0.0000000000000D+00  0.0000000000000D+00
204  2.0300000000000D+00  0.0000000000000D+00  0.0000000000000D+00
205  2.0400000000000D+00  0.0000000000000D+00  0.0000000000000D+00
206  2.0500000000000D+00  0.0000000000000D+00  0.0000000000000D+00
207  2.0600000000000D+00  0.0000000000000D+00  0.0000000000000D+00
208  2.0700000000000D+00  0.0000000000000D+00  0.0000000000000D+00
209  2.0800000000000D+00  0.0000000000000D+00  0.0000000000000D+00
210  2.0900000000000D+00  0.0000000000000D+00  0.0000000000000D+00
211  2.1000000000000D+00  0.0000000000000D+00  0.0000000000000D+00
212  2.1100000000000D+00  0.0000000000000D+00  0.0000000000000D+00
213  2.1200000000000D+00  0.0000000000000D+00  0.0000000000000D+00
214  2.1300000000000D+00  0.0000000000000D+00  0.0000000000000D+00
215  2.1400000000000D+00  0.0000000000000D+00  0.0000000000000D+00
216  2.1500000000000D+00  0.0000000000000D+00  0.0000000000000D+00
217  2.1600000000000D+00  0.0000000000000D+00  0.0000000000000D+00
218  2.1700000000000D+00  0.0000000000000D+00  0.0000000000000D+00
219  2.1800000000000D+00  0.0000000000000D+00  0.0000000000000D+00
220  2.1900000000000D+00  0.0000000000000D+00  0.0000000000000D+00
221  2.2000000000000D+00  0.0000000000000D+00  0.0000000000000D+00
222  2.2100000000000D+00  0.0000000000000D+00  0.0000000000000D+00
223  2.2200000000000D+00  0.0000000000000D+00  0.0000000000000D+00
224  2.2300000000000D+00  0.0000000000000D+00  0.0000000000000D+00
225  2.2400000000000D+00  0.0000000000000D+00  0.0000000000000D+00
226  2.2500000000000D+00  0.0000000000000D+00  0.0000000000000D+00
227  2.2600000000000D+00  0.0000000000000D+00  0.0000000000000D+00
228  2.2700000000000D+00  0.0000000000000D+00  0.0000000000000D+00
229  2.2800000000000D+00  0.0000000000000D+00  0.0000000000000D+00
230  2.2900000000000D+00  0.0000000000000D+00  0.0000000000000D+00
231  2.3000000000000D+00  0.0000000000000D+00  0.0000000000000D+00
232  2.3100000000000D+00  0.0000000000000D+00  0.0000000000000D+00
233  2.3200000000000D+00  0.0000000000000D+00  0.0000000000000D+00
234  2.3300000000000D+00  0.0000000000000D+00  0.0000000000000D+00
235  2.3400000000000D+00  0.0000000000000D+00  0.0000000000000D+00
236  2.3500000000000D+00  0.0000000000000D+00  0.0000000000000D+00
237  2.3600000000000D+00  0.0000000000000D+00  0.0000000000000D+00
238  2.3700000000000D+00  0.0000000000000D+00  0.0000000000000D+00
239  2.3800000000000D+00  0.0000000000000D+00  0.0000000000000D+00
240  2.3900000000000D+00  0.0000000000000D+00  0.0000000000000D+00
241  2.4000000000000D+00  0.0000000000000D+00  0.0000000000000D+00
242  2.4100000000000D+00  0.0000000000000D+00  0.0000000000000D+00
243  2.4200000000000D+00  0.0000000000000D+00  0.0000000000000D+00
244  2.4300000000000D+00  0.0000000000000D+00  0.0000000000000D+00
245  2.4400000000000D+00  0.0000000000000D+00  0.0000000000000D+00
246  2.4500000000000D+00  0.0000000000000D+00  0.0000000000000D+00
247  2.4600000000000D+00  0.0000000000000D+00  0.0000000000000D+00
248  2.4700000000000D+00  0.0000000000000D+00  0.0000000000000D+00
249  2.4800000000000D+00  0.0000000000000D+00  0.0000000000000D+00
250  2.4900000000000D+00  0.0000000000000D+00  0.0000000000000D+00
251  2.5000000000000D+00  0.0000000000000D+00  0.0000000000000D+00
252  2.5100000000000D+00  0.0000000000000D+00  0.0000000000000D+00
253  2.5200000000000D+00  0.0000000000000D+00  0.0000000000000D+00
254  2.5300000000000D+00  0.0000000000000D+00  0.0000000000000D+00
255  2.5400000000000D+00  0.0000000000000D+00  0.0000000000000D+00
256  2.5500000000000D+00  0.0000000000000D+00  0.0000000000000D+00
257  2.5600000000000D+00  0.0000000000000D+00  0.0000000000000D+00
258  2.5700000000000D+00  0.0000000000000D+00  0.0000000000000D+00
259  2.5800000000000D+00  0.0000000000000D+00  0.0000000000000D+00
260  2.5900000000000D+00  0.0000000000000D+00  0.0000000000000D+00
261  2.6000000000000D+00  0.0000000000000D+00  0.0000000000000D+00
262  2.6100000000000D+00  0.0000000000000D+00  0.0000000000000D+00
263  2.6200000000000D+00  0.0000000000000D+00  0.0000000000000D+00
264  2.6300000000000D+00  0.0000000000000D+00  0.0000000000000D+00
265  2.6400000000000D+00  0.0000000000000D+00  0.0000000000000D+00
266  2.6500000000000D+00  0.0000000000000D+00  0.0000000000000D+00
267  2.6600000000000D+00  0.0000000000000D+00  0.0000000000000D+00
268  2.6700000000000D+00  0.0000000000000D+00  0.0000000000000D+00
269  2.6800000000000D+00  0.0000000000000D+00  0.0000000000000D+00
270  2.6900000000000D+00  0.0000000000000D+00  0.0000000000000D+00
271  2.7000000000000D+00  0.0000000000000D+00  0.0000000000000D+00
272  2.7100000000000D+00  0.0000000000000D+00  0.0000000000000D+00
273  2.7200000000000D+00  0.0000000000000D+00  0.0000000000000D+00
274  2.7300000000000D+00  0.0000000000000D+00  0.0000000000000D+00
275  2.7400000000000D+00  0.0000000000000D+00  0.0000000000000D+00
276  2.7500000000000D+00  0.0000000000000D+00  0.0000000000000D+00
277  2.7600000000000D+00  0.0000000000000D+00  0.0000000000000D+00
278  2.7700000000000D+00  0.0000000000000D+00  0.0000000000000D+00
279  2.7800000000000D+00  0.0000000000000D+00  0.0000000000000D+00
280  2.7900000000000D+00  0.0000000000000D+00  0.0000000000000D+00
281  2.8000000000000D+00  0.0000000000000D+00  0.0000000000000D+00
282  2.8100000000000D+00  0.0000000000000D+00  0.0000000000000D+00
283  2.8200000000000D+00  0.0000000000000D+00  0.0000000000000D+00
284  2.8300000000000D+00  0.0000000000000D+00  0.0000000000000D+00
285  2.8400000000000D+00  0.0000000000000D+00  0.0000000000000D+00
286  2.8500000000000D+00  0.0000000000000D+00  0.0000000000000D+00
287  2.8600000000000D+00  0.0000000000000D+00  0.0000000000000D+00
288  2.8700000000000D+00  0.0000000000000D+00  0.0000000000000D+00
289  2.8800000000000D+00  0.0000000000000D+00  0.0000000000000D+00
290  2.8900000000000D+00  0.0000000000000D+00  0.0000000000000D+00
291  2.9000000000000D+00  0.0000000000000D+00  0.0000000000000D+00
292  2.9100000000000D+00  0.0000000000000D+00  0.0000000000000D+00
293  2.9200000000000D+00  0.0000000000000D+00  0.0000000000000D+00
294  2.9300000000000D+00  0.0000000000000D+00  0.0000000000000D+00
295  2.9400000000000D+00  0.0000000000000D+00  0.0000000000000D+00
296  2.9500000000000D+00  0.0000000000000D+00  0.0000000000000D+00
297  2.9600000000000D+00  0.0000000000000D+00  0.0000000000000D+00
298  2.9700000000000D+00  0.0000000000000D+00  0.0000000000000D+00
299  2.9800000000000D+00  0.0000000000000D+00  0.0000000000000D+00
300  2.9900000000000D+00  0.0000000000000D+00  0.0000000000000D+00
301  3.0000000000000D+00  0.0000000000000D+00  0.0000000000000D+00
302  3.0100000000000D+00  0.0000000000000D+00  0.0000000000000D+00
303  3.0200000000000D+00  0.0000000000000D+00  0.0000000000000D+00
304  3.0300000000000D+00  0.0000000000000D+00  0.0000000000000D+00
305  3.0400000000000D+00  0.0000000000000D+00  0.0000000000000D+00
306  3.0500000000000D+00  0.0000000000000D+00  0.0000000000000D+00
307  3.0600000000000D+00  0.0000000000000D+00  0.0000000000000D+00
308  3.0700000000000D+00  0.0000000000000D+00  0.0000000000000D+00
309  3.0800000000000D+00  0.0000000000000D+00  0.0000000000000D+00
310  3.0900000000000D+00  0.0000000000000D+00  0.0000000000000D+00
311  3.1000000000000D+00  0.0000000000000D+00  0.0000000000000D+00
312  3.1100000000000D+00  0.0000000000000D+00  0.0000000000000D+00
313  3.1200000000000D+00  0.0000000000000D+00  0.0000000000000D+00
314  3.1300000000000D+00  0.0000000000000D+00  0.0000000000000D+00
315  3.1400000000000D+00  0.0000000000000D+00  0.0000000000000D+00
316  3.1500000000000D+00  0.0000000000000D+00  0.0000000000000D+00
317  3.1600000000000D+00  0.0000000000000D+00  0.0000000000000D+00
318  3.1700000000000D+00  0.0000000000000D+00  0.0000000000000D+00
319  3.1800000000000D+00  0.0000000000000D+00  0.0000000000000D+00
320  3.1900000000000D+00  0.0000000000000D+00  0.0000000000000D+00
321  3.2000000000000D+00  0.0000000000000D+00  0.0000000000000D+00
322  3.2100000000000D+00  0.0000000000000D+00  0.0000000000000D+00
323  3.2200000000000D+00  0.0000000000000D+00  0.0000000000000D+00
324  3.2300000000000D+00  0.0000000000000D+00  0.0000000000000D+00
325  3.2400000000000D+00  0.0000000000000D+00  0.0000000000000D+00
326  3.2500000000000D+00  0.0000000000000D+00  0.0000000000000D+00
327  3.2600000000000D+00  0.0000000000000D+00  0.0000000000000D+00
328  3.2700000000000D+00  0.0000000000000D+00  0.0000000000000D+00
329  3.2800000000000D+00  0.0000000000000D+00  0.0000000000000D+00
330  3.2900000000000D+00  0.0000000000000D+00  0.0000000000000D+00
331  3.3000000000000D+00  0.0000000000000D+00  0.0000000000000D+00
332  3.3100000000000D+00  0.0000000000000D+00  0.0000000000000D+00
333  3.3200000000000D+00  0.0000000000000D+00  0.0000000000000D+00
334  3.3300000000000D+00  0.0000000000000D+00  0.0000000000000D+00
335  3.3400000000000D+00  0.0000000000000D+00  0.0000000000000D+00
336  3.3500000000000D+00  0.0000000000000D+00  0.0000000000000D+00
337  3.3600000000000D+00  0.0000000000000D+00  0.0000000000000D+00
338  3.3700000000000D+00  0.0000000000000D+00  0.0000000000000D+00
339  3.3800000000000D+00  0.0000000000000D+00  0.0000000000000D+00
340  3.3900000000000D+00  0.0000000000000D+00  0.0000000000000D+00
341  3.4000000000000D+00  0.0000000000000D+00  0.0000000000000D+00
342  3.4100000000000D+00  0.0000000000000D+00  0.0000000000000D+00
343  3.4200000000000D+00  0.0000000000000D+00  0.0000000000000D+00
344  3.4300000000000D+00  0.0000000000000D+00  0.0000000000000D+00
345  3.4400000000000D+00  0.0000000000000D+00  0.0000000000000D+00
346  3.4500000000000D+00  0.0000000000000D+00  0.0000000000000D+00
347  3.4600000000000D+00  0.0000000000000D+00  0.0000000000000D+00
348  3.4700000000000D+00  0.0000000000000D+00  0.0000000000000D+00
349  3.4800000000000D+00  0.0000000000000D+00  0.0000000000000D+00
350  3.4900000000000D+00  0.0000000000000D+00  0.0000000000000D+00
351  3.5000000000000D+00  0.0000000000000D+00  0.0000000000000D+00
352  3.5100000000000D+00  0.0000000000000D+00  0.0000000000000D+00
353  3.5200000000000D+00  0.0000000000000D+00  0.0000000000000D+00
354  3.5300000000000D+00  0.0000000000000D+00  0.0000000000000D+00
355  3.5400000000000D+00  0.0000000000000D+00  0.0000000000000D+00
356  3.5500000000000D+00  0.0000000000000D+00  0.0000000000000D+00
357  3.5600000000000D+00  0.0000000000000D+00  0.0000000000000D+00
358  3.5700000000000D+00  0.0000000000000D+00  0.0000000000000D+00
359  3.5800000000000D+00  0.0000000000000D+00  0.0000000000000D+00
360  3.5900000000000D+00  0.0000000000000D+00  0.0000000000000D+00
361  3.6000000000000D+00  0.0000000000000D+00  0.0000000000000D+00
362  3.6100000000000D+00  0.0000000000000D+00  0.0000000000000D+00
363  3.6200000000000D+00  0.0000000000000D+00  0.0000000000000D+00
364  3.6300000000000D+00  0.0000000000000D+00  0.0000000000000D+00
365  3.6400000000000D+00  0.0000000000000D+00  0.0000000000000D+00
366  3.6500000000000D+00  0.0000000000000D+00  0.0000000000000D+00
367  3.6600000000000D+00  0.0000000000000D+00  0.0000000000000D+00
368  3.6700000000000D+00  0.0000000000000D+00  0.0000000000000D+00
369  3.6800000000000D+00  0.0000000000000D+00  0.0000000000000D+00
370  3.6900000000000D+00  0.0000000000000D+00  0.0000000000000D+00
371  3.7000000000000D+00  0.0000000000000D+00  0.0000000000000D+00
372  3.7100000000000D+00  0.0000000000000D+00  0.0000000000000D+00
373  3.7200000000000D+00  0.0000000000000D+00  0.0000000000000D+00
374  3.7300000000000D+00  0.0000000000000D+00  0.0000000000000D+00
375  3.7400000000000D+00  0.0000000000000D+00  0.0000000000000D+00
376  3.7500000000000D+00  0.0000000000000D+00  0.0000000000000D+00
377  3.7600000000000D+00  0.0000000000000D+00  0.0000000000000D+00
378  3.7700000000000D+00  0.0000000000000D+00  0.0000000000000D+00
379  3.7800000000000D+00  0.0000000000000D+00  0.0000000000000D+00
380  3.7900000000000D+00  0.0000000000000D+00  0.0000000000000D+00
381  3.8000000000000D+00  0.0000000000000D+00  0.0000000000000D+00
382  3.8100000000000D+00  0.0000000000000D+00  0.0000000000000D+00
383  3.8200000000000D+00  0.0000000000000D+00  0.0000000000000D+00
384  3.8300000000000D+00  0.0000000000000D+00  0.0000000000000D+00
385  3.8400000000000D+00  0.0000000000000D+00  0.0000000000000D+00
386  3.8500000000000D+00  0.0000000000000D+00  0.0000000000000D+00
387  3.8600000000000D+00  0.0000000000000D+00  0.0000000000000D+00
388  3.8700000000000D+00  0.0000000000000D+00  0.0000000000000D+00
389  3.8800000000000D+00  0.0000000000000D+00  0.0000000000000D+00
390  3.8900000000000D+00  0.0000000000000D+00  0.0000000000000D+00
391  3.9000000000000D+00  0.0000000000000D+00  0.0000000000000D+00
392  3.9100000000000D+00  0.0000000000000D+00  0.0000000000000D+00
393  3.9200000000000D+00  0.0000000000000D+00  0.0000000000000D+00
394  3.9300000000000D+00  0.0000000000000D+00  0.0000000000000D+00
395  3.9400000000000D+00  0.0000000000000D+00  0.0000000000000D+00
396  3.9500000000000D+00  0.0000000000000D+00  0.0000000000000D+00
397  3.9600000000000D+00  0.0000000000000D+00  0.0000000000000D+00
398  3.9700000000000D+00  0.0000000000000D+00  0.0000000000000D+00
399  3.9800000000000D+00  0.0000000000000D+00  0.0000000000000D+00
400  3.9900000000000D+00  0.0000000000000D+00  0.0000000000000D+00
401  4.0000000000000D+00  0.0000000000000D+00  0.0000000000000D+00
402  4.0100000000000D+00  0.0000000000000D+00  0.0000000000000D+00
403  4.0200000000000D+00  0.0000000000000D+00  0.0000000000000D+00
404  4.0300000000000D+00  0.0000000000000D+00  0.0000000000000D+00
405  4.0400000000000D+00  0.0000000000000D+00  0.0000000000000D+00
406  4.0500000000000D+00  0.0000000000000D+00  0.0000000000000D+00
407  4.0600000000000D+00  0.0000000000000D+00  0.0000000000000D+00
408  4.0700000000000D+00  0.0000000000000D+00  0.0000000000000D+00
409  4.0800000000000D+00  0.0000000000000D+00  0.0000000000000D+00
410  4.0900000000000D+00  0.0000000000000D+00  0.0000000000000D+00
411  4.1000000000000D+00  0.0000000000000D+00  0.0000000000000D+00
412  4.1100000000000D+00  0.0000000000000D+00  0.0000000000000D+00
413  4.1200000000000D+00  0.0000000000000D+00  0.0000000000000D+00
414  4.1300000000000D+00  0.0000000000000D+00  0.0000000000000D+00
415  4.1400000000000D+00  0.0000000000000D+00  0.0000000000000D+00
416  4.1500000000000D+00  0.0000000000000D+00  0.0000000000000D+00
417  4.1600000000000D+00  0.0000000000000D+00  0.0000000000000D+00
418  4.1700000000000D+00  0.0000000000000D+00  0.0000000000000D+00
419  4.1800000000000D+00  0.0000000000000D+00  0.0000000000000D+00
420  4.1900000000000D+00  0.0000000000000D+00  0.0000000000000D+00
421  4.2000000000000D+00  0.0000000000000D+00  0.0000000000000D+00
422  4.2100000000000D+00  0.0000000000000D+00  0.0000000000000D+00
423  4.2200000000000D+00  0.0000000000000D+00  0.0000000000000D+00
424  4.2300000000000D+00  0.0000000000000D+00  0.0000000000000D+00
425  4.2400000000000D+00  0.0000000000000D+00  0.0000000000000D+00
426  4.2500000000000D+00  0.0000000000000D+00  0.0000000000000D+00
427  4.2600000000000D+00  0.0000000000000D+00  0.0000000000000D+00
428  4.2700000000000D+00  0.0000000000000D+00  0.0000000000000D+00
429  4.2800000000000D+00  0.0000000000000D+00  0.0000000000000D+00
430  4.2900000000000D+00  0.0000000000000D+00  0.0000000000000D+00
431  4.3000000000000D+00  0.0000000000000D+00  0.0000000000000D+00
432  4.3100000000000D+00  0.0000000000000D+00  0.0000000000000D+00
433  4.3200000000000D+00  0.0000000000000D+00  0.0000000000000D+00
434  4.3300000000000D+00  0.0000000000000D+00  0.0000000000000D+00
435  4.3400000000000D+00  0.0000000000000D+00  0.0000000000000D+00
436  4.3500000000000D+00  0.0000000000000D+00  0.0000000000000D+00
437  4.3600000000000D+00  0.0000000000000D+00  0.0000000000000D+00
438  4.3700000000000D+00  0.0000000000000D+00  0.0000000000000D+00
439  4.3800000000000D+00  0.0000000000000D+00  0.0000000000000D+00
440  4.3900000000000D+00  0.0000000000000D+00  0.0000000000000D+00
441  4.4000000000000D+00  0.0000000000000D+00  0.0000000000000D+00
442  4.4100000000000D+00  0.0000000000000D+00  0.0000000000000D+00
443  4.4200000000000D+00  0.0000000000000D+00  0.0000000000000D+00