Pd    ONCVPSP  r_core=  1.46  1.46  1.61
46.0000     18.0000      140903    zatom,zion,pspd
8    11     2     4   601     0    pspcod,pspxc,lmax,lloc,mmax,r2well
6.00000000  0.50000000  0.00000000    rchrg fchrg qchrg
2     2     2     0     0    nproj
0                 extension_switch
0                         8.1762195391247D+00 -7.8065281357757D-01
1  0.0000000000000D+00 -0.0000000000000D+00  0.0000000000000D+00
2  1.0000000000000D-02 -7.0752607166046D-02  4.9306019200620D-02
3  2.0000000000000D-02 -1.4136109018836D-01  9.8461837711990D-02
4  3.0000000000000D-02 -2.1168167473476D-01  1.4731691145381D-01
5  4.0000000000000D-02 -2.8157128538020D-01  1.9572002141881D-01
6  5.0000000000000D-02 -3.5088789326930D-01  2.4351896569770D-01
7  6.0000000000000D-02 -4.1949086162635D-01  2.9056028647354D-01
8  7.0000000000000D-02 -4.8724128839220D-01  3.3668904295049D-01
9  8.0000000000000D-02 -5.5400234525894D-01  3.8174864060205D-01
10  9.0000000000000D-02 -6.1963961237717D-01  4.2558072640132D-01
11  1.0000000000000D-01 -6.8402140799431D-01  4.6802515885711D-01
12  1.1000000000000D-01 -7.4701911228525D-01  5.0892006070852D-01
13  1.2000000000000D-01 -8.0850748463213D-01  5.4810196106100D-01
14  1.3000000000000D-01 -8.6836497361808D-01  5.8540603259236D-01
15  1.4000000000000D-01 -9.2647401889463D-01  6.2066642811966D-01
16  1.5000000000000D-01 -9.8272134435282D-01  6.5371671969849D-01
17  1.6000000000000D-01 -1.0369982415248D+00  6.8439044158411D-01
18  1.7000000000000D-01 -1.0892008428844D+00  7.1252173777535D-01
19  1.8000000000000D-01 -1.1392303837652D+00  7.3794611213955D-01
20  1.9000000000000D-01 -1.1869934526541D+00  7.6050127923649D-01
21  2.0000000000000D-01 -1.2324022284886D+00  7.8002811016827D-01
22  2.1000000000000D-01 -1.2753747051901D+00  7.9637167055820D-01
23  2.2000000000000D-01 -1.3158349014002D+00  8.0938233975640D-01
24  2.3000000000000D-01 -1.3537130557295D+00  8.1891700574249D-01
25  2.4000000000000D-01 -1.3889458060872D+00  8.2484032308176D-01
26  2.5000000000000D-01 -1.4214763539709D+00  8.2702603127388D-01
27  2.6000000000000D-01 -1.4512546092896D+00  8.2535830059424D-01
28  2.7000000000000D-01 -1.4782373208789D+00  8.1973312478043D-01
29  2.8000000000000D-01 -1.5023881862050D+00  8.1005971239412D-01
30  2.9000000000000D-01 -1.5236779435546D+00  7.9626188436199D-01
31  3.0000000000000D-01 -1.5420844448438D+00  7.7827945481387D-01
32  3.1000000000000D-01 -1.5575927085378D+00  7.5606957828632D-01
33  3.2000000000000D-01 -1.5701949519250D+00  7.2960804013706D-01
34  3.3000000000000D-01 -1.5798906051506D+00  6.9889051343500D-01
35  3.4000000000000D-01 -1.5866863004060D+00  6.6393367935910D-01
36  3.5000000000000D-01 -1.5905958439612D+00  6.2477630352525D-01
37  3.6000000000000D-01 -1.5916401643168D+00  5.8148015555380D-01
38  3.7000000000000D-01 -1.5898472407942D+00  5.3413084431030D-01
39  3.8000000000000D-01 -1.5852520090923D+00  4.8283844999348D-01
40  3.9000000000000D-01 -1.5778962470871D+00  4.2773804461469D-01
41  4.0000000000000D-01 -1.5678284380083D+00  3.6899004273284D-01
42  4.1000000000000D-01 -1.5551036136395D+00  3.0678033023142D-01
43  4.2000000000000D-01 -1.5397831764940D+00  2.4132023347931D-01
44  4.3000000000000D-01 -1.5219347016786D+00  1.7284627834019D-01
45  4.4000000000000D-01 -1.5016317189299D+00  1.0161974071342D-01
46  4.5000000000000D-01 -1.4789534754020D+00  2.7925983503803D-02
47  4.6000000000000D-01 -1.4539846799167D+00 -4.7926423198227D-02
48  4.7000000000000D-01 -1.4268152329402D+00 -1.2560679508092D-01
49  4.8000000000000D-01 -1.3975399303454D+00 -2.0476364607359D-01
50  4.9000000000000D-01 -1.3662581562449D+00 -2.8502623037547D-01
51  5.0000000000000D-01 -1.3330735653241D+00 -3.6600627613588D-01
52  5.1000000000000D-01 -1.2980937624545D+00 -4.4729986431735D-01
53  5.2000000000000D-01 -1.2614299155109D+00 -5.2848968439867D-01
54  5.3000000000000D-01 -1.2231964245173D+00 -6.0914727443092D-01
55  5.4000000000000D-01 -1.1835105746369D+00 -6.8883537027937D-01
56  5.5000000000000D-01 -1.1424920713962D+00 -7.6711094157248D-01
57  5.6000000000000D-01 -1.1002627866974D+00 -8.4352732901161D-01
58  5.7000000000000D-01 -1.0569462045208D+00 -9.1763794592786D-01
59  5.8000000000000D-01 -1.0126672110671D+00 -9.8899826818743D-01
60  5.9000000000000D-01 -9.6755148257494D-01 -1.0571700748755D+00
61  6.0000000000000D-01 -9.2172531726229D-01 -1.1217232019490D+00
62  6.1000000000000D-01 -8.7531500523898D-01 -1.1822400501825D+00
63  6.2000000000000D-01 -8.2844659321796D-01 -1.2383177192817D+00
64  6.3000000000000D-01 -7.8124547019184D-01 -1.2895712098323D+00
65  6.4000000000000D-01 -7.3383583570361D-01 -1.3356374124694D+00
66  6.5000000000000D-01 -6.8634049852539D-01 -1.3761768816551D+00
67  6.6000000000000D-01 -6.3888046505984D-01 -1.4108769256079D+00
68  6.7000000000000D-01 -5.9157440280609D-01 -1.4394555105774D+00
69  6.8000000000000D-01 -5.4453848122719D-01 -1.4616625047826D+00
70  6.9000000000000D-01 -4.9788598924432D-01 -1.4772823422033D+00
71  7.0000000000000D-01 -4.5172699301809D-01 -1.4861363071914D+00
72  7.1000000000000D-01 -4.0616790557668D-01 -1.4880852808510D+00
73  7.2000000000000D-01 -3.6131135057122D-01 -1.4830303443792D+00
74  7.3000000000000D-01 -3.1725582667356D-01 -1.4709145920093D+00
75  7.4000000000000D-01 -2.7409544484077D-01 -1.4517242818427D+00
76  7.5000000000000D-01 -2.3191970913996D-01 -1.4254895361900D+00
77  7.6000000000000D-01 -1.9081325507039D-01 -1.3922851145114D+00
78  7.7000000000000D-01 -1.5085561657222D-01 -1.3522307623824D+00
79  7.8000000000000D-01 -1.1212113369820D-01 -1.3054905398916D+00
80  7.9000000000000D-01 -7.4678759725814D-02 -1.2522725463391D+00
81  8.0000000000000D-01 -3.8591927152035D-02 -1.1928280742822D+00
82  8.1000000000000D-01 -3.9184367592775D-03 -1.1274504159070D+00
83  8.2000000000000D-01  2.9289630113583D-02 -1.0564733254848D+00
84  8.3000000000000D-01  6.0985976077824D-02 -9.8026914471309D-01
85  8.4000000000000D-01  9.1130129074952D-02 -8.9924660075118D-01
86  8.5000000000000D-01  1.1968746083565D-01 -8.1384828972533D-01
87  8.6000000000000D-01  1.4662918272933D-01 -7.2454786138577D-01
88  8.7000000000000D-01  1.7193231942006D-01 -6.3184692345147D-01
89  8.8000000000000D-01  1.9557966084643D-01 -5.3627168696798D-01
90  8.9000000000000D-01  2.1755969314498D-01 -4.3836937672923D-01
91  9.0000000000000D-01  2.3786650923837D-01 -3.3870443346502D-01
92  9.1000000000000D-01  2.5649969991332D-01 -2.3785453705198D-01
93  9.2000000000000D-01  2.7346422631891D-01 -1.3640648243458D-01
94  9.3000000000000D-01  2.8877027492439D-01 -3.4951942187810D-02
95  9.4000000000000D-01  3.0243308892719D-01  6.5916683816599D-02
96  9.5000000000000D-01  3.1447279234744D-01  1.6561027471717D-01
97  9.6000000000000D-01  3.2491425706985D-01  2.6354910916055D-01
98  9.7000000000000D-01  3.3378681583963D-01  3.5916553614914D-01
99  9.8000000000000D-01  3.4112407731459D-01  4.5190877622879D-01
100  9.9000000000000D-01  3.4696369990880D-01  5.4124909679247D-01
101  1.0000000000000D+00  3.5134715732249D-01  6.2668183401453D-01
102  1.0100000000000D+00  3.5431949759891D-01  7.0773121573025D-01
103  1.0200000000000D+00  3.5592914442058D-01  7.8395107596557D-01
104  1.0300000000000D+00  3.5622753608986D-01  8.5493700646090D-01
105  1.0400000000000D+00  3.5526893002058D-01  9.2032150321586D-01
106  1.0500000000000D+00  3.5311013489948D-01  9.7977909346442D-01
107  1.0600000000000D+00  3.4981025515091D-01  1.0330287501342D+00
108  1.0700000000000D+00  3.4543056633665D-01  1.0798325504300D+00
109  1.0800000000000D+00  3.4003394097302D-01  1.1200072076142D+00
110  1.0900000000000D+00  3.3368475510493D-01  1.1534187141012D+00
111  1.1000000000000D+00  3.2644868496064D-01  1.1799827146662D+00
112  1.1100000000000D+00  3.1839254830000D-01  1.1996640989461D+00
113  1.1200000000000D+00  3.0958396335154D-01  1.2124801409910D+00
114  1.1300000000000D+00  3.0009071983288D-01  1.2185053489841D+00
115  1.1400000000000D+00  2.8998109546560D-01  1.2178609816597D+00
116  1.1500000000000D+00  2.7932369537794D-01  1.2107150308026D+00
117  1.1600000000000D+00  2.6818688374677D-01  1.1972862375305D+00
118  1.1700000000000D+00  2.5663825905813D-01  1.1778431001514D+00
119  1.1800000000000D+00  2.4474516964704D-01  1.1526938942414D+00
120  1.1900000000000D+00  2.3257485764545D-01  1.1221847222294D+00
121  1.2000000000000D+00  2.2019261999217D-01  1.0867071446566D+00
122  1.2100000000000D+00  2.0766298293160D-01  1.0466832774847D+00
123  1.2200000000000D+00  1.9504985878895D-01  1.0025643808013D+00
124  1.2300000000000D+00  1.8241532980492D-01  9.5483149190375D-01
125  1.2400000000000D+00  1.6981952175569D-01  9.0398663482555D-01
126  1.2500000000000D+00  1.5732178205603D-01  8.5054960377760D-01
127  1.2600000000000D+00  1.4497957678416D-01  7.9505611579628D-01
128  1.2700000000000D+00  1.3284759512273D-01  7.3804616419537D-01
129  1.2800000000000D+00  1.2097971512988D-01  6.8006756681686D-01
130  1.2900000000000D+00  1.0942755345811D-01  6.2166909068211D-01
131  1.3000000000000D+00  9.8239631304866D-02  5.6338506755863D-01
132  1.3100000000000D+00  8.7463737930903D-02  5.0575091982811D-01
133  1.3200000000000D+00  7.7144583681405D-02  4.4928212938340D-01
134  1.3300000000000D+00  6.7324070677693D-02  3.9446650172863D-01
135  1.3400000000000D+00  5.8043493011571D-02  3.4179002733240D-01
136  1.3500000000000D+00  4.9339784296150D-02  2.9168731280170D-01
137  1.3600000000000D+00  4.1248217276461D-02  2.4456908812356D-01
138  1.3700000000000D+00  3.3802705312482D-02  2.0083050456476D-01
139  1.3800000000000D+00  2.7032363891341D-02  1.6079176512778D-01
140  1.3900000000000D+00  2.0965977417505D-02  1.2476755503124D-01
141  1.4000000000000D+00  1.5628645078660D-02  9.3011537972986D-02
142  1.4100000000000D+00  1.1042621087646D-02  6.5725903889189D-02
143  1.4200000000000D+00  7.2295014378822D-03  4.3102221322487D-02
144  1.4300000000000D+00  4.2054668202666D-03  2.5232574105671D-02
145  1.4400000000000D+00  1.9866899172127D-03  1.2209259483467D-02
146  1.4500000000000D+00  6.4307668364687D-04  4.4008834562887D-03
147  1.4600000000000D+00  4.9060684844903D-05  9.5938183313051D-04
148  1.4700000000000D+00 -8.5365957999076D-05 -1.3434815818706D-04
149  1.4800000000000D+00  4.4000370747529D-08 -6.5001417246568D-06
150  1.4900000000000D+00  2.5426751346577D-07 -3.7562748800165D-05
151  1.5000000000000D+00  0.0000000000000D+00  0.0000000000000D+00
152  1.5100000000000D+00  0.0000000000000D+00  0.0000000000000D+00
153  1.5200000000000D+00  0.0000000000000D+00  0.0000000000000D+00
154  1.5300000000000D+00  0.0000000000000D+00  0.0000000000000D+00
155  1.5400000000000D+00  0.0000000000000D+00  0.0000000000000D+00
156  1.5500000000000D+00  0.0000000000000D+00  0.0000000000000D+00
157  1.5600000000000D+00  0.0000000000000D+00  0.0000000000000D+00
158  1.5700000000000D+00  0.0000000000000D+00  0.0000000000000D+00
159  1.5800000000000D+00  0.0000000000000D+00  0.0000000000000D+00
160  1.5900000000000D+00  0.0000000000000D+00  0.0000000000000D+00
161  1.6000000000000D+00  0.0000000000000D+00  0.0000000000000D+00
162  1.6100000000000D+00  0.0000000000000D+00  0.0000000000000D+00
163  1.6200000000000D+00  0.0000000000000D+00  0.0000000000000D+00
164  1.6300000000000D+00  0.0000000000000D+00  0.0000000000000D+00
165  1.6400000000000D+00  0.0000000000000D+00  0.0000000000000D+00
166  1.6500000000000D+00  0.0000000000000D+00  0.0000000000000D+00
167  1.6600000000000D+00  0.0000000000000D+00  0.0000000000000D+00
168  1.6700000000000D+00  0.0000000000000D+00  0.0000000000000D+00
169  1.6800000000000D+00  0.0000000000000D+00  0.0000000000000D+00
170  1.6900000000000D+00  0.0000000000000D+00  0.0000000000000D+00
171  1.7000000000000D+00  0.0000000000000D+00  0.0000000000000D+00
172  1.7100000000000D+00  0.0000000000000D+00  0.0000000000000D+00
173  1.7200000000000D+00  0.0000000000000D+00  0.0000000000000D+00
174  1.7300000000000D+00  0.0000000000000D+00  0.0000000000000D+00
175  1.7400000000000D+00  0.0000000000000D+00  0.0000000000000D+00
176  1.7500000000000D+00  0.0000000000000D+00  0.0000000000000D+00
177  1.7600000000000D+00  0.0000000000000D+00  0.0000000000000D+00
178  1.7700000000000D+00  0.0000000000000D+00  0.0000000000000D+00
179  1.7800000000000D+00  0.0000000000000D+00  0.0000000000000D+00
180  1.7900000000000D+00  0.0000000000000D+00  0.0000000000000D+00
181  1.8000000000000D+00  0.0000000000000D+00  0.0000000000000D+00
182  1.8100000000000D+00  0.0000000000000D+00  0.0000000000000D+00
183  1.8200000000000D+00  0.0000000000000D+00  0.0000000000000D+00
184  1.8300000000000D+00  0.0000000000000D+00  0.0000000000000D+00
185  1.8400000000000D+00  0.0000000000000D+00  0.0000000000000D+00
186  1.8500000000000D+00  0.0000000000000D+00  0.0000000000000D+00
187  1.8600000000000D+00  0.0000000000000D+00  0.0000000000000D+00
188  1.8700000000000D+00  0.0000000000000D+00  0.0000000000000D+00
189  1.8800000000000D+00  0.0000000000000D+00  0.0000000000000D+00
190  1.8900000000000D+00  0.0000000000000D+00  0.0000000000000D+00
191  1.9000000000000D+00  0.0000000000000D+00  0.0000000000000D+00
192  1.9100000000000D+00  0.0000000000000D+00  0.0000000000000D+00
193  1.9200000000000D+00  0.0000000000000D+00  0.0000000000000D+00
194  1.9300000000000D+00  0.0000000000000D+00  0.0000000000000D+00
195  1.9400000000000D+00  0.0000000000000D+00  0.0000000000000D+00
196  1.9500000000000D+00  0.0000000000000D+00  0.0000000000000D+00
197  1.9600000000000D+00  0.0000000000000D+00  0.0000000000000D+00
198  1.9700000000000D+00  0.0000000000000D+00  0.0000000000000D+00
199  1.9800000000000D+00  0.0000000000000D+00  0.0000000000000D+00
200  1.9900000000000D+00  0.0000000000000D+00  0.0000000000000D+00
201  2.0000000000000D+00  0.0000000000000D+00  0.0000000000000D+00
202  2.0100000000000D+00  0.0000000000000D+00  0.0000000000000D+00
203  2.0200000000000D+00  0.0000000000000D+00  0.0000000000000D+00
204  2.0300000000000D+00  0.0000000000000D+00  0.0000000000000D+00
205  2.0400000000000D+00  0.0000000000000D+00  0.0000000000000D+00
206  2.0500000000000D+00  0.0000000000000D+00  0.0000000000000D+00
207  2.0600000000000D+00  0.0000000000000D+00  0.0000000000000D+00
208  2.0700000000000D+00  0.0000000000000D+00  0.0000000000000D+00
209  2.0800000000000D+00  0.0000000000000D+00  0.0000000000000D+00
210  2.0900000000000D+00  0.0000000000000D+00  0.0000000000000D+00
211  2.1000000000000D+00  0.0000000000000D+00  0.0000000000000D+00
212  2.1100000000000D+00  0.0000000000000D+00  0.0000000000000D+00
213  2.1200000000000D+00  0.0000000000000D+00  0.0000000000000D+00
214  2.1300000000000D+00  0.0000000000000D+00  0.0000000000000D+00
215  2.1400000000000D+00  0.0000000000000D+00  0.0000000000000D+00
216  2.1500000000000D+00  0.0000000000000D+00  0.0000000000000D+00
217  2.1600000000000D+00  0.0000000000000D+00  0.0000000000000D+00
218  2.1700000000000D+00  0.0000000000000D+00  0.0000000000000D+00
219  2.1800000000000D+00  0.0000000000000D+00  0.0000000000000D+00
220  2.1900000000000D+00  0.0000000000000D+00  0.0000000000000D+00
221  2.2000000000000D+00  0.0000000000000D+00  0.0000000000000D+00
222  2.2100000000000D+00  0.0000000000000D+00  0.0000000000000D+00
223  2.2200000000000D+00  0.0000000000000D+00  0.0000000000000D+00
224  2.2300000000000D+00  0.0000000000000D+00  0.0000000000000D+00
225  2.2400000000000D+00  0.0000000000000D+00  0.0000000000000D+00
226  2.2500000000000D+00  0.0000000000000D+00  0.0000000000000D+00
227  2.2600000000000D+00  0.0000000000000D+00  0.0000000000000D+00
228  2.2700000000000D+00  0.0000000000000D+00  0.0000000000000D+00
229  2.2800000000000D+00  0.0000000000000D+00  0.0000000000000D+00
230  2.2900000000000D+00  0.0000000000000D+00  0.0000000000000D+00
231  2.3000000000000D+00  0.0000000000000D+00  0.0000000000000D+00
232  2.3100000000000D+00  0.0000000000000D+00  0.0000000000000D+00
233  2.3200000000000D+00  0.0000000000000D+00  0.0000000000000D+00
234  2.3300000000000D+00  0.0000000000000D+00  0.0000000000000D+00
235  2.3400000000000D+00  0.0000000000000D+00  0.0000000000000D+00
236  2.3500000000000D+00  0.0000000000000D+00  0.0000000000000D+00
237  2.3600000000000D+00  0.0000000000000D+00  0.0000000000000D+00
238  2.3700000000000D+00  0.0000000000000D+00  0.0000000000000D+00
239  2.3800000000000D+00  0.0000000000000D+00  0.0000000000000D+00
240  2.3900000000000D+00  0.0000000000000D+00  0.0000000000000D+00
241  2.4000000000000D+00  0.0000000000000D+00  0.0000000000000D+00
242  2.4100000000000D+00  0.0000000000000D+00  0.0000000000000D+00
243  2.4200000000000D+00  0.0000000000000D+00  0.0000000000000D+00
244  2.4300000000000D+00  0.0000000000000D+00  0.0000000000000D+00
245  2.4400000000000D+00  0.0000000000000D+00  0.0000000000000D+00
246  2.4500000000000D+00  0.0000000000000D+00  0.0000000000000D+00
247  2.4600000000000D+00  0.0000000000000D+00  0.0000000000000D+00
248  2.4700000000000D+00  0.0000000000000D+00  0.0000000000000D+00
249  2.4800000000000D+00  0.0000000000000D+00  0.0000000000000D+00
250  2.4900000000000D+00  0.0000000000000D+00  0.0000000000000D+00
251  2.5000000000000D+00  0.0000000000000D+00  0.0000000000000D+00
252  2.5100000000000D+00  0.0000000000000D+00  0.0000000000000D+00
253  2.5200000000000D+00  0.0000000000000D+00  0.0000000000000D+00
254  2.5300000000000D+00  0.0000000000000D+00  0.0000000000000D+00
255  2.5400000000000D+00  0.0000000000000D+00  0.0000000000000D+00
256  2.5500000000000D+00  0.0000000000000D+00  0.0000000000000D+00
257  2.5600000000000D+00  0.0000000000000D+00  0.0000000000000D+00
258  2.5700000000000D+00  0.0000000000000D+00  0.0000000000000D+00
259  2.5800000000000D+00  0.0000000000000D+00  0.0000000000000D+00
260  2.5900000000000D+00  0.0000000000000D+00  0.0000000000000D+00
261  2.6000000000000D+00  0.0000000000000D+00  0.0000000000000D+00
262  2.6100000000000D+00  0.0000000000000D+00  0.0000000000000D+00
263  2.6200000000000D+00  0.0000000000000D+00  0.0000000000000D+00
264  2.6300000000000D+00  0.0000000000000D+00  0.0000000000000D+00
265  2.6400000000000D+00  0.0000000000000D+00  0.0000000000000D+00
266  2.6500000000000D+00  0.0000000000000D+00  0.0000000000000D+00
267  2.6600000000000D+00  0.0000000000000D+00  0.0000000000000D+00
268  2.6700000000000D+00  0.0000000000000D+00  0.0000000000000D+00
269  2.6800000000000D+00  0.0000000000000D+00  0.0000000000000D+00
270  2.6900000000000D+00  0.0000000000000D+00  0.0000000000000D+00
271  2.7000000000000D+00  0.0000000000000D+00  0.0000000000000D+00
272  2.7100000000000D+00  0.0000000000000D+00  0.0000000000000D+00
273  2.7200000000000D+00  0.0000000000000D+00  0.0000000000000D+00
274  2.7300000000000D+00  0.0000000000000D+00  0.0000000000000D+00
275  2.7400000000000D+00  0.0000000000000D+00  0.0000000000000D+00
276  2.7500000000000D+00  0.0000000000000D+00  0.0000000000000D+00
277  2.7600000000000D+00  0.0000000000000D+00  0.0000000000000D+00
278  2.7700000000000D+00  0.0000000000000D+00  0.0000000000000D+00
279  2.7800000000000D+00  0.0000000000000D+00  0.0000000000000D+00
280  2.7900000000000D+00  0.0000000000000D+00  0.0000000000000D+00
281  2.8000000000000D+00  0.0000000000000D+00  0.0000000000000D+00
282  2.8100000000000D+00  0.0000000000000D+00  0.0000000000000D+00
283  2.8200000000000D+00  0.0000000000000D+00  0.0000000000000D+00
284  2.8300000000000D+00  0.0000000000000D+00  0.0000000000000D+00
285  2.8400000000000D+00  0.0000000000000D+00  0.0000000000000D+00
286  2.8500000000000D+00  0.0000000000000D+00  0.0000000000000D+00
287  2.8600000000000D+00  0.0000000000000D+00  0.0000000000000D+00
288  2.8700000000000D+00  0.0000000000000D+00  0.0000000000000D+00
289  2.8800000000000D+00  0.0000000000000D+00  0.0000000000000D+00
290  2.8900000000000D+00  0.0000000000000D+00  0.0000000000000D+00
291  2.9000000000000D+00  0.0000000000000D+00  0.0000000000000D+00
292  2.9100000000000D+00  0.0000000000000D+00  0.0000000000000D+00
293  2.9200000000000D+00  0.0000000000000D+00  0.0000000000000D+00
294  2.9300000000000D+00  0.0000000000000D+00  0.0000000000000D+00
295  2.9400000000000D+00  0.0000000000000D+00  0.0000000000000D+00
296  2.9500000000000D+00  0.0000000000000D+00  0.0000000000000D+00
297  2.9600000000000D+00  0.0000000000000D+00  0.0000000000000D+00
298  2.9700000000000D+00  0.0000000000000D+00  0.0000000000000D+00
299  2.9800000000000D+00  0.0000000000000D+00  0.0000000000000D+00
300  2.9900000000000D+00  0.0000000000000D+00  0.0000000000000D+00
301  3.0000000000000D+00  0.0000000000000D+00  0.0000000000000D+00
302  3.0100000000000D+00  0.0000000000000D+00  0.0000000000000D+00
303  3.0200000000000D+00  0.0000000000000D+00  0.0000000000000D+00
304  3.0300000000000D+00  0.0000000000000D+00  0.0000000000000D+00
305  3.0400000000000D+00  0.0000000000000D+00  0.0000000000000D+00
306  3.0500000000000D+00  0.0000000000000D+00  0.0000000000000D+00
307  3.0600000000000D+00  0.0000000000000D+00  0.0000000000000D+00
308  3.0700000000000D+00  0.0000000000000D+00  0.0000000000000D+00
309  3.0800000000000D+00  0.0000000000000D+00  0.0000000000000D+00
310  3.0900000000000D+00  0.0000000000000D+00  0.0000000000000D+00
311  3.1000000000000D+00  0.0000000000000D+00  0.0000000000000D+00
312  3.1100000000000D+00  0.0000000000000D+00  0.0000000000000D+00
313  3.1200000000000D+00  0.0000000000000D+00  0.0000000000000D+00
314  3.1300000000000D+00  0.0000000000000D+00  0.0000000000000D+00
315  3.1400000000000D+00  0.0000000000000D+00  0.0000000000000D+00
316  3.1500000000000D+00  0.0000000000000D+00  0.0000000000000D+00
317  3.1600000000000D+00  0.0000000000000D+00  0.0000000000000D+00
318  3.1700000000000D+00  0.0000000000000D+00  0.0000000000000D+00
319  3.1800000000000D+00  0.0000000000000D+00  0.0000000000000D+00
320  3.1900000000000D+00  0.0000000000000D+00  0.0000000000000D+00
321  3.2000000000000D+00  0.0000000000000D+00  0.0000000000000D+00
322  3.2100000000000D+00  0.0000000000000D+00  0.0000000000000D+00
323  3.2200000000000D+00  0.0000000000000D+00  0.0000000000000D+00
324  3.2300000000000D+00  0.0000000000000D+00  0.0000000000000D+00
325  3.2400000000000D+00  0.0000000000000D+00  0.0000000000000D+00
326  3.2500000000000D+00  0.0000000000000D+00  0.0000000000000D+00
327  3.2600000000000D+00  0.0000000000000D+00  0.0000000000000D+00
328  3.2700000000000D+00  0.0000000000000D+00  0.0000000000000D+00
329  3.2800000000000D+00  0.0000000000000D+00  0.0000000000000D+00
330  3.2900000000000D+00  0.0000000000000D+00  0.0000000000000D+00
331  3.3000000000000D+00  0.0000000000000D+00  0.0000000000000D+00
332  3.3100000000000D+00  0.0000000000000D+00  0.0000000000000D+00
333  3.3200000000000D+00  0.0000000000000D+00  0.0000000000000D+00
334  3.3300000000000D+00  0.0000000000000D+00  0.0000000000000D+00
335  3.3400000000000D+00  0.0000000000000D+00  0.0000000000000D+00
336  3.3500000000000D+00  0.0000000000000D+00  0.0000000000000D+00
337  3.3600000000000D+00  0.0000000000000D+00  0.0000000000000D+00
338  3.3700000000000D+00  0.0000000000000D+00  0.0000000000000D+00
339  3.3800000000000D+00  0.0000000000000D+00  0.0000000000000D+00
340  3.3900000000000D+00  0.0000000000000D+00  0.0000000000000D+00
341  3.4000000000000D+00  0.0000000000000D+00  0.0000000000000D+00
342  3.4100000000000D+00  0.0000000000000D+00  0.0000000000000D+00
343  3.4200000000000D+00  0.0000000000000D+00  0.0000000000000D+00
344  3.4300000000000D+00  0.0000000000000D+00  0.0000000000000D+00
345  3.4400000000000D+00  0.0000000000000D+00  0.0000000000000D+00
346  3.4500000000000D+00  0.0000000000000D+00  0.0000000000000D+00
347  3.4600000000000D+00  0.0000000000000D+00  0.0000000000000D+00
348  3.4700000000000D+00  0.0000000000000D+00  0.0000000000000D+00
349  3.4800000000000D+00  0.0000000000000D+00  0.0000000000000D+00
350  3.4900000000000D+00  0.0000000000000D+00  0.0000000000000D+00
351  3.5000000000000D+00  0.0000000000000D+00  0.0000000000000D+00
352  3.5100000000000D+00  0.0000000000000D+00  0.0000000000000D+00
353  3.5200000000000D+00  0.0000000000000D+00  0.0000000000000D+00
354  3.5300000000000D+00  0.0000000000000D+00  0.0000000000000D+00
355  3.5400000000000D+00  0.0000000000000D+00  0.0000000000000D+00
356  3.5500000000000D+00  0.0000000000000D+00  0.0000000000000D+00
357  3.5600000000000D+00  0.0000000000000D+00  0.0000000000000D+00
358  3.5700000000000D+00  0.0000000000000D+00  0.0000000000000D+00
359  3.5800000000000D+00  0.0000000000000D+00  0.0000000000000D+00
360  3.5900000000000D+00  0.0000000000000D+00  0.0000000000000D+00
361  3.6000000000000D+00  0.0000000000000D+00  0.0000000000000D+00
362  3.6100000000000D+00  0.0000000000000D+00  0.0000000000000D+00
363  3.6200000000000D+00  0.0000000000000D+00  0.0000000000000D+00
364  3.6300000000000D+00  0.0000000000000D+00  0.0000000000000D+00
365  3.6400000000000D+00  0.0000000000000D+00  0.0000000000000D+00
366  3.6500000000000D+00  0.0000000000000D+00  0.0000000000000D+00
367  3.6600000000000D+00  0.0000000000000D+00  0.0000000000000D+00
368  3.6700000000000D+00  0.0000000000000D+00  0.0000000000000D+00
369  3.6800000000000D+00  0.0000000000000D+00  0.0000000000000D+00
370  3.6900000000000D+00  0.0000000000000D+00  0.0000000000000D+00
371  3.7000000000000D+00  0.0000000000000D+00  0.0000000000000D+00
372  3.7100000000000D+00  0.0000000000000D+00  0.0000000000000D+00
373  3.7200000000000D+00  0.0000000000000D+00  0.0000000000000D+00
374  3.7300000000000D+00  0.0000000000000D+00  0.0000000000000D+00
375  3.7400000000000D+00  0.0000000000000D+00  0.0000000000000D+00
376  3.7500000000000D+00  0.0000000000000D+00  0.0000000000000D+00
377  3.7600000000000D+00  0.0000000000000D+00  0.0000000000000D+00
378  3.7700000000000D+00  0.0000000000000D+00  0.0000000000000D+00
379  3.7800000000000D+00  0.0000000000000D+00  0.0000000000000D+00
380  3.7900000000000D+00  0.0000000000000D+00  0.0000000000000D+00
381  3.8000000000000D+00  0.0000000000000D+00  0.0000000000000D+00
382  3.8100000000000D+00  0.0000000000000D+00  0.0000000000000D+00
383  3.8200000000000D+00  0.0000000000000D+00  0.0000000000000D+00
384  3.8300000000000D+00  0.0000000000000D+00  0.0000000000000D+00
385  3.8400000000000D+00  0.0000000000000D+00  0.0000000000000D+00
386  3.8500000000000D+00  0.0000000000000D+00  0.0000000000000D+00
387  3.8600000000000D+00  0.0000000000000D+00  0.0000000000000D+00
388  3.8700000000000D+00  0.0000000000000D+00  0.0000000000000D+00
389  3.8800000000000D+00  0.0000000000000D+00  0.0000000000000D+00
390  3.8900000000000D+00  0.0000000000000D+00  0.0000000000000D+00
391  3.9000000000000D+00  0.0000000000000D+00  0.0000000000000D+00
392  3.9100000000000D+00  0.0000000000000D+00  0.0000000000000D+00
393  3.9200000000000D+00  0.0000000000000D+00  0.0000000000000D+00
394  3.9300000000000D+00  0.0000000000000D+00  0.0000000000000D+00
395  3.9400000000000D+00  0.0000000000000D+00  0.0000000000000D+00
396  3.9500000000000D+00  0.0000000000000D+00  0.0000000000000D+00
397  3.9600000000000D+00  0.0000000000000D+00  0.0000000000000D+00
398  3.9700000000000D+00  0.0000000000000D+00  0.0000000000000D+00
399  3.9800000000000D+00  0.0000000000000D+00  0.0000000000000D+00
400  3.9900000000000D+00  0.0000000000000D+00  0.0000000000000D+00
401  4.0000000000000D+00  0.0000000000000D+00  0.0000000000000D+00
402  4.0100000000000D+00  0.0000000000000D+00  0.0000000000000D+00
403  4.0200000000000D+00  0.0000000000000D+00  0.0000000000000D+00
404  4.0300000000000D+00  0.0000000000000D+00  0.0000000000000D+00
405  4.0400000000000D+00  0.0000000000000D+00  0.0000000000000D+00
406  4.0500000000000D+00  0.0000000000000D+00  0.0000000000000D+00
407  4.0600000000000D+00  0.0000000000000D+00  0.0000000000000D+00
408  4.0700000000000D+00  0.0000000000000D+00  0.0000000000000D+00
409  4.0800000000000D+00  0.0000000000000D+00  0.0000000000000D+00
410  4.0900000000000D+00  0.0000000000000D+00  0.0000000000000D+00
411  4.1000000000000D+00  0.0000000000000D+00  0.0000000000000D+00
412  4.1100000000000D+00  0.0000000000000D+00  0.0000000000000D+00
413  4.1200000000000D+00  0.0000000000000D+00  0.0000000000000D+00
414  4.1300000000000D+00  0.0000000000000D+00  0.0000000000000D+00
415  4.1400000000000D+00  0.0000000000000D+00  0.0000000000000D+00
416  4.1500000000000D+00  0.0000000000000D+00  0.0000000000000D+00
417  4.1600000000000D+00  0.0000000000000D+00  0.0000000000000D+00
418  4.1700000000000D+00  0.0000000000000D+00  0.0000000000000D+00
419  4.1800000000000D+00  0.0000000000000D+00  0.0000000000000D+00
420  4.1900000000000D+00  0.0000000000000D+00  0.0000000000000D+00
421  4.2000000000000D+00  0.0000000000000D+00  0.0000000000000D+00
422  4.2100000000000D+00  0.0000000000000D+00  0.0000000000000D+00
423  4.2200000000000D+00  0.0000000000000D+00  0.0000000000000D+00
424  4.2300000000000D+00  0.0000000000000D+00  0.0000000000000D+00
425  4.2400000000000D+00  0.0000000000000D+00  0.0000000000000D+00
426  4.2500000000000D+00  0.0000000000000D+00  0.0000000000000D+00
427  4.2600000000000D+00  0.0000000000000D+00  0.0000000000000D+00
428  4.2700000000000D+00  0.0000000000000D+00  0.0000000000000D+00
429  4.2800000000000D+00  0.0000000000000D+00  0.0000000000000D+00
430  4.2900000000000D+00  0.0000000000000D+00  0.0000000000000D+00
431  4.3000000000000D+00  0.0000000000000D+00  0.0000000000000D+00
432  4.3100000000000D+00  0.0000000000000D+00  0.0000000000000D+00
433  4.3200000000000D+00  0.0000000000000D+00  0.0000000000000D+00
434  4.3300000000000D+00  0.0000000000000D+00  0.0000000000000D+00
435  4.3400000000000D+00  0.0000000000000D+00  0.0000000000000D+00
436  4.3500000000000D+00  0.0000000000000D+00  0.0000000000000D+00
437  4.3600000000000D+00  0.0000000000000D+00  0.0000000000000D+00
438  4.3700000000000D+00  0.0000000000000D+00  0.0000000000000D+00
439  4.3800000000000D+00  0.0000000000000D+00  0.0000000000000D+00
440  4.3900000000000D+00  0.0000000000000D+00  0.0000000000000D+00
441  4.4000000000000D+00  0.0000000000000D+00  0.0000000000000D+00
442  4.4100000000000D+00  0.0000000000000D+00  0.0000000000000D+00
443  4.4200000000000D+00  0.0000000000000D+00  0.0000000000000D+00
444  4.4300000000000D+00  0.0000000000000D+00  0.0000000000000D+00