Pd    ONCVPSP  r_core=  2.82  1.86  2.02
46.0000     16.0000      140910    zatom,zion,pspd
8    11     2     4   601     0    pspcod,pspxc,lmax,lloc,mmax,r2well
6.00000000  0.25000000  0.00000000    rchrg fchrg qchrg
2     2     2     0     0    nproj
0                 extension_switch
0                         4.8641428004271D+00  4.4820356753536D-01
1  0.0000000000000D+00 -0.0000000000000D+00 -0.0000000000000D+00
2  1.0000000000000D-02 -1.6409370762781D-02 -1.3002913979043D-02
3  2.0000000000000D-02 -3.2812177997769D-02 -2.5995598206389D-02
4  3.0000000000000D-02 -4.9201870981308D-02 -3.8967829628107D-02
5  4.0000000000000D-02 -6.5571924576537D-02 -5.1909398597573D-02
6  5.0000000000000D-02 -8.1915851972905D-02 -6.4810115608287D-02
7  6.0000000000000D-02 -9.8227217360532D-02 -7.7659818060866D-02
8  7.0000000000000D-02 -1.1449964851696D-01 -9.0448377074354D-02
9  8.0000000000000D-02 -1.3072684928294D-01 -1.0316570435075D-01
10  9.0000000000000D-02 -1.4690261190353D-01 -1.1580175910049D-01
11  1.0000000000000D-01 -1.6302082920918D-01 -1.2834655503482D-01
12  1.1000000000000D-01 -1.7907550661084D-01 -1.4079016742918D-01
13  1.2000000000000D-01 -1.9506077388207D-01 -1.5312274026001D-01
14  1.3000000000000D-01 -2.1097089670000D-01 -1.6533449341524D-01
15  1.4000000000000D-01 -2.2680028791225D-01 -1.7741572997407D-01
16  1.5000000000000D-01 -2.4254351850555D-01 -1.8935684355577D-01
17  1.6000000000000D-01 -2.5819532823178D-01 -2.0114832572244D-01
18  1.7000000000000D-01 -2.7375063587340D-01 -2.1278077343635D-01
19  1.8000000000000D-01 -2.8920454909342D-01 -2.2424489654597D-01
20  1.9000000000000D-01 -3.0455237385245D-01 -2.3553152529856D-01
21  2.0000000000000D-01 -3.1978962333161D-01 -2.4663161784415D-01
22  2.1000000000000D-01 -3.3491202635875D-01 -2.5753626773822D-01
23  2.2000000000000D-01 -3.4991553524915D-01 -2.6823671138229D-01
24  2.3000000000000D-01 -3.6479633305811D-01 -2.7872433540621D-01
25  2.4000000000000D-01 -3.7955084017661D-01 -2.8899068394118D-01
26  2.5000000000000D-01 -3.9417572028542D-01 -2.9902746580912D-01
27  2.6000000000000D-01 -4.0866788548589D-01 -3.0882656145995D-01
28  2.7000000000000D-01 -4.2302450077821D-01 -3.1838002983511D-01
29  2.8000000000000D-01 -4.3724298762734D-01 -3.2768011490339D-01
30  2.9000000000000D-01 -4.5132102671655D-01 -3.3671925197598D-01
31  3.0000000000000D-01 -4.6525655979758D-01 -3.4549007371573D-01
32  3.1000000000000D-01 -4.7904779059666D-01 -3.5398541579924D-01
33  3.2000000000000D-01 -4.9269318473105D-01 -3.6219832216393D-01
34  3.3000000000000D-01 -5.0619146867643D-01 -3.7012204999153D-01
35  3.4000000000000D-01 -5.1954162757147D-01 -3.7775007397749D-01
36  3.5000000000000D-01 -5.3274290205336D-01 -3.8507609037133D-01
37  3.6000000000000D-01 -5.4579478392121D-01 -3.9209402029546D-01
38  3.7000000000000D-01 -5.5869701068038D-01 -3.9879801271217D-01
39  3.8000000000000D-01 -5.7144955894858D-01 -4.0518244654738D-01
40  3.9000000000000D-01 -5.8405263669264D-01 -4.1124193240591D-01
41  4.0000000000000D-01 -5.9650667419170D-01 -4.1697131364898D-01
42  4.1000000000000D-01 -6.0881231394279D-01 -4.2236566664861D-01
43  4.2000000000000D-01 -6.2097039928542D-01 -4.2742030050457D-01
44  4.3000000000000D-01 -6.3298196184687D-01 -4.3213075603351D-01
45  4.4000000000000D-01 -6.4484820780007D-01 -4.3649280405895D-01
46  4.5000000000000D-01 -6.5657050294831D-01 -4.4050244299785D-01
47  4.6000000000000D-01 -6.6815035666081D-01 -4.4415589574546D-01
48  4.7000000000000D-01 -6.7958940491980D-01 -4.4744960587797D-01
49  4.8000000000000D-01 -6.9088939165399D-01 -4.5038023317590D-01
50  4.9000000000000D-01 -7.0205214938420D-01 -4.5294464841987D-01
51  5.0000000000000D-01 -7.1307957915643D-01 -4.5513992760391D-01
52  5.1000000000000D-01 -7.2397363024921D-01 -4.5696334572131D-01
53  5.2000000000000D-01 -7.3473627548022D-01 -4.5841236939291D-01
54  5.3000000000000D-01 -7.4536949013420D-01 -4.5948464957291D-01
55  5.4000000000000D-01 -7.5587522973830D-01 -4.6017801396525D-01
56  5.5000000000000D-01 -7.6625540013378D-01 -4.6049045730014D-01
57  5.6000000000000D-01 -7.7651184112583D-01 -4.6042013452341D-01
58  5.7000000000000D-01 -7.8664629058691D-01 -4.5996534906869D-01
59  5.8000000000000D-01 -7.9666037080580D-01 -4.5912454662551D-01
60  5.9000000000000D-01 -8.0655554868483D-01 -4.5789630183317D-01
61  6.0000000000000D-01 -8.1633312468501D-01 -4.5627931290855D-01
62  6.1000000000000D-01 -8.2599419174553D-01 -4.5427238765214D-01
63  6.2000000000000D-01 -8.3553961981496D-01 -4.5187443700772D-01
64  6.3000000000000D-01 -8.4497002876407D-01 -4.4908446533215D-01
65  6.4000000000000D-01 -8.5428575368302D-01 -4.4590155832858D-01
66  6.5000000000000D-01 -8.6348683174052D-01 -4.4232487796638D-01
67  6.6000000000000D-01 -8.7257297545790D-01 -4.3835365339844D-01
68  6.7000000000000D-01 -8.8154353801277D-01 -4.3398716956767D-01
69  6.8000000000000D-01 -8.9039750327003D-01 -4.2922476409967D-01
70  6.9000000000000D-01 -8.9913346150448D-01 -4.2406581998472D-01
71  7.0000000000000D-01 -9.0774958802910D-01 -4.1850975961743D-01
72  7.1000000000000D-01 -9.1624361655705D-01 -4.1255603776260D-01
73  7.2000000000000D-01 -9.2461283190989D-01 -4.0620414108598D-01
74  7.3000000000000D-01 -9.3285405033714D-01 -3.9945358437921D-01
75  7.4000000000000D-01 -9.4096360508438D-01 -3.9230390906531D-01
76  7.5000000000000D-01 -9.4893733530189D-01 -3.8475468332330D-01
77  7.6000000000000D-01 -9.5677057303434D-01 -3.7680550248167D-01
78  7.7000000000000D-01 -9.6445813296715D-01 -3.6845599117267D-01
79  7.8000000000000D-01 -9.7199431155828D-01 -3.5970580858331D-01
80  7.9000000000000D-01 -9.7937288095666D-01 -3.5055465328494D-01
81  8.0000000000000D-01 -9.8658708758478D-01 -3.4100227018601D-01
82  8.1000000000000D-01 -9.9362965323864D-01 -3.3104845905053D-01
83  8.2000000000000D-01 -1.0004927787805D+00 -3.2069308460295D-01
84  8.3000000000000D-01 -1.0071681504899D+00 -3.0993608822954D-01
85  8.4000000000000D-01 -1.0136469491269D+00 -2.9877750127638D-01
86  8.5000000000000D-01 -1.0199198617538D+00 -2.8721745993257D-01
87  8.6000000000000D-01 -1.0259770963456D+00 -2.7525622167604D-01
88  8.7000000000000D-01 -1.0318083992110D+00 -2.6289418324796D-01
89  8.8000000000000D-01 -1.0374030752325D+00 -2.5013190010867D-01
90  8.9000000000000D-01 -1.0427500109189D+00 -2.3697010731575D-01
91  9.0000000000000D-01 -1.0478377002491D+00 -2.2340974175105D-01
92  9.1000000000000D-01 -1.0526542732717D+00 -2.0945196560931D-01
93  9.2000000000000D-01 -1.0571875274029D+00 -1.9509819104597D-01
94  9.3000000000000D-01 -1.0614249613502D+00 -1.8035010586654D-01
95  9.4000000000000D-01 -1.0653538106569D+00 -1.6520969888250D-01
96  9.5000000000000D-01 -1.0689610838454D+00 -1.4967928480429D-01
97  9.6000000000000D-01 -1.0722336140279D+00 -1.3376154521623D-01
98  9.7000000000000D-01 -1.0751580937919D+00 -1.1745954442727D-01
99  9.8000000000000D-01 -1.0777211233612D+00 -1.0077676242037D-01
100  9.9000000000000D-01 -1.0799092582005D+00 -8.3717123907485D-02
101  1.0000000000000D+00 -1.0817090582453D+00 -6.6285027257575D-02
102  1.0100000000000D+00 -1.0831071384252D+00 -4.8485373018490D-02
103  1.0200000000000D+00 -1.0840901918586D+00 -3.0323570254927D-02
104  1.0300000000000D+00 -1.0846451248694D+00 -1.1805629025294D-02
105  1.0400000000000D+00 -1.0847590410439D+00  7.0618712742137D-03
106  1.0500000000000D+00 -1.0844193162607D+00  2.6271739107660D-02
107  1.0600000000000D+00 -1.0836136534384D+00  4.5816146794257D-02
108  1.0700000000000D+00 -1.0823300918380D+00  6.5686636011323D-02
109  1.0800000000000D+00 -1.0805571825049D+00  8.5874018530557D-02
110  1.0900000000000D+00 -1.0782839722036D+00  1.0636840785365D-01
111  1.1000000000000D+00 -1.0755000471137D+00  1.2715920730939D-01
112  1.1100000000000D+00 -1.0721955640590D+00  1.4823510505165D-01
113  1.1200000000000D+00 -1.0683613400028D+00  1.6958403736589D-01
114  1.1300000000000D+00 -1.0639890180257D+00  1.9119312590564D-01
115  1.1400000000000D+00 -1.0590709518103D+00  2.1304875878955D-01
116  1.1500000000000D+00 -1.0536002451150D+00  2.3513658220992D-01
117  1.1600000000000D+00 -1.0475709054537D+00  2.5744144557427D-01
118  1.1700000000000D+00 -1.0409779741688D+00  2.7994738029237D-01
119  1.1800000000000D+00 -1.0338173688903D+00  3.0263768942665D-01
120  1.1900000000000D+00 -1.0260858414834D+00  3.2549496724064D-01
121  1.2000000000000D+00 -1.0177814712085D+00  3.4850095942210D-01
122  1.2100000000000D+00 -1.0089033267728D+00  3.7163672042103D-01
123  1.2200000000000D+00 -9.9945142245628D-01  3.9488263127596D-01
124  1.2300000000000D+00 -9.8942703466625D-01  4.1821833995694D-01
125  1.2400000000000D+00 -9.7883271316969D-01  4.4162282406204D-01
126  1.2500000000000D+00 -9.6767196767449D-01  4.6507446886089D-01
127  1.2600000000000D+00 -9.5594954843765D-01  4.8855103423221D-01
128  1.2700000000000D+00 -9.4367164156818D-01  5.1202972069784D-01
129  1.2800000000000D+00 -9.3084536935081D-01  5.3548722609684D-01
130  1.2900000000000D+00 -9.1747914399043D-01  5.5889974466690D-01
131  1.3000000000000D+00 -9.0358281940668D-01  5.8224309125235D-01
132  1.3100000000000D+00 -8.8916713350770D-01  6.0549265637482D-01
133  1.3200000000000D+00 -8.7424423204808D-01  6.2862351780291D-01
134  1.3300000000000D+00 -8.5882753896323D-01  6.5161056568057D-01
135  1.3400000000000D+00 -8.4293131012139D-01  6.7442831113716D-01
136  1.3500000000000D+00 -8.2657134480797D-01  6.9705130039043D-01
137  1.3600000000000D+00 -8.0976438743659D-01  7.1945396005788D-01
138  1.3700000000000D+00 -7.9252812681340D-01  7.4161047734911D-01
139  1.3800000000000D+00 -7.7488164763739D-01  7.6349547757092D-01
140  1.3900000000000D+00 -7.5684472134360D-01  7.8508331986080D-01
141  1.4000000000000D+00 -7.3843827342277D-01  8.0634871439087D-01
142  1.4100000000000D+00 -7.1968411600477D-01  8.2726674339805D-01
143  1.4200000000000D+00 -7.0060482254400D-01  8.4781225409097D-01
144  1.4300000000000D+00 -6.8122393564133D-01  8.6796123858146D-01
145  1.4400000000000D+00 -6.6156560950529D-01  8.8768938716553D-01
146  1.4500000000000D+00 -6.4165476892633D-01  9.0697329932514D-01
147  1.4600000000000D+00 -6.2151687421377D-01  9.2579005976537D-01
148  1.4700000000000D+00 -6.0117806445268D-01  9.4411691821174D-01
149  1.4800000000000D+00 -5.8066473337259D-01  9.6193257675345D-01
150  1.4900000000000D+00 -5.6000402111240D-01  9.7921524654763D-01
151  1.5000000000000D+00 -5.3922298277027D-01  9.9594509472853D-01
152  1.5100000000000D+00 -5.1834929868569D-01  1.0121019668480D+00
153  1.5200000000000D+00 -4.9741058559015D-01  1.0276671144805D+00
154  1.5300000000000D+00 -4.7643461763246D-01  1.0426222663671D+00
155  1.5400000000000D+00 -4.5544936692278D-01  1.0569498176798D+00
156  1.5500000000000D+00 -4.3448230119944D-01  1.0706333550176D+00
157  1.5600000000000D+00 -4.1356151762155D-01  1.0836564663165D+00
158  1.5700000000000D+00 -3.9271380972236D-01  1.0960044409485D+00
159  1.5800000000000D+00 -3.7196714583504D-01  1.1076620743870D+00
160  1.5900000000000D+00 -3.5134740221053D-01  1.1186160359152D+00
161  1.6000000000000D+00 -3.3088189911571D-01  1.1288524084427D+00
162  1.6100000000000D+00 -3.1059560018475D-01  1.1383587404025D+00
163  1.6200000000000D+00 -2.9051471121686D-01  1.1471222328034D+00
164  1.6300000000000D+00 -2.7066314768184D-01  1.1551309283052D+00
165  1.6400000000000D+00 -2.5106572791597D-01  1.1623727184810D+00
166  1.6500000000000D+00 -2.3174507986500D-01  1.1688356840833D+00
167  1.6600000000000D+00 -2.1272445778334D-01  1.1745078545095D+00
168  1.6700000000000D+00 -1.9402497208803D-01  1.1793766426046D+00
169  1.6800000000000D+00 -1.7566823049056D-01  1.1834299512130D+00
170  1.6900000000000D+00 -1.5767385869587D-01  1.1866564840290D+00
171  1.7000000000000D+00 -1.4006191502150D-01  1.1890454483651D+00
172  1.7100000000000D+00 -1.2285046776396D-01  1.1905891868445D+00
173  1.7200000000000D+00 -1.0605807636583D-01  1.1912797567795D+00
174  1.7300000000000D+00 -8.9700898709227D-02  1.1911130005058D+00
175  1.7400000000000D+00 -7.3795907621851D-02  1.1900839911332D+00
176  1.7500000000000D+00 -5.8357058207437D-02  1.1881922260992D+00
177  1.7600000000000D+00 -4.3399666317727D-02  1.1854357844100D+00
178  1.7700000000000D+00 -2.8935223332401D-02  1.1818179818157D+00
179  1.7800000000000D+00 -1.4977340766948D-02  1.1773398770575D+00
180  1.7900000000000D+00 -1.5349270155072D-03  1.1720085749565D+00
181  1.8000000000000D+00  1.1380452457725D-02  1.1658284364756D+00
182  1.8100000000000D+00  2.3762157571985D-02  1.1588098261601D+00
183  1.8200000000000D+00  3.5601334239375D-02  1.1509610370662D+00
184  1.8300000000000D+00  4.6893137989153D-02  1.1422950536519D+00
185  1.8400000000000D+00  5.7631782346860D-02  1.1328243007312D+00
186  1.8500000000000D+00  6.7814084495233D-02  1.1225641852255D+00
187  1.8600000000000D+00  7.7437498936163D-02  1.1115312026429D+00
188  1.8700000000000D+00  8.6500390071883D-02  1.0997430418380D+00
189  1.8800000000000D+00  9.5003524497387D-02  1.0872200521809D+00
190  1.8900000000000D+00  1.0294675829155D-01  1.0739821582988D+00
191  1.9000000000000D+00  1.1033400253131D-01  1.0600530930676D+00
192  1.9100000000000D+00  1.1716694051714D-01  1.0454552995287D+00
193  1.9200000000000D+00  1.2345179212156D-01  1.0302149519172D+00
194  1.9300000000000D+00  1.2919323036648D-01  1.0143576938667D+00
195  1.9400000000000D+00  1.3439857443442D-01  9.9791118437652D-01
196  1.9500000000000D+00  1.3907572759929D-01  9.8090400978274D-01
197  1.9600000000000D+00  1.4323306076567D-01  9.6336540475557D-01
198  1.9700000000000D+00  1.4688138768604D-01  9.4532610686727D-01
199  1.9800000000000D+00  1.5003026652971D-01  9.2681719688129D-01
200  1.9900000000000D+00  1.5269259061101D-01  9.0787071699431D-01
201  2.0000000000000D+00  1.5488026137917D-01  8.8851956605514D-01
202  2.0100000000000D+00  1.5660689051549D-01  8.6879680444288D-01
203  2.0200000000000D+00  1.5788675554136D-01  8.4873625171561D-01
204  2.0300000000000D+00  1.5873432287990D-01  8.2837247156972D-01
205  2.0400000000000D+00  1.5916551327679D-01  8.0773915985197D-01
206  2.0500000000000D+00  1.5919614128468D-01  7.8687226929893D-01
207  2.0600000000000D+00  1.5884294906564D-01  7.6580551168724D-01
208  2.0700000000000D+00  1.5812310521546D-01  7.4457430670753D-01
209  2.0800000000000D+00  1.5705411019802D-01  7.2321390421096D-01
210  2.0900000000000D+00  1.5565373145570D-01  7.0175758633018D-01
211  2.1000000000000D+00  1.5394063040961D-01  6.8024226235897D-01
212  2.1100000000000D+00  1.5193273837505D-01  6.5869973589819D-01
213  2.1200000000000D+00  1.4964900457707D-01  6.3716478384515D-01
214  2.1300000000000D+00  1.4710833878430D-01  6.1567126675838D-01
215  2.1400000000000D+00  1.4432891061485D-01  5.9424969359190D-01
216  2.1500000000000D+00  1.4133076403054D-01  5.7293544014680D-01
217  2.1600000000000D+00  1.3813159532707D-01  5.5175683351640D-01
218  2.1700000000000D+00  1.3475040246785D-01  5.3074502035417D-01
219  2.1800000000000D+00  1.3120646473112D-01  5.0993142246337D-01
220  2.1900000000000D+00  1.2751668289184D-01  4.8934128129986D-01
221  2.2000000000000D+00  1.2370069267719D-01  4.6900566489491D-01
222  2.2100000000000D+00  1.1977530394787D-01  4.4894908898693D-01
223  2.2200000000000D+00  1.1575729273626D-01  4.2919559172836D-01
224  2.2300000000000D+00  1.1166593542890D-01  4.0977404495248D-01
225  2.2400000000000D+00  1.0751518506082D-01  3.9070219829018D-01
226  2.2500000000000D+00  1.0332223477222D-01  3.7200391631821D-01
227  2.2600000000000D+00  9.9103184121046D-02  3.5370068071224D-01
228  2.2700000000000D+00  9.4871011217294D-02  3.3580772055367D-01
229  2.2800000000000D+00  9.0642369954187D-02  3.1834679982357D-01
230  2.2900000000000D+00  8.6429581094966D-02  3.0133155796783D-01
231  2.3000000000000D+00  8.2244617214687D-02  2.8477473157530D-01
232  2.3100000000000D+00  7.8103169333522D-02  2.6869530723693D-01
233  2.3200000000000D+00  7.4013554999923D-02  2.5309925747303D-01
234  2.3300000000000D+00  6.9987304286535D-02  2.3799780946794D-01
235  2.3400000000000D+00  6.6036666021861D-02  2.2340314518692D-01
236  2.3500000000000D+00  6.2168087860632D-02  2.0931759187115D-01
237  2.3600000000000D+00  5.8391773366771D-02  1.9574936506438D-01
238  2.3700000000000D+00  5.4716199565509D-02  1.8270370643348D-01
239  2.3800000000000D+00  5.1146209363736D-02  1.7017985616938D-01
240  2.3900000000000D+00  4.7690322480820D-02  1.5818252889842D-01
241  2.4000000000000D+00  4.4353442712928D-02  1.4671072797217D-01
242  2.4100000000000D+00  4.1138791921717D-02  1.3576067835220D-01
243  2.4200000000000D+00  3.8052975085510D-02  1.2533334839809D-01
244  2.4300000000000D+00  3.5097728332057D-02  1.1542247201898D-01
245  2.4400000000000D+00  3.2274635022496D-02  1.0602133877756D-01
246  2.4500000000000D+00  2.9588225985466D-02  9.7127064266181D-02
247  2.4600000000000D+00  2.7037610444208D-02  8.8729224531981D-02
248  2.4700000000000D+00  2.4622744455790D-02  8.0818314596198D-02
249  2.4800000000000D+00  2.2346015091285D-02  7.3387651211824D-02
250  2.4900000000000D+00  2.0204513469111D-02  6.6423799041889D-02
251  2.5000000000000D+00  1.8196634219869D-02  5.9914702267247D-02
252  2.5100000000000D+00  1.6322650262664D-02  5.3850101353381D-02
253  2.5200000000000D+00  1.4578250602695D-02  4.8214637763003D-02
254  2.5300000000000D+00  1.2960408910550D-02  4.2994080505185D-02
255  2.5400000000000D+00  1.1467416588509D-02  3.8174986267418D-02
256  2.5500000000000D+00  1.0094128221415D-02  3.3741020244514D-02
257  2.5600000000000D+00  8.8363244279728D-03  2.9676300409941D-02
258  2.5700000000000D+00  7.6905523262143D-03  2.5964762120874D-02
259  2.5800000000000D+00  6.6513003460915D-03  2.2589824530964D-02
260  2.5900000000000D+00  5.7134766684457D-03  1.9534631029525D-02
261  2.6000000000000D+00  4.8722269254850D-03  1.6781228604204D-02
262  2.6100000000000D+00  4.1219971133626D-03  1.4313238803491D-02
263  2.6200000000000D+00  3.4572328334505D-03  1.2113648745362D-02
264  2.6300000000000D+00  2.8721255548322D-03  1.0163518211472D-02
265  2.6400000000000D+00  2.3612250792897D-03  8.4467940720906D-03
266  2.6500000000000D+00  1.9189989695638D-03  6.9472384971764D-03
267  2.6600000000000D+00  1.5392283657462D-03  5.6459789097242D-03
268  2.6700000000000D+00  1.2165258230919D-03  4.5270815708283D-03
269  2.6800000000000D+00  9.4591089949275D-04  3.5760745874051D-03
270  2.6900000000000D+00  7.2137201151712D-04  2.7753211375605D-03
271  2.7000000000000D+00  5.3738316524774D-04  2.1085324944484D-03
272  2.7100000000000D+00  3.9004402697587D-04  1.5639687149024D-03
273  2.7200000000000D+00  2.7419588117943D-04  1.1264294805137D-03
274  2.7300000000000D+00  1.8388844219091D-04  7.7867262085729D-04
275  2.7400000000000D+00  1.1676054819778D-04  5.1251289228243D-04
276  2.7500000000000D+00  6.8880120149614D-05  3.1574867157490D-04
277  2.7600000000000D+00  3.4307378912075D-05  1.7131976201257D-04
278  2.7700000000000D+00  1.1850029723315D-05  7.3504534114256D-05
279  2.7800000000000D+00 -1.0636957060057D-06  1.3229105557906D-05
280  2.7900000000000D+00 -9.2720319545432D-06 -2.5016865225612D-05
281  2.8000000000000D+00 -1.3922020590251D-05 -4.6149297939202D-05
282  2.8100000000000D+00 -1.4706619959061D-05 -5.0925417166038D-05
283  2.8200000000000D+00 -1.2749802362492D-05 -4.4650967036385D-05
284  2.8300000000000D+00 -9.2071950394241D-06 -3.2835158751504D-05
285  2.8400000000000D+00 -4.8015312768717D-06 -1.7328821642044D-05
286  2.8500000000000D+00 -4.7100599311732D-07 -1.7142585322236D-06
287  2.8600000000000D+00  7.7449402007459D-07  2.6950398163946D-06
288  2.8700000000000D+00  8.3960916797838D-07  2.9216237688882D-06
289  2.8800000000000D+00  3.6295811577207D-07  1.2630008087023D-06
290  2.8900000000000D+00  0.0000000000000D+00  0.0000000000000D+00
291  2.9000000000000D+00  0.0000000000000D+00  0.0000000000000D+00
292  2.9100000000000D+00  0.0000000000000D+00  0.0000000000000D+00
293  2.9200000000000D+00  0.0000000000000D+00  0.0000000000000D+00
294  2.9300000000000D+00  0.0000000000000D+00  0.0000000000000D+00
295  2.9400000000000D+00  0.0000000000000D+00  0.0000000000000D+00
296  2.9500000000000D+00  0.0000000000000D+00  0.0000000000000D+00
297  2.9600000000000D+00  0.0000000000000D+00  0.0000000000000D+00
298  2.9700000000000D+00  0.0000000000000D+00  0.0000000000000D+00
299  2.9800000000000D+00  0.0000000000000D+00  0.0000000000000D+00
300  2.9900000000000D+00  0.0000000000000D+00  0.0000000000000D+00
301  3.0000000000000D+00  0.0000000000000D+00  0.0000000000000D+00
302  3.0100000000000D+00  0.0000000000000D+00  0.0000000000000D+00
303  3.0200000000000D+00  0.0000000000000D+00  0.0000000000000D+00
304  3.0300000000000D+00  0.0000000000000D+00  0.0000000000000D+00
305  3.0400000000000D+00  0.0000000000000D+00  0.0000000000000D+00
306  3.0500000000000D+00  0.0000000000000D+00  0.0000000000000D+00
307  3.0600000000000D+00  0.0000000000000D+00  0.0000000000000D+00
308  3.0700000000000D+00  0.0000000000000D+00  0.0000000000000D+00
309  3.0800000000000D+00  0.0000000000000D+00  0.0000000000000D+00
310  3.0900000000000D+00  0.0000000000000D+00  0.0000000000000D+00
311  3.1000000000000D+00  0.0000000000000D+00  0.0000000000000D+00
312  3.1100000000000D+00  0.0000000000000D+00  0.0000000000000D+00
313  3.1200000000000D+00  0.0000000000000D+00  0.0000000000000D+00
314  3.1300000000000D+00  0.0000000000000D+00  0.0000000000000D+00
315  3.1400000000000D+00  0.0000000000000D+00  0.0000000000000D+00
316  3.1500000000000D+00  0.0000000000000D+00  0.0000000000000D+00
317  3.1600000000000D+00  0.0000000000000D+00  0.0000000000000D+00
318  3.1700000000000D+00  0.0000000000000D+00  0.0000000000000D+00
319  3.1800000000000D+00  0.0000000000000D+00  0.0000000000000D+00
320  3.1900000000000D+00  0.0000000000000D+00  0.0000000000000D+00
321  3.2000000000000D+00  0.0000000000000D+00  0.0000000000000D+00
322  3.2100000000000D+00  0.0000000000000D+00  0.0000000000000D+00
323  3.2200000000000D+00  0.0000000000000D+00  0.0000000000000D+00
324  3.2300000000000D+00  0.0000000000000D+00  0.0000000000000D+00
325  3.2400000000000D+00  0.0000000000000D+00  0.0000000000000D+00
326  3.2500000000000D+00  0.0000000000000D+00  0.0000000000000D+00
327  3.2600000000000D+00  0.0000000000000D+00  0.0000000000000D+00
328  3.2700000000000D+00  0.0000000000000D+00  0.0000000000000D+00
329  3.2800000000000D+00  0.0000000000000D+00  0.0000000000000D+00
330  3.2900000000000D+00  0.0000000000000D+00  0.0000000000000D+00
331  3.3000000000000D+00  0.0000000000000D+00  0.0000000000000D+00
332  3.3100000000000D+00  0.0000000000000D+00  0.0000000000000D+00
333  3.3200000000000D+00  0.0000000000000D+00  0.0000000000000D+00
334  3.3300000000000D+00  0.0000000000000D+00  0.0000000000000D+00
335  3.3400000000000D+00  0.0000000000000D+00  0.0000000000000D+00
336  3.3500000000000D+00  0.0000000000000D+00  0.0000000000000D+00
337  3.3600000000000D+00  0.0000000000000D+00  0.0000000000000D+00
338  3.3700000000000D+00  0.0000000000000D+00  0.0000000000000D+00
339  3.3800000000000D+00  0.0000000000000D+00  0.0000000000000D+00
340  3.3900000000000D+00  0.0000000000000D+00  0.0000000000000D+00
341  3.4000000000000D+00  0.0000000000000D+00  0.0000000000000D+00
342  3.4100000000000D+00  0.0000000000000D+00  0.0000000000000D+00
343  3.4200000000000D+00  0.0000000000000D+00  0.0000000000000D+00
344  3.4300000000000D+00  0.0000000000000D+00  0.0000000000000D+00
345  3.4400000000000D+00  0.0000000000000D+00  0.0000000000000D+00
346  3.4500000000000D+00  0.0000000000000D+00  0.0000000000000D+00
347  3.4600000000000D+00  0.0000000000000D+00  0.0000000000000D+00
348  3.4700000000000D+00  0.0000000000000D+00  0.0000000000000D+00
349  3.4800000000000D+00  0.0000000000000D+00  0.0000000000000D+00
350  3.4900000000000D+00  0.0000000000000D+00  0.0000000000000D+00
351  3.5000000000000D+00  0.0000000000000D+00  0.0000000000000D+00
352  3.5100000000000D+00  0.0000000000000D+00  0.0000000000000D+00
353  3.5200000000000D+00  0.0000000000000D+00  0.0000000000000D+00
354  3.5300000000000D+00  0.0000000000000D+00  0.0000000000000D+00
355  3.5400000000000D+00  0.0000000000000D+00  0.0000000000000D+00
356  3.5500000000000D+00  0.0000000000000D+00  0.0000000000000D+00
357  3.5600000000000D+00  0.0000000000000D+00  0.0000000000000D+00
358  3.5700000000000D+00  0.0000000000000D+00  0.0000000000000D+00
359  3.5800000000000D+00  0.0000000000000D+00  0.0000000000000D+00
360  3.5900000000000D+00  0.0000000000000D+00  0.0000000000000D+00
361  3.6000000000000D+00  0.0000000000000D+00  0.0000000000000D+00
362  3.6100000000000D+00  0.0000000000000D+00  0.0000000000000D+00
363  3.6200000000000D+00  0.0000000000000D+00  0.0000000000000D+00
364  3.6300000000000D+00  0.0000000000000D+00  0.0000000000000D+00
365  3.6400000000000D+00  0.0000000000000D+00  0.0000000000000D+00
366  3.6500000000000D+00  0.0000000000000D+00  0.0000000000000D+00
367  3.6600000000000D+00  0.0000000000000D+00  0.0000000000000D+00
368  3.6700000000000D+00  0.0000000000000D+00  0.0000000000000D+00
369  3.6800000000000D+00  0.0000000000000D+00  0.0000000000000D+00
370  3.6900000000000D+00  0.0000000000000D+00  0.0000000000000D+00
371  3.7000000000000D+00  0.0000000000000D+00  0.0000000000000D+00
372  3.7100000000000D+00  0.0000000000000D+00  0.0000000000000D+00
373  3.7200000000000D+00  0.0000000000000D+00  0.0000000000000D+00
374  3.7300000000000D+00  0.0000000000000D+00  0.0000000000000D+00
375  3.7400000000000D+00  0.0000000000000D+00  0.0000000000000D+00
376  3.7500000000000D+00  0.0000000000000D+00  0.0000000000000D+00
377  3.7600000000000D+00  0.0000000000000D+00  0.0000000000000D+00
378  3.7700000000000D+00  0.0000000000000D+00  0.0000000000000D+00
379  3.7800000000000D+00  0.0000000000000D+00  0.0000000000000D+00
380  3.7900000000000D+00  0.0000000000000D+00  0.0000000000000D+00
381  3.8000000000000D+00  0.0000000000000D+00  0.0000000000000D+00
382  3.8100000000000D+00  0.0000000000000D+00  0.0000000000000D+00
383  3.8200000000000D+00  0.0000000000000D+00  0.0000000000000D+00
384  3.8300000000000D+00  0.0000000000000D+00  0.0000000000000D+00
385  3.8400000000000D+00  0.0000000000000D+00  0.0000000000000D+00
386  3.8500000000000D+00  0.0000000000000D+00  0.0000000000000D+00
387  3.8600000000000D+00  0.0000000000000D+00  0.0000000000000D+00
388  3.8700000000000D+00  0.0000000000000D+00  0.0000000000000D+00
389  3.8800000000000D+00  0.0000000000000D+00  0.0000000000000D+00
390  3.8900000000000D+00  0.0000000000000D+00  0.0000000000000D+00
391  3.9000000000000D+00  0.0000000000000D+00  0.0000000000000D+00
392  3.9100000000000D+00  0.0000000000000D+00  0.0000000000000D+00
393  3.9200000000000D+00  0.0000000000000D+00  0.0000000000000D+00
394  3.9300000000000D+00  0.0000000000000D+00  0.0000000000000D+00
395  3.9400000000000D+00  0.0000000000000D+00  0.0000000000000D+00
396  3.9500000000000D+00  0.0000000000000D+00  0.0000000000000D+00
397  3.9600000000000D+00  0.0000000000000D+00  0.0000000000000D+00
398  3.9700000000000D+00  0.0000000000000D+00  0.0000000000000D+00
399  3.9800000000000D+00  0.0000000000000D+00  0.0000000000000D+00
400  3.9900000000000D+00  0.0000000000000D+00  0.0000000000000D+00
401  4.0000000000000D+00  0.0000000000000D+00  0.0000000000000D+00
402  4.0100000000000D+00  0.0000000000000D+00  0.0000000000000D+00
403  4.0200000000000D+00  0.0000000000000D+00  0.0000000000000D+00
404  4.0300000000000D+00  0.0000000000000D+00  0.0000000000000D+00
405  4.0400000000000D+00  0.0000000000000D+00  0.0000000000000D+00
406  4.0500000000000D+00  0.0000000000000D+00  0.0000000000000D+00
407  4.0600000000000D+00  0.0000000000000D+00  0.0000000000000D+00
408  4.0700000000000D+00  0.0000000000000D+00  0.0000000000000D+00
409  4.0800000000000D+00  0.0000000000000D+00  0.0000000000000D+00
410  4.0900000000000D+00  0.0000000000000D+00  0.0000000000000D+00
411  4.1000000000000D+00  0.0000000000000D+00  0.0000000000000D+00
412  4.1100000000000D+00  0.0000000000000D+00  0.0000000000000D+00
413  4.1200000000000D+00  0.0000000000000D+00  0.0000000000000D+00
414  4.1300000000000D+00  0.0000000000000D+00  0.0000000000000D+00
415  4.1400000000000D+00  0.0000000000000D+00  0.0000000000000D+00
416  4.1500000000000D+00  0.0000000000000D+00  0.0000000000000D+00
417  4.1600000000000D+00  0.0000000000000D+00  0.0000000000000D+00
418  4.1700000000000D+00  0.0000000000000D+00  0.0000000000000D+00
419  4.1800000000000D+00  0.0000000000000D+00  0.0000000000000D+00
420  4.1900000000000D+00  0.0000000000000D+00  0.0000000000000D+00
421  4.2000000000000D+00  0.0000000000000D+00  0.0000000000000D+00
422  4.2100000000000D+00  0.0000000000000D+00  0.0000000000000D+00
423  4.2200000000000D+00  0.0000000000000D+00  0.0000000000000D+00
424  4.2300000000000D+00  0.0000000000000D+00  0.0000000000000D+00
425  4.2400000000000D+00  0.0000000000000D+00  0.0000000000000D+00
426  4.2500000000000D+00  0.0000000000000D+00  0.0000000000000D+00
427  4.2600000000000D+00  0.0000000000000D+00  0.0000000000000D+00
428  4.2700000000000D+00  0.0000000000000D+00  0.0000000000000D+00
429  4.2800000000000D+00  0.0000000000000D+00  0.0000000000000D+00
430  4.2900000000000D+00  0.0000000000000D+00  0.0000000000000D+00
431  4.3000000000000D+00  0.0000000000000D+00  0.0000000000000D+00
432  4.3100000000000D+00  0.0000000000000D+00  0.0000000000000D+00
433  4.3200000000000D+00  0.0000000000000D+00  0.0000000000000D+00
434  4.3300000000000D+00  0.0000000000000D+00  0.0000000000000D+00
435  4.3400000000000D+00  0.0000000000000D+00  0.0000000000000D+00
436  4.3500000000000D+00  0.0000000000000D+00  0.0000000000000D+00
437  4.3600000000000D+00  0.0000000000000D+00  0.0000000000000D+00
438  4.3700000000000D+00  0.0000000000000D+00  0.0000000000000D+00
439  4.3800000000000D+00  0.0000000000000D+00  0.0000000000000D+00
440  4.3900000000000D+00  0.0000000000000D+00  0.0000000000000D+00
441  4.4000000000000D+00  0.0000000000000D+00  0.0000000000000D+00
442  4.4100000000000D+00  0.0000000000000D+00  0.0000000000000D+00
443  4.4200000000000D+00  0.0000000000000D+00  0.0000000000000D+00
444  4.4300000000000D+00  0.0000000000000D+00  0.0000000000000D+00