Pd    ONCVPSP  r_core=  1.36  1.41  1.52
46.0000     18.0000      140818    zatom,zion,pspd
8    11     2     4   601     0    pspcod,pspxc,lmax,lloc,mmax,r2well
6.00000000  0.30000000  0.00000000    rchrg fchrg qchrg
2     2     2     0     0    nproj
0                 extension_switch
0                         3.8501209453957D+02  3.9656004711509D+00
1  0.0000000000000D+00 -0.0000000000000D+00 -0.0000000000000D+00
2  1.0000000000000D-02 -7.9978009029988D-02 -1.5625333590837D-02
3  2.0000000000000D-02 -1.5982977532671D-01 -3.1181463142920D-02
4  3.0000000000000D-02 -2.3942799276245D-01 -4.6600892625766D-02
5  4.0000000000000D-02 -3.1864324937494D-01 -6.1819517385612D-02
6  5.0000000000000D-02 -3.9734302657733D-01 -7.6778258524266D-02
7  6.0000000000000D-02 -4.7539076020142D-01 -9.1424624511268D-02
8  7.0000000000000D-02 -5.5264498278681D-01 -1.0571417711913D-01
9  8.0000000000000D-02 -6.2895856553498D-01 -1.1961187987701D-01
10  9.0000000000000D-02 -7.0417807708759D-01 -1.3309330866259D-01
11  1.0000000000000D-01 -7.7814327485838D-01 -1.4614570563817D-01
12  1.1000000000000D-01 -8.5068674296463D-01 -1.5876885963639D-01
13  1.2000000000000D-01 -9.2163368896264D-01 -1.7097579816876D-01
14  1.3000000000000D-01 -9.9080190959146D-01 -1.8279327849384D-01
15  1.4000000000000D-01 -1.0580019335790D+00 -1.9426206745056D-01
16  1.5000000000000D-01 -1.1230373472611D+00 -2.0543700275072D-01
17  1.6000000000000D-01 -1.1857053063351D+00 -2.1638683042807D-01
18  1.7000000000000D-01 -1.2457972349712D+00 -2.2719381658350D-01
19  1.8000000000000D-01 -1.3030997102478D+00 -2.3795313385611D-01
20  1.9000000000000D-01 -1.3573955285984D+00 -2.4877202599882D-01
21  2.0000000000000D-01 -1.4084649461972D+00 -2.5976875766080D-01
22  2.1000000000000D-01 -1.4560870875898D+00 -2.7107135613532D-01
23  2.2000000000000D-01 -1.5000415067265D+00 -2.8281615996152D-01
24  2.3000000000000D-01 -1.5401098902561D+00 -2.9514618626826D-01
25  2.4000000000000D-01 -1.5760778836016D+00 -3.0820933672646D-01
26  2.5000000000000D-01 -1.6077370336862D+00 -3.2215645032043D-01
27  2.6000000000000D-01 -1.6348867996835D+00 -3.3713925125667D-01
28  2.7000000000000D-01 -1.6573366562378D+00 -3.5330817205138D-01
29  2.8000000000000D-01 -1.6749082184579D+00 -3.7081012193431D-01
30  2.9000000000000D-01 -1.6874373964190D+00 -3.8978619671798D-01
31  3.0000000000000D-01 -1.6947765440879D+00 -4.1036936694862D-01
32  3.1000000000000D-01 -1.6967965757443D+00 -4.3268217396355D-01
33  3.2000000000000D-01 -1.6933890134103D+00 -4.5683447386642D-01
34  3.3000000000000D-01 -1.6844680003234D+00 -4.8292119357736D-01
35  3.4000000000000D-01 -1.6699721222814D+00 -5.1102026736477D-01
36  3.5000000000000D-01 -1.6498661779582D+00 -5.4119060637429D-01
37  3.6000000000000D-01 -1.6241427249765D+00 -5.7347028629732D-01
38  3.7000000000000D-01 -1.5928235150208D+00 -6.0787483212136D-01
39  3.8000000000000D-01 -1.5559606316053D+00 -6.4439580456621D-01
40  3.9000000000000D-01 -1.5136374764102D+00 -6.8299952896252D-01
41  4.0000000000000D-01 -1.4659695159357D+00 -7.2362606174223D-01
42  4.1000000000000D-01 -1.4131047030552D+00 -7.6618849436758D-01
43  4.2000000000000D-01 -1.3552236783870D+00 -8.1057247533724D-01
44  4.3000000000000D-01 -1.2925396717691D+00 -8.5663604090809D-01
45  4.4000000000000D-01 -1.2252981091109D+00 -9.0420974931550D-01
46  4.5000000000000D-01 -1.1537759189728D+00 -9.5309712566597D-01
47  4.6000000000000D-01 -1.0782805362280D+00 -1.0030754214728D+00
48  4.7000000000000D-01 -9.9914860539972D-01 -1.0538966919034D+00
49  4.8000000000000D-01 -9.1674439662478D-01 -1.1052891593007D+00
50  4.9000000000000D-01 -8.3145789844187D-01 -1.1569589247247D+00
51  5.0000000000000D-01 -7.4370265001711D-01 -1.2085919576319D+00
52  5.1000000000000D-01 -6.5391337484840D-01 -1.2598563048087D+00
53  5.2000000000000D-01 -5.6254316720307D-01 -1.3104047077908D+00
54  5.3000000000000D-01 -4.7006064332047D-01 -1.3598773389090D+00
55  5.4000000000000D-01 -3.7694697817719D-01 -1.4079046427594D+00
56  5.5000000000000D-01 -2.8369212704222D-01 -1.4541109273415D+00
57  5.6000000000000D-01 -1.9079210248564D-01 -1.4981170651281D+00
58  5.7000000000000D-01 -9.8744419036416D-02 -1.5395448291854D+00
59  5.8000000000000D-01 -8.0455907483766D-03 -1.5780194064736D+00
60  5.9000000000000D-01  8.0814033828948D-02 -1.6131743343137D+00
61  6.0000000000000D-01  1.6735241941029D-01 -1.6446536713290D+00
62  6.1000000000000D-01  2.5110125985860D-01 -1.6721171860363D+00
63  6.2000000000000D-01  3.3160849447880D-01 -1.6952428429832D+00
64  6.3000000000000D-01  4.0844206019503D-01 -1.7137304222070D+00
65  6.4000000000000D-01  4.8119451921737D-01 -1.7273059519641D+00
66  6.5000000000000D-01  5.4948498897489D-01 -1.7357235768651D+00
67  6.6000000000000D-01  6.1296258797823D-01 -1.7387688277496D+00
68  6.7000000000000D-01  6.7131074471024D-01 -1.7362626769905D+00
69  6.8000000000000D-01  7.2424832901891D-01 -1.7280625601974D+00
70  6.9000000000000D-01  7.7153238965162D-01 -1.7140648794662D+00
71  7.0000000000000D-01  8.1296037490585D-01 -1.6942069788069D+00
72  7.1000000000000D-01  8.4837277190593D-01 -1.6684694555132D+00
73  7.2000000000000D-01  8.7765327725986D-01 -1.6368761209570D+00
74  7.3000000000000D-01  9.0073026375680D-01 -1.5994951234372D+00
75  7.4000000000000D-01  9.1757743550756D-01 -1.5564392597875D+00
76  7.5000000000000D-01  9.2821393755748D-01 -1.5078657335940D+00
77  7.6000000000000D-01  9.3270446147534D-01 -1.4539758398706D+00
78  7.7000000000000D-01  9.3115881287790D-01 -1.3950140804782D+00
79  7.8000000000000D-01  9.2373041254038D-01 -1.3312662888113D+00
80  7.9000000000000D-01  9.1061513902278D-01 -1.2630579820862D+00
81  8.0000000000000D-01  8.9204954939471D-01 -1.1907520982613D+00
82  8.1000000000000D-01  8.6830871987626D-01 -1.1147463361943D+00
83  8.2000000000000D-01  8.3970372501832D-01 -1.0354701206751D+00
84  8.3000000000000D-01  8.0657877794271D-01 -9.5338121823696D-01
85  8.4000000000000D-01  7.6930805783998D-01 -8.6896203368109D-01
86  8.5000000000000D-01  7.2829225435650D-01 -7.8271562100221D-01
87  8.6000000000000D-01  6.8395486168012D-01 -6.9516144587121D-01
88  8.7000000000000D-01  6.3673825804155D-01 -6.0683093999680D-01
89  8.8000000000000D-01  5.8709960897391D-01 -5.1826289053166D-01
90  8.9000000000000D-01  5.3550663499828D-01 -4.2999871019251D-01
91  9.0000000000000D-01  4.8243328640229D-01 -3.4257763589185D-01
92  9.1000000000000D-01  4.2835536940823D-01 -2.5653190538259D-01
93  9.2000000000000D-01  3.7374616922909D-01 -1.7238196262510D-01
94  9.3000000000000D-01  3.1907211620048D-01 -9.0631743202380D-02
95  9.4000000000000D-01  2.6478874091818D-01 -1.1764331013356D-02
96  9.5000000000000D-01  2.1133692482939D-01  6.3762033301104D-02
97  9.6000000000000D-01  1.5913689309890D-01  1.3552059178034D-01
98  9.7000000000000D-01  1.0858656227916D-01  2.0311747447406D-01
99  9.8000000000000D-01  6.0057408399205D-02  2.6619610408074D-01
100  9.9000000000000D-01  1.3891291308279D-02  3.2444043613479D-01
101  1.0000000000000D+00 -2.9602384131293D-02  3.7757779683637D-01
102  1.0100000000000D+00 -7.0149134452624D-02  4.2538128080543D-01
103  1.0200000000000D+00 -1.0750889089192D-01  4.6766882693331D-01
104  1.0300000000000D+00 -1.4148584060971D-01  5.0431381242800D-01
105  1.0400000000000D+00 -1.7192201705870D-01  5.3523738734916D-01
106  1.0500000000000D+00 -1.9870040788441D-01  5.6041153816128D-01
107  1.0600000000000D+00 -2.2174530363583D-01  5.7985901912454D-01
108  1.0700000000000D+00 -2.4101981445968D-01  5.9365028566356D-01
109  1.0800000000000D+00 -2.5653279423560D-01  6.0191034247616D-01
110  1.0900000000000D+00 -2.6833226137114D-01  6.0481103935230D-01
111  1.1000000000000D+00 -2.7650384752067D-01  6.0256890694174D-01
112  1.1100000000000D+00 -2.8116884451991D-01  5.9544261547870D-01
113  1.1200000000000D+00 -2.8248428981760D-01  5.8373241874452D-01
114  1.1300000000000D+00 -2.8064217852209D-01  5.6777803348805D-01
115  1.1400000000000D+00 -2.7586139017602D-01  5.4794997993648D-01
116  1.1500000000000D+00 -2.6838624227906D-01  5.2464760542559D-01
117  1.1600000000000D+00 -2.5848555432910D-01  4.9829689941572D-01
118  1.1700000000000D+00 -2.4644723596278D-01  4.6934323598937D-01
119  1.1800000000000D+00 -2.3257293591566D-01  4.3824621697025D-01
120  1.1900000000000D+00 -2.1717730747968D-01  4.0547910830802D-01
121  1.2000000000000D+00 -2.0058092927317D-01  3.7151706764171D-01
122  1.2100000000000D+00 -1.8310610319871D-01  3.3683459252510D-01
123  1.2200000000000D+00 -1.6507691114521D-01  3.0190589102770D-01
124  1.2300000000000D+00 -1.4681117970705D-01  2.6719321560092D-01
125  1.2400000000000D+00 -1.2861326933488D-01  2.3313827072005D-01
126  1.2500000000000D+00 -1.1077995600898D-01  2.0017131358239D-01
127  1.2600000000000D+00 -9.3591721969480D-02  1.6869892268806D-01
128  1.2700000000000D+00 -7.7300107648984D-02  1.3908759305850D-01
129  1.2800000000000D+00 -6.2143357627763D-02  1.1168568067389D-01
130  1.2900000000000D+00 -4.8332761481322D-02  8.6804753533085D-02
131  1.3000000000000D+00 -3.6040685349348D-02  6.4704072941657D-02
132  1.3100000000000D+00 -2.5424446683580D-02  4.5622867235363D-02
133  1.3200000000000D+00 -1.6601167770007D-02  2.9746600449896D-02
134  1.3300000000000D+00 -9.6496605088464D-03  1.7209654944272D-02
135  1.3400000000000D+00 -4.6342971120455D-03  8.1273163762385D-03
136  1.3500000000000D+00 -1.6971982517006D-03  2.7733546285988D-03
137  1.3600000000000D+00 -4.7700577811554D-04  5.4995174179541D-04
138  1.3700000000000D+00 -3.0760896377310D-05 -8.4359367513237D-05
139  1.3800000000000D+00  1.8381785782885D-05 -1.9666953003940D-05
140  1.3900000000000D+00  1.5923571832622D-05 -1.7036872401083D-05
141  1.4000000000000D+00  0.0000000000000D+00  0.0000000000000D+00
142  1.4100000000000D+00  0.0000000000000D+00  0.0000000000000D+00
143  1.4200000000000D+00  0.0000000000000D+00  0.0000000000000D+00
144  1.4300000000000D+00  0.0000000000000D+00  0.0000000000000D+00
145  1.4400000000000D+00  0.0000000000000D+00  0.0000000000000D+00
146  1.4500000000000D+00  0.0000000000000D+00  0.0000000000000D+00
147  1.4600000000000D+00  0.0000000000000D+00  0.0000000000000D+00
148  1.4700000000000D+00  0.0000000000000D+00  0.0000000000000D+00
149  1.4800000000000D+00  0.0000000000000D+00  0.0000000000000D+00
150  1.4900000000000D+00  0.0000000000000D+00  0.0000000000000D+00
151  1.5000000000000D+00  0.0000000000000D+00  0.0000000000000D+00
152  1.5100000000000D+00  0.0000000000000D+00  0.0000000000000D+00
153  1.5200000000000D+00  0.0000000000000D+00  0.0000000000000D+00
154  1.5300000000000D+00  0.0000000000000D+00  0.0000000000000D+00
155  1.5400000000000D+00  0.0000000000000D+00  0.0000000000000D+00
156  1.5500000000000D+00  0.0000000000000D+00  0.0000000000000D+00
157  1.5600000000000D+00  0.0000000000000D+00  0.0000000000000D+00
158  1.5700000000000D+00  0.0000000000000D+00  0.0000000000000D+00
159  1.5800000000000D+00  0.0000000000000D+00  0.0000000000000D+00
160  1.5900000000000D+00  0.0000000000000D+00  0.0000000000000D+00
161  1.6000000000000D+00  0.0000000000000D+00  0.0000000000000D+00
162  1.6100000000000D+00  0.0000000000000D+00  0.0000000000000D+00
163  1.6200000000000D+00  0.0000000000000D+00  0.0000000000000D+00
164  1.6300000000000D+00  0.0000000000000D+00  0.0000000000000D+00
165  1.6400000000000D+00  0.0000000000000D+00  0.0000000000000D+00
166  1.6500000000000D+00  0.0000000000000D+00  0.0000000000000D+00
167  1.6600000000000D+00  0.0000000000000D+00  0.0000000000000D+00
168  1.6700000000000D+00  0.0000000000000D+00  0.0000000000000D+00
169  1.6800000000000D+00  0.0000000000000D+00  0.0000000000000D+00
170  1.6900000000000D+00  0.0000000000000D+00  0.0000000000000D+00
171  1.7000000000000D+00  0.0000000000000D+00  0.0000000000000D+00
172  1.7100000000000D+00  0.0000000000000D+00  0.0000000000000D+00
173  1.7200000000000D+00  0.0000000000000D+00  0.0000000000000D+00
174  1.7300000000000D+00  0.0000000000000D+00  0.0000000000000D+00
175  1.7400000000000D+00  0.0000000000000D+00  0.0000000000000D+00
176  1.7500000000000D+00  0.0000000000000D+00  0.0000000000000D+00
177  1.7600000000000D+00  0.0000000000000D+00  0.0000000000000D+00
178  1.7700000000000D+00  0.0000000000000D+00  0.0000000000000D+00
179  1.7800000000000D+00  0.0000000000000D+00  0.0000000000000D+00
180  1.7900000000000D+00  0.0000000000000D+00  0.0000000000000D+00
181  1.8000000000000D+00  0.0000000000000D+00  0.0000000000000D+00
182  1.8100000000000D+00  0.0000000000000D+00  0.0000000000000D+00
183  1.8200000000000D+00  0.0000000000000D+00  0.0000000000000D+00
184  1.8300000000000D+00  0.0000000000000D+00  0.0000000000000D+00
185  1.8400000000000D+00  0.0000000000000D+00  0.0000000000000D+00
186  1.8500000000000D+00  0.0000000000000D+00  0.0000000000000D+00
187  1.8600000000000D+00  0.0000000000000D+00  0.0000000000000D+00
188  1.8700000000000D+00  0.0000000000000D+00  0.0000000000000D+00
189  1.8800000000000D+00  0.0000000000000D+00  0.0000000000000D+00
190  1.8900000000000D+00  0.0000000000000D+00  0.0000000000000D+00
191  1.9000000000000D+00  0.0000000000000D+00  0.0000000000000D+00
192  1.9100000000000D+00  0.0000000000000D+00  0.0000000000000D+00
193  1.9200000000000D+00  0.0000000000000D+00  0.0000000000000D+00
194  1.9300000000000D+00  0.0000000000000D+00  0.0000000000000D+00
195  1.9400000000000D+00  0.0000000000000D+00  0.0000000000000D+00
196  1.9500000000000D+00  0.0000000000000D+00  0.0000000000000D+00
197  1.9600000000000D+00  0.0000000000000D+00  0.0000000000000D+00
198  1.9700000000000D+00  0.0000000000000D+00  0.0000000000000D+00
199  1.9800000000000D+00  0.0000000000000D+00  0.0000000000000D+00
200  1.9900000000000D+00  0.0000000000000D+00  0.0000000000000D+00
201  2.0000000000000D+00  0.0000000000000D+00  0.0000000000000D+00
202  2.0100000000000D+00  0.0000000000000D+00  0.0000000000000D+00
203  2.0200000000000D+00  0.0000000000000D+00  0.0000000000000D+00
204  2.0300000000000D+00  0.0000000000000D+00  0.0000000000000D+00
205  2.0400000000000D+00  0.0000000000000D+00  0.0000000000000D+00
206  2.0500000000000D+00  0.0000000000000D+00  0.0000000000000D+00
207  2.0600000000000D+00  0.0000000000000D+00  0.0000000000000D+00
208  2.0700000000000D+00  0.0000000000000D+00  0.0000000000000D+00
209  2.0800000000000D+00  0.0000000000000D+00  0.0000000000000D+00
210  2.0900000000000D+00  0.0000000000000D+00  0.0000000000000D+00
211  2.1000000000000D+00  0.0000000000000D+00  0.0000000000000D+00
212  2.1100000000000D+00  0.0000000000000D+00  0.0000000000000D+00
213  2.1200000000000D+00  0.0000000000000D+00  0.0000000000000D+00
214  2.1300000000000D+00  0.0000000000000D+00  0.0000000000000D+00
215  2.1400000000000D+00  0.0000000000000D+00  0.0000000000000D+00
216  2.1500000000000D+00  0.0000000000000D+00  0.0000000000000D+00
217  2.1600000000000D+00  0.0000000000000D+00  0.0000000000000D+00
218  2.1700000000000D+00  0.0000000000000D+00  0.0000000000000D+00
219  2.1800000000000D+00  0.0000000000000D+00  0.0000000000000D+00
220  2.1900000000000D+00  0.0000000000000D+00  0.0000000000000D+00
221  2.2000000000000D+00  0.0000000000000D+00  0.0000000000000D+00
222  2.2100000000000D+00  0.0000000000000D+00  0.0000000000000D+00
223  2.2200000000000D+00  0.0000000000000D+00  0.0000000000000D+00
224  2.2300000000000D+00  0.0000000000000D+00  0.0000000000000D+00
225  2.2400000000000D+00  0.0000000000000D+00  0.0000000000000D+00
226  2.2500000000000D+00  0.0000000000000D+00  0.0000000000000D+00
227  2.2600000000000D+00  0.0000000000000D+00  0.0000000000000D+00
228  2.2700000000000D+00  0.0000000000000D+00  0.0000000000000D+00
229  2.2800000000000D+00  0.0000000000000D+00  0.0000000000000D+00
230  2.2900000000000D+00  0.0000000000000D+00  0.0000000000000D+00
231  2.3000000000000D+00  0.0000000000000D+00  0.0000000000000D+00
232  2.3100000000000D+00  0.0000000000000D+00  0.0000000000000D+00
233  2.3200000000000D+00  0.0000000000000D+00  0.0000000000000D+00
234  2.3300000000000D+00  0.0000000000000D+00  0.0000000000000D+00
235  2.3400000000000D+00  0.0000000000000D+00  0.0000000000000D+00
236  2.3500000000000D+00  0.0000000000000D+00  0.0000000000000D+00
237  2.3600000000000D+00  0.0000000000000D+00  0.0000000000000D+00
238  2.3700000000000D+00  0.0000000000000D+00  0.0000000000000D+00
239  2.3800000000000D+00  0.0000000000000D+00  0.0000000000000D+00
240  2.3900000000000D+00  0.0000000000000D+00  0.0000000000000D+00
241  2.4000000000000D+00  0.0000000000000D+00  0.0000000000000D+00
242  2.4100000000000D+00  0.0000000000000D+00  0.0000000000000D+00
243  2.4200000000000D+00  0.0000000000000D+00  0.0000000000000D+00
244  2.4300000000000D+00  0.0000000000000D+00  0.0000000000000D+00
245  2.4400000000000D+00  0.0000000000000D+00  0.0000000000000D+00
246  2.4500000000000D+00  0.0000000000000D+00  0.0000000000000D+00
247  2.4600000000000D+00  0.0000000000000D+00  0.0000000000000D+00
248  2.4700000000000D+00  0.0000000000000D+00  0.0000000000000D+00
249  2.4800000000000D+00  0.0000000000000D+00  0.0000000000000D+00
250  2.4900000000000D+00  0.0000000000000D+00  0.0000000000000D+00
251  2.5000000000000D+00  0.0000000000000D+00  0.0000000000000D+00
252  2.5100000000000D+00  0.0000000000000D+00  0.0000000000000D+00
253  2.5200000000000D+00  0.0000000000000D+00  0.0000000000000D+00
254  2.5300000000000D+00  0.0000000000000D+00  0.0000000000000D+00
255  2.5400000000000D+00  0.0000000000000D+00  0.0000000000000D+00
256  2.5500000000000D+00  0.0000000000000D+00  0.0000000000000D+00
257  2.5600000000000D+00  0.0000000000000D+00  0.0000000000000D+00
258  2.5700000000000D+00  0.0000000000000D+00  0.0000000000000D+00
259  2.5800000000000D+00  0.0000000000000D+00  0.0000000000000D+00
260  2.5900000000000D+00  0.0000000000000D+00  0.0000000000000D+00
261  2.6000000000000D+00  0.0000000000000D+00  0.0000000000000D+00
262  2.6100000000000D+00  0.0000000000000D+00  0.0000000000000D+00
263  2.6200000000000D+00  0.0000000000000D+00  0.0000000000000D+00
264  2.6300000000000D+00  0.0000000000000D+00  0.0000000000000D+00
265  2.6400000000000D+00  0.0000000000000D+00  0.0000000000000D+00
266  2.6500000000000D+00  0.0000000000000D+00  0.0000000000000D+00
267  2.6600000000000D+00  0.0000000000000D+00  0.0000000000000D+00
268  2.6700000000000D+00  0.0000000000000D+00  0.0000000000000D+00
269  2.6800000000000D+00  0.0000000000000D+00  0.0000000000000D+00
270  2.6900000000000D+00  0.0000000000000D+00  0.0000000000000D+00
271  2.7000000000000D+00  0.0000000000000D+00  0.0000000000000D+00
272  2.7100000000000D+00  0.0000000000000D+00  0.0000000000000D+00
273  2.7200000000000D+00  0.0000000000000D+00  0.0000000000000D+00
274  2.7300000000000D+00  0.0000000000000D+00  0.0000000000000D+00
275  2.7400000000000D+00  0.0000000000000D+00  0.0000000000000D+00
276  2.7500000000000D+00  0.0000000000000D+00  0.0000000000000D+00
277  2.7600000000000D+00  0.0000000000000D+00  0.0000000000000D+00
278  2.7700000000000D+00  0.0000000000000D+00  0.0000000000000D+00
279  2.7800000000000D+00  0.0000000000000D+00  0.0000000000000D+00
280  2.7900000000000D+00  0.0000000000000D+00  0.0000000000000D+00
281  2.8000000000000D+00  0.0000000000000D+00  0.0000000000000D+00
282  2.8100000000000D+00  0.0000000000000D+00  0.0000000000000D+00
283  2.8200000000000D+00  0.0000000000000D+00  0.0000000000000D+00
284  2.8300000000000D+00  0.0000000000000D+00  0.0000000000000D+00
285  2.8400000000000D+00  0.0000000000000D+00  0.0000000000000D+00
286  2.8500000000000D+00  0.0000000000000D+00  0.0000000000000D+00
287  2.8600000000000D+00  0.0000000000000D+00  0.0000000000000D+00
288  2.8700000000000D+00  0.0000000000000D+00  0.0000000000000D+00
289  2.8800000000000D+00  0.0000000000000D+00  0.0000000000000D+00
290  2.8900000000000D+00  0.0000000000000D+00  0.0000000000000D+00
291  2.9000000000000D+00  0.0000000000000D+00  0.0000000000000D+00
292  2.9100000000000D+00  0.0000000000000D+00  0.0000000000000D+00
293  2.9200000000000D+00  0.0000000000000D+00  0.0000000000000D+00
294  2.9300000000000D+00  0.0000000000000D+00  0.0000000000000D+00
295  2.9400000000000D+00  0.0000000000000D+00  0.0000000000000D+00
296  2.9500000000000D+00  0.0000000000000D+00  0.0000000000000D+00
297  2.9600000000000D+00  0.0000000000000D+00  0.0000000000000D+00
298  2.9700000000000D+00  0.0000000000000D+00  0.0000000000000D+00
299  2.9800000000000D+00  0.0000000000000D+00  0.0000000000000D+00
300  2.9900000000000D+00  0.0000000000000D+00  0.0000000000000D+00
301  3.0000000000000D+00  0.0000000000000D+00  0.0000000000000D+00
302  3.0100000000000D+00  0.0000000000000D+00  0.0000000000000D+00
303  3.0200000000000D+00  0.0000000000000D+00  0.0000000000000D+00
304  3.0300000000000D+00  0.0000000000000D+00  0.0000000000000D+00
305  3.0400000000000D+00  0.0000000000000D+00  0.0000000000000D+00
306  3.0500000000000D+00  0.0000000000000D+00  0.0000000000000D+00
307  3.0600000000000D+00  0.0000000000000D+00  0.0000000000000D+00
308  3.0700000000000D+00  0.0000000000000D+00  0.0000000000000D+00
309  3.0800000000000D+00  0.0000000000000D+00  0.0000000000000D+00
310  3.0900000000000D+00  0.0000000000000D+00  0.0000000000000D+00
311  3.1000000000000D+00  0.0000000000000D+00  0.0000000000000D+00
312  3.1100000000000D+00  0.0000000000000D+00  0.0000000000000D+00
313  3.1200000000000D+00  0.0000000000000D+00  0.0000000000000D+00
314  3.1300000000000D+00  0.0000000000000D+00  0.0000000000000D+00
315  3.1400000000000D+00  0.0000000000000D+00  0.0000000000000D+00
316  3.1500000000000D+00  0.0000000000000D+00  0.0000000000000D+00
317  3.1600000000000D+00  0.0000000000000D+00  0.0000000000000D+00
318  3.1700000000000D+00  0.0000000000000D+00  0.0000000000000D+00
319  3.1800000000000D+00  0.0000000000000D+00  0.0000000000000D+00
320  3.1900000000000D+00  0.0000000000000D+00  0.0000000000000D+00
321  3.2000000000000D+00  0.0000000000000D+00  0.0000000000000D+00
322  3.2100000000000D+00  0.0000000000000D+00  0.0000000000000D+00
323  3.2200000000000D+00  0.0000000000000D+00  0.0000000000000D+00
324  3.2300000000000D+00  0.0000000000000D+00  0.0000000000000D+00
325  3.2400000000000D+00  0.0000000000000D+00  0.0000000000000D+00
326  3.2500000000000D+00  0.0000000000000D+00  0.0000000000000D+00
327  3.2600000000000D+00  0.0000000000000D+00  0.0000000000000D+00
328  3.2700000000000D+00  0.0000000000000D+00  0.0000000000000D+00
329  3.2800000000000D+00  0.0000000000000D+00  0.0000000000000D+00
330  3.2900000000000D+00  0.0000000000000D+00  0.0000000000000D+00
331  3.3000000000000D+00  0.0000000000000D+00  0.0000000000000D+00
332  3.3100000000000D+00  0.0000000000000D+00  0.0000000000000D+00
333  3.3200000000000D+00  0.0000000000000D+00  0.0000000000000D+00
334  3.3300000000000D+00  0.0000000000000D+00  0.0000000000000D+00
335  3.3400000000000D+00  0.0000000000000D+00  0.0000000000000D+00
336  3.3500000000000D+00  0.0000000000000D+00  0.0000000000000D+00
337  3.3600000000000D+00  0.0000000000000D+00  0.0000000000000D+00
338  3.3700000000000D+00  0.0000000000000D+00  0.0000000000000D+00
339  3.3800000000000D+00  0.0000000000000D+00  0.0000000000000D+00
340  3.3900000000000D+00  0.0000000000000D+00  0.0000000000000D+00
341  3.4000000000000D+00  0.0000000000000D+00  0.0000000000000D+00
342  3.4100000000000D+00  0.0000000000000D+00  0.0000000000000D+00
343  3.4200000000000D+00  0.0000000000000D+00  0.0000000000000D+00
344  3.4300000000000D+00  0.0000000000000D+00  0.0000000000000D+00
345  3.4400000000000D+00  0.0000000000000D+00  0.0000000000000D+00
346  3.4500000000000D+00  0.0000000000000D+00  0.0000000000000D+00
347  3.4600000000000D+00  0.0000000000000D+00  0.0000000000000D+00
348  3.4700000000000D+00  0.0000000000000D+00  0.0000000000000D+00
349  3.4800000000000D+00  0.0000000000000D+00  0.0000000000000D+00
350  3.4900000000000D+00  0.0000000000000D+00  0.0000000000000D+00
351  3.5000000000000D+00  0.0000000000000D+00  0.0000000000000D+00
352  3.5100000000000D+00  0.0000000000000D+00  0.0000000000000D+00
353  3.5200000000000D+00  0.0000000000000D+00  0.0000000000000D+00
354  3.5300000000000D+00  0.0000000000000D+00  0.0000000000000D+00
355  3.5400000000000D+00  0.0000000000000D+00  0.0000000000000D+00
356  3.5500000000000D+00  0.0000000000000D+00  0.0000000000000D+00
357  3.5600000000000D+00  0.0000000000000D+00  0.0000000000000D+00
358  3.5700000000000D+00  0.0000000000000D+00  0.0000000000000D+00
359  3.5800000000000D+00  0.0000000000000D+00  0.0000000000000D+00
360  3.5900000000000D+00  0.0000000000000D+00  0.0000000000000D+00
361  3.6000000000000D+00  0.0000000000000D+00  0.0000000000000D+00
362  3.6100000000000D+00  0.0000000000000D+00  0.0000000000000D+00
363  3.6200000000000D+00  0.0000000000000D+00  0.0000000000000D+00
364  3.6300000000000D+00  0.0000000000000D+00  0.0000000000000D+00
365  3.6400000000000D+00  0.0000000000000D+00  0.0000000000000D+00
366  3.6500000000000D+00  0.0000000000000D+00  0.0000000000000D+00
367  3.6600000000000D+00  0.0000000000000D+00  0.0000000000000D+00
368  3.6700000000000D+00  0.0000000000000D+00  0.0000000000000D+00
369  3.6800000000000D+00  0.0000000000000D+00  0.0000000000000D+00
370  3.6900000000000D+00  0.0000000000000D+00  0.0000000000000D+00
371  3.7000000000000D+00  0.0000000000000D+00  0.0000000000000D+00
372  3.7100000000000D+00  0.0000000000000D+00  0.0000000000000D+00
373  3.7200000000000D+00  0.0000000000000D+00  0.0000000000000D+00
374  3.7300000000000D+00  0.0000000000000D+00  0.0000000000000D+00
375  3.7400000000000D+00  0.0000000000000D+00  0.0000000000000D+00
376  3.7500000000000D+00  0.0000000000000D+00  0.0000000000000D+00
377  3.7600000000000D+00  0.0000000000000D+00  0.0000000000000D+00
378  3.7700000000000D+00  0.0000000000000D+00  0.0000000000000D+00
379  3.7800000000000D+00  0.0000000000000D+00  0.0000000000000D+00
380  3.7900000000000D+00  0.0000000000000D+00  0.0000000000000D+00
381  3.8000000000000D+00  0.0000000000000D+00  0.0000000000000D+00
382  3.8100000000000D+00  0.0000000000000D+00  0.0000000000000D+00
383  3.8200000000000D+00  0.0000000000000D+00  0.0000000000000D+00
384  3.8300000000000D+00  0.0000000000000D+00  0.0000000000000D+00
385  3.8400000000000D+00  0.0000000000000D+00  0.0000000000000D+00
386  3.8500000000000D+00  0.0000000000000D+00  0.0000000000000D+00
387  3.8600000000000D+00  0.0000000000000D+00  0.0000000000000D+00
388  3.8700000000000D+00  0.0000000000000D+00  0.0000000000000D+00
389  3.8800000000000D+00  0.0000000000000D+00  0.0000000000000D+00
390  3.8900000000000D+00  0.0000000000000D+00  0.0000000000000D+00
391  3.9000000000000D+00  0.0000000000000D+00  0.0000000000000D+00
392  3.9100000000000D+00  0.0000000000000D+00  0.0000000000000D+00
393  3.9200000000000D+00  0.0000000000000D+00  0.0000000000000D+00
394  3.9300000000000D+00  0.0000000000000D+00  0.0000000000000D+00
395  3.9400000000000D+00  0.0000000000000D+00  0.0000000000000D+00
396  3.9500000000000D+00  0.0000000000000D+00  0.0000000000000D+00
397  3.9600000000000D+00  0.0000000000000D+00  0.0000000000000D+00
398  3.9700000000000D+00  0.0000000000000D+00  0.0000000000000D+00
399  3.9800000000000D+00  0.0000000000000D+00  0.0000000000000D+00
400  3.9900000000000D+00  0.0000000000000D+00  0.0000000000000D+00
401  4.0000000000000D+00  0.0000000000000D+00  0.0000000000000D+00
402  4.0100000000000D+00  0.0000000000000D+00  0.0000000000000D+00
403  4.0200000000000D+00  0.0000000000000D+00  0.0000000000000D+00
404  4.0300000000000D+00  0.0000000000000D+00  0.0000000000000D+00
405  4.0400000000000D+00  0.0000000000000D+00  0.0000000000000D+00
406  4.0500000000000D+00  0.0000000000000D+00  0.0000000000000D+00
407  4.0600000000000D+00  0.0000000000000D+00  0.0000000000000D+00
408  4.0700000000000D+00  0.0000000000000D+00  0.0000000000000D+00
409  4.0800000000000D+00  0.0000000000000D+00  0.0000000000000D+00
410  4.0900000000000D+00  0.0000000000000D+00  0.0000000000000D+00
411  4.1000000000000D+00  0.0000000000000D+00  0.0000000000000D+00
412  4.1100000000000D+00  0.0000000000000D+00  0.0000000000000D+00
413  4.1200000000000D+00  0.0000000000000D+00  0.0000000000000D+00
414  4.1300000000000D+00  0.0000000000000D+00  0.0000000000000D+00
415  4.1400000000000D+00  0.0000000000000D+00  0.0000000000000D+00
416  4.1500000000000D+00  0.0000000000000D+00  0.0000000000000D+00
417  4.1600000000000D+00  0.0000000000000D+00  0.0000000000000D+00
418  4.1700000000000D+00  0.0000000000000D+00  0.0000000000000D+00
419  4.1800000000000D+00  0.0000000000000D+00  0.0000000000000D+00
420  4.1900000000000D+00  0.0000000000000D+00  0.0000000000000D+00
421  4.2000000000000D+00  0.0000000000000D+00  0.0000000000000D+00
422  4.2100000000000D+00  0.0000000000000D+00  0.0000000000000D+00
423  4.2200000000000D+00  0.0000000000000D+00  0.0000000000000D+00
424  4.2300000000000D+00  0.0000000000000D+00  0.0000000000000D+00
425  4.2400000000000D+00  0.0000000000000D+00  0.0000000000000D+00
426  4.2500000000000D+00  0.0000000000000D+00  0.0000000000000D+00
427  4.2600000000000D+00  0.0000000000000D+00  0.0000000000000D+00
428  4.2700000000000D+00  0.0000000000000D+00  0.0000000000000D+00
429  4.2800000000000D+00  0.0000000000000D+00  0.0000000000000D+00
430  4.2900000000000D+00  0.0000000000000D+00  0.0000000000000D+00
431  4.3000000000000D+00  0.0000000000000D+00  0.0000000000000D+00
432  4.3100000000000D+00  0.0000000000000D+00  0.0000000000000D+00
433  4.3200000000000D+00  0.0000000000000D+00  0.0000000000000D+00
434  4.3300000000000D+00  0.0000000000000D+00  0.0000000000000D+00
435  4.3400000000000D+00  0.0000000000000D+00  0.0000000000000D+00
436  4.3500000000000D+00  0.0000000000000D+00  0.0000000000000D+00
437  4.3600000000000D+00  0.0000000000000D+00  0.0000000000000D+00
438  4.3700000000000D+00  0.0000000000000D+00  0.0000000000000D+00
439  4.3800000000000D+00  0.0000000000000D+00  0.0000000000000D+00
440  4.3900000000000D+00  0.0000000000000D+00  0.0000000000000D+00
441  4.4000000000000D+00  0.0000000000000D+00  0.0000000000000D+00
442  4.4100000000000D+00  0.0000000000000D+00  0.0000000000000D+00
443  4.4200000000000D+00  0.0000000000000D+00  0.0000000000000D+00
444  4.4300000000000D+00  0.0000000000000D+00  0.0000000000000D+00