Pd    ONCVPSP  r_core=  1.46  1.52  1.61
46.0000     18.0000      140905    zatom,zion,pspd
8    11     2     4   601     0    pspcod,pspxc,lmax,lloc,mmax,r2well
6.00000000  0.07500000  0.00000000    rchrg fchrg qchrg
2     2     2     0     0    nproj
0                 extension_switch
0                         7.7794290162298D+00 -8.9422566663378D-01
1  0.0000000000000D+00 -0.0000000000000D+00  0.0000000000000D+00
2  1.0000000000000D-02 -6.9096610394349D-02  4.2480647127974D-02
3  2.0000000000000D-02 -1.3805513053438D-01  8.4878583987505D-02
4  3.0000000000000D-02 -2.0673781677368D-01  1.2711016983671D-01
5  4.0000000000000D-02 -2.7500761773993D-01  1.6908991974473D-01
6  5.0000000000000D-02 -3.4272851811994D-01  2.1072962420254D-01
7  6.0000000000000D-02 -4.0976587962785D-01  2.5193751825412D-01
8  7.0000000000000D-02 -4.7598677822967D-01  2.9261751577624D-01
9  8.0000000000000D-02 -5.4126033670134D-01  3.3266852380853D-01
10  9.0000000000000D-02 -6.0545805161679D-01  3.7198385090708D-01
11  1.0000000000000D-01 -6.6845411386478D-01  4.1045072244593D-01
12  1.1000000000000D-01 -7.3012572181686D-01  4.4794991454638D-01
13  1.2000000000000D-01 -7.9035338628749D-01  4.8435551695078D-01
14  1.3000000000000D-01 -8.4902122645996D-01  5.1953483367050D-01
15  1.4000000000000D-01 -9.0601725587825D-01  5.5334842865898D-01
16  1.5000000000000D-01 -9.6123365789183D-01  5.8565032197260D-01
17  1.6000000000000D-01 -1.0145670494909D+00  6.1628834016446D-01
18  1.7000000000000D-01 -1.0659187332029D+00  6.4510462292181D-01
19  1.8000000000000D-01 -1.1151949358576D+00  6.7193628565010D-01
20  1.9000000000000D-01 -1.1623070340334D+00  6.9661623655308D-01
21  2.0000000000000D-01 -1.2071717649827D+00  7.1897414322805D-01
22  2.1000000000000D-01 -1.2497114233337D+00  7.3883754548416D-01
23  2.2000000000000D-01 -1.2898540418322D+00  7.5603310335026D-01
24  2.3000000000000D-01 -1.3275335565531D+00  7.7038797343494D-01
25  2.4000000000000D-01 -1.3626899554671D+00  7.8173129951663D-01
26  2.5000000000000D-01 -1.3952694112864D+00  7.8989581387986D-01
27  2.6000000000000D-01 -1.4252243949845D+00  7.9471951154923D-01
28  2.7000000000000D-01 -1.4525137746205D+00  7.9604741853356D-01
29  2.8000000000000D-01 -1.4771028941569D+00  7.9373339800876D-01
30  2.9000000000000D-01 -1.4989636353386D+00  7.8764200177641D-01
31  3.0000000000000D-01 -1.5180744613055D+00  7.7765033947308D-01
32  3.1000000000000D-01 -1.5344204418119D+00  7.6364994423802D-01
33  3.2000000000000D-01 -1.5479932597984D+00  7.4554860483936D-01
34  3.3000000000000D-01 -1.5587912012283D+00  7.2327219621879D-01
35  3.4000000000000D-01 -1.5668191238248D+00  6.9676637257015D-01
36  3.5000000000000D-01 -1.5720884103872D+00  6.6599824593355D-01
37  3.6000000000000D-01 -1.5746169023849D+00  6.3095789983869D-01
38  3.7000000000000D-01 -1.5744288166567D+00  5.9165983886664D-01
39  3.8000000000000D-01 -1.5715546441243D+00  5.4814420592921D-01
40  3.9000000000000D-01 -1.5660310319960D+00  5.0047789896509D-01
41  4.0000000000000D-01 -1.5579006478333D+00  4.4875550905815D-01
42  4.1000000000000D-01 -1.5472120289746D+00  3.9309999470802D-01
43  4.2000000000000D-01 -1.5340194152061D+00  3.3366319112438D-01
44  4.3000000000000D-01 -1.5183825662982D+00  2.7062607681225D-01
45  4.4000000000000D-01 -1.5003665648515D+00  2.0419879916732D-01
46  4.5000000000000D-01 -1.4800416051016D+00  1.3462044984249D-01
47  4.6000000000000D-01 -1.4574827684192D+00  6.2158582687068D-02
48  4.7000000000000D-01 -1.4327697894518D+00 -1.2891534673344D-02
49  4.8000000000000D-01 -1.4059868017775D+00 -9.0207906827988D-02
50  4.9000000000000D-01 -1.3772220776468D+00 -1.6944310011123D-01
51  5.0000000000000D-01 -1.3465677614885D+00 -2.5022578216403D-01
52  5.1000000000000D-01 -1.3141196036108D+00 -3.3216246956022D-01
53  5.2000000000000D-01 -1.2799766380986D+00 -4.1483962078661D-01
54  5.3000000000000D-01 -1.2442409134309D+00 -4.9782589569880D-01
55  5.4000000000000D-01 -1.2070172098840D+00 -5.8067453177338D-01
56  5.5000000000000D-01 -1.1684126588540D+00 -6.6292637085761D-01
57  5.6000000000000D-01 -1.1285365436492D+00 -7.4411224642137D-01
58  5.7000000000000D-01 -1.0874998466858D+00 -8.2375674444956D-01
59  5.8000000000000D-01 -1.0454150887009D+00 -9.0138054746347D-01
60  5.9000000000000D-01 -1.0023958309814D+00 -9.7650486448366D-01
61  6.0000000000000D-01 -9.5855654899664D-01 -1.0486536001796D+00
62  6.1000000000000D-01 -9.1401212193188D-01 -1.1173581980242D+00
63  6.2000000000000D-01 -8.6887764933958D-01 -1.1821602250502D+00
64  6.3000000000000D-01 -8.2326811862076D-01 -1.2426150205357D+00
65  6.4000000000000D-01 -7.7729797573146D-01 -1.2982962197960D+00
66  6.5000000000000D-01 -7.3108096564833D-01 -1.3487980180885D+00
67  6.6000000000000D-01 -6.8472979845204D-01 -1.3937388035773D+00
68  6.7000000000000D-01 -6.3835571138685D-01 -1.4327657317404D+00
69  6.8000000000000D-01 -5.9206833730023D-01 -1.4655564660697D+00
70  6.9000000000000D-01 -5.4597538767060D-01 -1.4918224494076D+00
71  7.0000000000000D-01 -5.0018236562691D-01 -1.5113117979186D+00
72  7.1000000000000D-01 -4.5479220247981D-01 -1.5238127598645D+00
73  7.2000000000000D-01 -4.0990513265221D-01 -1.5291547858765D+00
74  7.3000000000000D-01 -3.6561840079213D-01 -1.5272109715936D+00
75  7.4000000000000D-01 -3.2202602450647D-01 -1.5178997803248D+00
76  7.5000000000000D-01 -2.7921858912772D-01 -1.5011862647012D+00
77  7.6000000000000D-01 -2.3728300173769D-01 -1.4770834071130D+00
78  7.7000000000000D-01 -1.9630226292354D-01 -1.4456530062673D+00
79  7.8000000000000D-01 -1.5635535353252D-01 -1.4070053549587D+00
80  7.9000000000000D-01 -1.1751703085318D-01 -1.3612994222416D+00
81  8.0000000000000D-01 -7.9857669266592D-02 -1.3087423793117D+00
82  8.1000000000000D-01 -4.3443115234538D-02 -1.2495887308289D+00
83  8.2000000000000D-01 -8.3345568786681D-03 -1.1841390526384D+00
84  8.3000000000000D-01  2.5411591637694D-02 -1.1127383403765D+00
85  8.4000000000000D-01  5.7743790753889D-02 -1.0357739769563D+00
86  8.5000000000000D-01  8.8615461048978D-02 -9.5367333040105D-01
87  8.6000000000000D-01  1.1798505357429D-01 -8.6690099692372D-01
88  8.7000000000000D-01  1.4581610491924D-01 -7.7595570752345D-01
89  8.8000000000000D-01  1.7207727698293D-01 -6.8136691969193D-01
90  8.9000000000000D-01  1.9674238146016D-01 -5.8369111907980D-01
91  9.0000000000000D-01  2.1979038908805D-01 -4.8350785916199D-01
92  9.1000000000000D-01  2.4120542374180D-01 -3.8141557004001D-01
93  9.2000000000000D-01  2.6097674151504D-01 -2.7802717049036D-01
94  9.3000000000000D-01  2.7909869497433D-01 -1.7396552015659D-01
95  9.4000000000000D-01  2.9557067130783D-01 -6.9858907708507D-02
96  9.5000000000000D-01  3.1039701931140D-01  3.3663337868713D-02
97  9.6000000000000D-01  3.2358707504005D-01  1.3597734002962D-01
98  9.7000000000000D-01  3.3515494175203D-01  2.3646790603516D-01
99  9.8000000000000D-01  3.4511942872819D-01  3.3453377508274D-01
100  9.9000000000000D-01  3.5350393224411D-01  4.2959230140855D-01
101  1.0000000000000D+00  3.6033630431022D-01  5.2108399854425D-01
102  1.0100000000000D+00  3.6564870987750D-01  6.0847689260717D-01
103  1.0200000000000D+00  3.6947744538496D-01  6.9126760996497D-01
104  1.0300000000000D+00  3.7186289357619D-01  7.6899449260088D-01
105  1.0400000000000D+00  3.7284920020603D-01  8.4123295669435D-01
106  1.0500000000000D+00  3.7248413947466D-01  9.0760121906984D-01
107  1.0600000000000D+00  3.7081892120826D-01  9.6776320854064D-01
108  1.0700000000000D+00  3.6790803128525D-01  1.0214273914643D+00
109  1.0800000000000D+00  3.6380895857663D-01  1.0683595681262D+00
110  1.0900000000000D+00  3.5858196298110D-01  1.1083774798030D+00
111  1.1000000000000D+00  3.5228988313128D-01  1.1413514825307D+00
112  1.1100000000000D+00  3.4499796846240D-01  1.1672043414904D+00
113  1.1200000000000D+00  3.3677362196416D-01  1.1859149533563D+00
114  1.1300000000000D+00  3.2768590241054D-01  1.1975241919897D+00
115  1.1400000000000D+00  3.1780556894028D-01  1.2021235353979D+00
116  1.1500000000000D+00  3.0720492215533D-01  1.1998552221977D+00
117  1.1600000000000D+00  2.9595734579040D-01  1.1909171038886D+00
118  1.1700000000000D+00  2.8413676441231D-01  1.1755621208423D+00
119  1.1800000000000D+00  2.7181789815943D-01  1.1540871746415D+00
120  1.1900000000000D+00  2.5907635502516D-01  1.1268309162008D+00
121  1.2000000000000D+00  2.4598701369880D-01  1.0941835840285D+00
122  1.2100000000000D+00  2.3262480277987D-01  1.0565699525408D+00
123  1.2200000000000D+00  2.1906481941567D-01  1.0144476680982D+00
124  1.2300000000000D+00  2.0538114842876D-01  9.6830897472682D-01
125  1.2400000000000D+00  1.9164651570754D-01  9.1867128890149D-01
126  1.2500000000000D+00  1.7793336622526D-01  8.6607270917793D-01
127  1.2600000000000D+00  1.6431273183040D-01  8.1107093372029D-01
128  1.2700000000000D+00  1.5085305441429D-01  7.5423128928599D-01
129  1.2800000000000D+00  1.3762221019554D-01  6.9612894325324D-01
130  1.2900000000000D+00  1.2468590802678D-01  6.3734260737970D-01
131  1.3000000000000D+00  1.1210647579585D-01  5.7843833675698D-01
132  1.3100000000000D+00  9.9945581126969D-02  5.1998454544865D-01
133  1.3200000000000D+00  8.8261385320984D-02  4.6253089717515D-01
134  1.3300000000000D+00  7.7108607627797D-02  4.0659947138157D-01
135  1.3400000000000D+00  6.6541353476122D-02  3.5271137722986D-01
136  1.3500000000000D+00  5.6608146821811D-02  3.0133526916825D-01
137  1.3600000000000D+00  4.7355286602371D-02  2.5291526035798D-01
138  1.3700000000000D+00  3.8827362900783D-02  2.0787991469227D-01
139  1.3800000000000D+00  3.1062323271238D-02  1.6657933140132D-01
140  1.3900000000000D+00  2.4097669015020D-02  1.2935816810245D-01
141  1.4000000000000D+00  1.7965707033929D-02  9.6496969183806D-02
142  1.4100000000000D+00  1.2694603115821D-02  6.8221757064261D-02
143  1.4200000000000D+00  8.3116270027657D-03  4.4747792132378D-02
144  1.4300000000000D+00  4.8360805008459D-03  2.6184246914283D-02
145  1.4400000000000D+00  2.2872799719329D-03  1.2640862495312D-02
146  1.4500000000000D+00  7.4489283906004D-04  4.5106472743518D-03
147  1.4600000000000D+00  6.3374140501112D-05  9.2638447801143D-04
148  1.4700000000000D+00 -9.4156442347268D-05 -1.7876623679127D-04
149  1.4800000000000D+00 -2.0692694181947D-08 -6.0410764476727D-06
150  1.4900000000000D+00 -1.1957808098348D-07 -3.4909921459982D-05
151  1.5000000000000D+00  0.0000000000000D+00  0.0000000000000D+00
152  1.5100000000000D+00  0.0000000000000D+00  0.0000000000000D+00
153  1.5200000000000D+00  0.0000000000000D+00  0.0000000000000D+00
154  1.5300000000000D+00  0.0000000000000D+00  0.0000000000000D+00
155  1.5400000000000D+00  0.0000000000000D+00  0.0000000000000D+00
156  1.5500000000000D+00  0.0000000000000D+00  0.0000000000000D+00
157  1.5600000000000D+00  0.0000000000000D+00  0.0000000000000D+00
158  1.5700000000000D+00  0.0000000000000D+00  0.0000000000000D+00
159  1.5800000000000D+00  0.0000000000000D+00  0.0000000000000D+00
160  1.5900000000000D+00  0.0000000000000D+00  0.0000000000000D+00
161  1.6000000000000D+00  0.0000000000000D+00  0.0000000000000D+00
162  1.6100000000000D+00  0.0000000000000D+00  0.0000000000000D+00
163  1.6200000000000D+00  0.0000000000000D+00  0.0000000000000D+00
164  1.6300000000000D+00  0.0000000000000D+00  0.0000000000000D+00
165  1.6400000000000D+00  0.0000000000000D+00  0.0000000000000D+00
166  1.6500000000000D+00  0.0000000000000D+00  0.0000000000000D+00
167  1.6600000000000D+00  0.0000000000000D+00  0.0000000000000D+00
168  1.6700000000000D+00  0.0000000000000D+00  0.0000000000000D+00
169  1.6800000000000D+00  0.0000000000000D+00  0.0000000000000D+00
170  1.6900000000000D+00  0.0000000000000D+00  0.0000000000000D+00
171  1.7000000000000D+00  0.0000000000000D+00  0.0000000000000D+00
172  1.7100000000000D+00  0.0000000000000D+00  0.0000000000000D+00
173  1.7200000000000D+00  0.0000000000000D+00  0.0000000000000D+00
174  1.7300000000000D+00  0.0000000000000D+00  0.0000000000000D+00
175  1.7400000000000D+00  0.0000000000000D+00  0.0000000000000D+00
176  1.7500000000000D+00  0.0000000000000D+00  0.0000000000000D+00
177  1.7600000000000D+00  0.0000000000000D+00  0.0000000000000D+00
178  1.7700000000000D+00  0.0000000000000D+00  0.0000000000000D+00
179  1.7800000000000D+00  0.0000000000000D+00  0.0000000000000D+00
180  1.7900000000000D+00  0.0000000000000D+00  0.0000000000000D+00
181  1.8000000000000D+00  0.0000000000000D+00  0.0000000000000D+00
182  1.8100000000000D+00  0.0000000000000D+00  0.0000000000000D+00
183  1.8200000000000D+00  0.0000000000000D+00  0.0000000000000D+00
184  1.8300000000000D+00  0.0000000000000D+00  0.0000000000000D+00
185  1.8400000000000D+00  0.0000000000000D+00  0.0000000000000D+00
186  1.8500000000000D+00  0.0000000000000D+00  0.0000000000000D+00
187  1.8600000000000D+00  0.0000000000000D+00  0.0000000000000D+00
188  1.8700000000000D+00  0.0000000000000D+00  0.0000000000000D+00
189  1.8800000000000D+00  0.0000000000000D+00  0.0000000000000D+00
190  1.8900000000000D+00  0.0000000000000D+00  0.0000000000000D+00
191  1.9000000000000D+00  0.0000000000000D+00  0.0000000000000D+00
192  1.9100000000000D+00  0.0000000000000D+00  0.0000000000000D+00
193  1.9200000000000D+00  0.0000000000000D+00  0.0000000000000D+00
194  1.9300000000000D+00  0.0000000000000D+00  0.0000000000000D+00
195  1.9400000000000D+00  0.0000000000000D+00  0.0000000000000D+00
196  1.9500000000000D+00  0.0000000000000D+00  0.0000000000000D+00
197  1.9600000000000D+00  0.0000000000000D+00  0.0000000000000D+00
198  1.9700000000000D+00  0.0000000000000D+00  0.0000000000000D+00
199  1.9800000000000D+00  0.0000000000000D+00  0.0000000000000D+00
200  1.9900000000000D+00  0.0000000000000D+00  0.0000000000000D+00
201  2.0000000000000D+00  0.0000000000000D+00  0.0000000000000D+00
202  2.0100000000000D+00  0.0000000000000D+00  0.0000000000000D+00
203  2.0200000000000D+00  0.0000000000000D+00  0.0000000000000D+00
204  2.0300000000000D+00  0.0000000000000D+00  0.0000000000000D+00
205  2.0400000000000D+00  0.0000000000000D+00  0.0000000000000D+00
206  2.0500000000000D+00  0.0000000000000D+00  0.0000000000000D+00
207  2.0600000000000D+00  0.0000000000000D+00  0.0000000000000D+00
208  2.0700000000000D+00  0.0000000000000D+00  0.0000000000000D+00
209  2.0800000000000D+00  0.0000000000000D+00  0.0000000000000D+00
210  2.0900000000000D+00  0.0000000000000D+00  0.0000000000000D+00
211  2.1000000000000D+00  0.0000000000000D+00  0.0000000000000D+00
212  2.1100000000000D+00  0.0000000000000D+00  0.0000000000000D+00
213  2.1200000000000D+00  0.0000000000000D+00  0.0000000000000D+00
214  2.1300000000000D+00  0.0000000000000D+00  0.0000000000000D+00
215  2.1400000000000D+00  0.0000000000000D+00  0.0000000000000D+00
216  2.1500000000000D+00  0.0000000000000D+00  0.0000000000000D+00
217  2.1600000000000D+00  0.0000000000000D+00  0.0000000000000D+00
218  2.1700000000000D+00  0.0000000000000D+00  0.0000000000000D+00
219  2.1800000000000D+00  0.0000000000000D+00  0.0000000000000D+00
220  2.1900000000000D+00  0.0000000000000D+00  0.0000000000000D+00
221  2.2000000000000D+00  0.0000000000000D+00  0.0000000000000D+00
222  2.2100000000000D+00  0.0000000000000D+00  0.0000000000000D+00
223  2.2200000000000D+00  0.0000000000000D+00  0.0000000000000D+00
224  2.2300000000000D+00  0.0000000000000D+00  0.0000000000000D+00
225  2.2400000000000D+00  0.0000000000000D+00  0.0000000000000D+00
226  2.2500000000000D+00  0.0000000000000D+00  0.0000000000000D+00
227  2.2600000000000D+00  0.0000000000000D+00  0.0000000000000D+00
228  2.2700000000000D+00  0.0000000000000D+00  0.0000000000000D+00
229  2.2800000000000D+00  0.0000000000000D+00  0.0000000000000D+00
230  2.2900000000000D+00  0.0000000000000D+00  0.0000000000000D+00
231  2.3000000000000D+00  0.0000000000000D+00  0.0000000000000D+00
232  2.3100000000000D+00  0.0000000000000D+00  0.0000000000000D+00
233  2.3200000000000D+00  0.0000000000000D+00  0.0000000000000D+00
234  2.3300000000000D+00  0.0000000000000D+00  0.0000000000000D+00
235  2.3400000000000D+00  0.0000000000000D+00  0.0000000000000D+00
236  2.3500000000000D+00  0.0000000000000D+00  0.0000000000000D+00
237  2.3600000000000D+00  0.0000000000000D+00  0.0000000000000D+00
238  2.3700000000000D+00  0.0000000000000D+00  0.0000000000000D+00
239  2.3800000000000D+00  0.0000000000000D+00  0.0000000000000D+00
240  2.3900000000000D+00  0.0000000000000D+00  0.0000000000000D+00
241  2.4000000000000D+00  0.0000000000000D+00  0.0000000000000D+00
242  2.4100000000000D+00  0.0000000000000D+00  0.0000000000000D+00
243  2.4200000000000D+00  0.0000000000000D+00  0.0000000000000D+00
244  2.4300000000000D+00  0.0000000000000D+00  0.0000000000000D+00
245  2.4400000000000D+00  0.0000000000000D+00  0.0000000000000D+00
246  2.4500000000000D+00  0.0000000000000D+00  0.0000000000000D+00
247  2.4600000000000D+00  0.0000000000000D+00  0.0000000000000D+00
248  2.4700000000000D+00  0.0000000000000D+00  0.0000000000000D+00
249  2.4800000000000D+00  0.0000000000000D+00  0.0000000000000D+00
250  2.4900000000000D+00  0.0000000000000D+00  0.0000000000000D+00
251  2.5000000000000D+00  0.0000000000000D+00  0.0000000000000D+00
252  2.5100000000000D+00  0.0000000000000D+00  0.0000000000000D+00
253  2.5200000000000D+00  0.0000000000000D+00  0.0000000000000D+00
254  2.5300000000000D+00  0.0000000000000D+00  0.0000000000000D+00
255  2.5400000000000D+00  0.0000000000000D+00  0.0000000000000D+00
256  2.5500000000000D+00  0.0000000000000D+00  0.0000000000000D+00
257  2.5600000000000D+00  0.0000000000000D+00  0.0000000000000D+00
258  2.5700000000000D+00  0.0000000000000D+00  0.0000000000000D+00
259  2.5800000000000D+00  0.0000000000000D+00  0.0000000000000D+00
260  2.5900000000000D+00  0.0000000000000D+00  0.0000000000000D+00
261  2.6000000000000D+00  0.0000000000000D+00  0.0000000000000D+00
262  2.6100000000000D+00  0.0000000000000D+00  0.0000000000000D+00
263  2.6200000000000D+00  0.0000000000000D+00  0.0000000000000D+00
264  2.6300000000000D+00  0.0000000000000D+00  0.0000000000000D+00
265  2.6400000000000D+00  0.0000000000000D+00  0.0000000000000D+00
266  2.6500000000000D+00  0.0000000000000D+00  0.0000000000000D+00
267  2.6600000000000D+00  0.0000000000000D+00  0.0000000000000D+00
268  2.6700000000000D+00  0.0000000000000D+00  0.0000000000000D+00
269  2.6800000000000D+00  0.0000000000000D+00  0.0000000000000D+00
270  2.6900000000000D+00  0.0000000000000D+00  0.0000000000000D+00
271  2.7000000000000D+00  0.0000000000000D+00  0.0000000000000D+00
272  2.7100000000000D+00  0.0000000000000D+00  0.0000000000000D+00
273  2.7200000000000D+00  0.0000000000000D+00  0.0000000000000D+00
274  2.7300000000000D+00  0.0000000000000D+00  0.0000000000000D+00
275  2.7400000000000D+00  0.0000000000000D+00  0.0000000000000D+00
276  2.7500000000000D+00  0.0000000000000D+00  0.0000000000000D+00
277  2.7600000000000D+00  0.0000000000000D+00  0.0000000000000D+00
278  2.7700000000000D+00  0.0000000000000D+00  0.0000000000000D+00
279  2.7800000000000D+00  0.0000000000000D+00  0.0000000000000D+00
280  2.7900000000000D+00  0.0000000000000D+00  0.0000000000000D+00
281  2.8000000000000D+00  0.0000000000000D+00  0.0000000000000D+00
282  2.8100000000000D+00  0.0000000000000D+00  0.0000000000000D+00
283  2.8200000000000D+00  0.0000000000000D+00  0.0000000000000D+00
284  2.8300000000000D+00  0.0000000000000D+00  0.0000000000000D+00
285  2.8400000000000D+00  0.0000000000000D+00  0.0000000000000D+00
286  2.8500000000000D+00  0.0000000000000D+00  0.0000000000000D+00
287  2.8600000000000D+00  0.0000000000000D+00  0.0000000000000D+00
288  2.8700000000000D+00  0.0000000000000D+00  0.0000000000000D+00
289  2.8800000000000D+00  0.0000000000000D+00  0.0000000000000D+00
290  2.8900000000000D+00  0.0000000000000D+00  0.0000000000000D+00
291  2.9000000000000D+00  0.0000000000000D+00  0.0000000000000D+00
292  2.9100000000000D+00  0.0000000000000D+00  0.0000000000000D+00
293  2.9200000000000D+00  0.0000000000000D+00  0.0000000000000D+00
294  2.9300000000000D+00  0.0000000000000D+00  0.0000000000000D+00
295  2.9400000000000D+00  0.0000000000000D+00  0.0000000000000D+00
296  2.9500000000000D+00  0.0000000000000D+00  0.0000000000000D+00
297  2.9600000000000D+00  0.0000000000000D+00  0.0000000000000D+00
298  2.9700000000000D+00  0.0000000000000D+00  0.0000000000000D+00
299  2.9800000000000D+00  0.0000000000000D+00  0.0000000000000D+00
300  2.9900000000000D+00  0.0000000000000D+00  0.0000000000000D+00
301  3.0000000000000D+00  0.0000000000000D+00  0.0000000000000D+00
302  3.0100000000000D+00  0.0000000000000D+00  0.0000000000000D+00
303  3.0200000000000D+00  0.0000000000000D+00  0.0000000000000D+00
304  3.0300000000000D+00  0.0000000000000D+00  0.0000000000000D+00
305  3.0400000000000D+00  0.0000000000000D+00  0.0000000000000D+00
306  3.0500000000000D+00  0.0000000000000D+00  0.0000000000000D+00
307  3.0600000000000D+00  0.0000000000000D+00  0.0000000000000D+00
308  3.0700000000000D+00  0.0000000000000D+00  0.0000000000000D+00
309  3.0800000000000D+00  0.0000000000000D+00  0.0000000000000D+00
310  3.0900000000000D+00  0.0000000000000D+00  0.0000000000000D+00
311  3.1000000000000D+00  0.0000000000000D+00  0.0000000000000D+00
312  3.1100000000000D+00  0.0000000000000D+00  0.0000000000000D+00
313  3.1200000000000D+00  0.0000000000000D+00  0.0000000000000D+00
314  3.1300000000000D+00  0.0000000000000D+00  0.0000000000000D+00
315  3.1400000000000D+00  0.0000000000000D+00  0.0000000000000D+00
316  3.1500000000000D+00  0.0000000000000D+00  0.0000000000000D+00
317  3.1600000000000D+00  0.0000000000000D+00  0.0000000000000D+00
318  3.1700000000000D+00  0.0000000000000D+00  0.0000000000000D+00
319  3.1800000000000D+00  0.0000000000000D+00  0.0000000000000D+00
320  3.1900000000000D+00  0.0000000000000D+00  0.0000000000000D+00
321  3.2000000000000D+00  0.0000000000000D+00  0.0000000000000D+00
322  3.2100000000000D+00  0.0000000000000D+00  0.0000000000000D+00
323  3.2200000000000D+00  0.0000000000000D+00  0.0000000000000D+00
324  3.2300000000000D+00  0.0000000000000D+00  0.0000000000000D+00
325  3.2400000000000D+00  0.0000000000000D+00  0.0000000000000D+00
326  3.2500000000000D+00  0.0000000000000D+00  0.0000000000000D+00
327  3.2600000000000D+00  0.0000000000000D+00  0.0000000000000D+00
328  3.2700000000000D+00  0.0000000000000D+00  0.0000000000000D+00
329  3.2800000000000D+00  0.0000000000000D+00  0.0000000000000D+00
330  3.2900000000000D+00  0.0000000000000D+00  0.0000000000000D+00
331  3.3000000000000D+00  0.0000000000000D+00  0.0000000000000D+00
332  3.3100000000000D+00  0.0000000000000D+00  0.0000000000000D+00
333  3.3200000000000D+00  0.0000000000000D+00  0.0000000000000D+00
334  3.3300000000000D+00  0.0000000000000D+00  0.0000000000000D+00
335  3.3400000000000D+00  0.0000000000000D+00  0.0000000000000D+00
336  3.3500000000000D+00  0.0000000000000D+00  0.0000000000000D+00
337  3.3600000000000D+00  0.0000000000000D+00  0.0000000000000D+00
338  3.3700000000000D+00  0.0000000000000D+00  0.0000000000000D+00
339  3.3800000000000D+00  0.0000000000000D+00  0.0000000000000D+00
340  3.3900000000000D+00  0.0000000000000D+00  0.0000000000000D+00
341  3.4000000000000D+00  0.0000000000000D+00  0.0000000000000D+00
342  3.4100000000000D+00  0.0000000000000D+00  0.0000000000000D+00
343  3.4200000000000D+00  0.0000000000000D+00  0.0000000000000D+00
344  3.4300000000000D+00  0.0000000000000D+00  0.0000000000000D+00
345  3.4400000000000D+00  0.0000000000000D+00  0.0000000000000D+00
346  3.4500000000000D+00  0.0000000000000D+00  0.0000000000000D+00
347  3.4600000000000D+00  0.0000000000000D+00  0.0000000000000D+00
348  3.4700000000000D+00  0.0000000000000D+00  0.0000000000000D+00
349  3.4800000000000D+00  0.0000000000000D+00  0.0000000000000D+00
350  3.4900000000000D+00  0.0000000000000D+00  0.0000000000000D+00
351  3.5000000000000D+00  0.0000000000000D+00  0.0000000000000D+00
352  3.5100000000000D+00  0.0000000000000D+00  0.0000000000000D+00
353  3.5200000000000D+00  0.0000000000000D+00  0.0000000000000D+00
354  3.5300000000000D+00  0.0000000000000D+00  0.0000000000000D+00
355  3.5400000000000D+00  0.0000000000000D+00  0.0000000000000D+00
356  3.5500000000000D+00  0.0000000000000D+00  0.0000000000000D+00
357  3.5600000000000D+00  0.0000000000000D+00  0.0000000000000D+00
358  3.5700000000000D+00  0.0000000000000D+00  0.0000000000000D+00
359  3.5800000000000D+00  0.0000000000000D+00  0.0000000000000D+00
360  3.5900000000000D+00  0.0000000000000D+00  0.0000000000000D+00
361  3.6000000000000D+00  0.0000000000000D+00  0.0000000000000D+00
362  3.6100000000000D+00  0.0000000000000D+00  0.0000000000000D+00
363  3.6200000000000D+00  0.0000000000000D+00  0.0000000000000D+00
364  3.6300000000000D+00  0.0000000000000D+00  0.0000000000000D+00
365  3.6400000000000D+00  0.0000000000000D+00  0.0000000000000D+00
366  3.6500000000000D+00  0.0000000000000D+00  0.0000000000000D+00
367  3.6600000000000D+00  0.0000000000000D+00  0.0000000000000D+00
368  3.6700000000000D+00  0.0000000000000D+00  0.0000000000000D+00
369  3.6800000000000D+00  0.0000000000000D+00  0.0000000000000D+00
370  3.6900000000000D+00  0.0000000000000D+00  0.0000000000000D+00
371  3.7000000000000D+00  0.0000000000000D+00  0.0000000000000D+00
372  3.7100000000000D+00  0.0000000000000D+00  0.0000000000000D+00
373  3.7200000000000D+00  0.0000000000000D+00  0.0000000000000D+00
374  3.7300000000000D+00  0.0000000000000D+00  0.0000000000000D+00
375  3.7400000000000D+00  0.0000000000000D+00  0.0000000000000D+00
376  3.7500000000000D+00  0.0000000000000D+00  0.0000000000000D+00
377  3.7600000000000D+00  0.0000000000000D+00  0.0000000000000D+00
378  3.7700000000000D+00  0.0000000000000D+00  0.0000000000000D+00
379  3.7800000000000D+00  0.0000000000000D+00  0.0000000000000D+00
380  3.7900000000000D+00  0.0000000000000D+00  0.0000000000000D+00
381  3.8000000000000D+00  0.0000000000000D+00  0.0000000000000D+00
382  3.8100000000000D+00  0.0000000000000D+00  0.0000000000000D+00
383  3.8200000000000D+00  0.0000000000000D+00  0.0000000000000D+00
384  3.8300000000000D+00  0.0000000000000D+00  0.0000000000000D+00
385  3.8400000000000D+00  0.0000000000000D+00  0.0000000000000D+00
386  3.8500000000000D+00  0.0000000000000D+00  0.0000000000000D+00
387  3.8600000000000D+00  0.0000000000000D+00  0.0000000000000D+00
388  3.8700000000000D+00  0.0000000000000D+00  0.0000000000000D+00
389  3.8800000000000D+00  0.0000000000000D+00  0.0000000000000D+00
390  3.8900000000000D+00  0.0000000000000D+00  0.0000000000000D+00
391  3.9000000000000D+00  0.0000000000000D+00  0.0000000000000D+00
392  3.9100000000000D+00  0.0000000000000D+00  0.0000000000000D+00
393  3.9200000000000D+00  0.0000000000000D+00  0.0000000000000D+00
394  3.9300000000000D+00  0.0000000000000D+00  0.0000000000000D+00
395  3.9400000000000D+00  0.0000000000000D+00  0.0000000000000D+00
396  3.9500000000000D+00  0.0000000000000D+00  0.0000000000000D+00
397  3.9600000000000D+00  0.0000000000000D+00  0.0000000000000D+00
398  3.9700000000000D+00  0.0000000000000D+00  0.0000000000000D+00
399  3.9800000000000D+00  0.0000000000000D+00  0.0000000000000D+00
400  3.9900000000000D+00  0.0000000000000D+00  0.0000000000000D+00
401  4.0000000000000D+00  0.0000000000000D+00  0.0000000000000D+00
402  4.0100000000000D+00  0.0000000000000D+00  0.0000000000000D+00
403  4.0200000000000D+00  0.0000000000000D+00  0.0000000000000D+00
404  4.0300000000000D+00  0.0000000000000D+00  0.0000000000000D+00
405  4.0400000000000D+00  0.0000000000000D+00  0.0000000000000D+00
406  4.0500000000000D+00  0.0000000000000D+00  0.0000000000000D+00
407  4.0600000000000D+00  0.0000000000000D+00  0.0000000000000D+00
408  4.0700000000000D+00  0.0000000000000D+00  0.0000000000000D+00
409  4.0800000000000D+00  0.0000000000000D+00  0.0000000000000D+00
410  4.0900000000000D+00  0.0000000000000D+00  0.0000000000000D+00
411  4.1000000000000D+00  0.0000000000000D+00  0.0000000000000D+00
412  4.1100000000000D+00  0.0000000000000D+00  0.0000000000000D+00
413  4.1200000000000D+00  0.0000000000000D+00  0.0000000000000D+00
414  4.1300000000000D+00  0.0000000000000D+00  0.0000000000000D+00
415  4.1400000000000D+00  0.0000000000000D+00  0.0000000000000D+00
416  4.1500000000000D+00  0.0000000000000D+00  0.0000000000000D+00
417  4.1600000000000D+00  0.0000000000000D+00  0.0000000000000D+00
418  4.1700000000000D+00  0.0000000000000D+00  0.0000000000000D+00
419  4.1800000000000D+00  0.0000000000000D+00  0.0000000000000D+00
420  4.1900000000000D+00  0.0000000000000D+00  0.0000000000000D+00
421  4.2000000000000D+00  0.0000000000000D+00  0.0000000000000D+00
422  4.2100000000000D+00  0.0000000000000D+00  0.0000000000000D+00
423  4.2200000000000D+00  0.0000000000000D+00  0.0000000000000D+00
424  4.2300000000000D+00  0.0000000000000D+00  0.0000000000000D+00
425  4.2400000000000D+00  0.0000000000000D+00  0.0000000000000D+00
426  4.2500000000000D+00  0.0000000000000D+00  0.0000000000000D+00
427  4.2600000000000D+00  0.0000000000000D+00  0.0000000000000D+00
428  4.2700000000000D+00  0.0000000000000D+00  0.0000000000000D+00
429  4.2800000000000D+00  0.0000000000000D+00  0.0000000000000D+00
430  4.2900000000000D+00  0.0000000000000D+00  0.0000000000000D+00
431  4.3000000000000D+00  0.0000000000000D+00  0.0000000000000D+00
432  4.3100000000000D+00  0.0000000000000D+00  0.0000000000000D+00
433  4.3200000000000D+00  0.0000000000000D+00  0.0000000000000D+00
434  4.3300000000000D+00  0.0000000000000D+00  0.0000000000000D+00
435  4.3400000000000D+00  0.0000000000000D+00  0.0000000000000D+00
436  4.3500000000000D+00  0.0000000000000D+00  0.0000000000000D+00
437  4.3600000000000D+00  0.0000000000000D+00  0.0000000000000D+00
438  4.3700000000000D+00  0.0000000000000D+00  0.0000000000000D+00
439  4.3800000000000D+00  0.0000000000000D+00  0.0000000000000D+00
440  4.3900000000000D+00  0.0000000000000D+00  0.0000000000000D+00
441  4.4000000000000D+00  0.0000000000000D+00  0.0000000000000D+00
442  4.4100000000000D+00  0.0000000000000D+00  0.0000000000000D+00
443  4.4200000000000D+00  0.0000000000000D+00  0.0000000000000D+00
444  4.4300000000000D+00  0.0000000000000D+00  0.0000000000000D+00