Br    ONCVPSP  r_core=  1.81  1.51  1.92
35.0000      7.0000      160901    zatom,zion,pspd
8      11   2     4   600     0    pspcod,pspxc,lmax,lloc,mmax,r2well
5.99000000  0.00000000  0.00000000    rchrg fchrg qchrg
2     2     2     0     0    nproj
1                 extension_switch
0                         8.0497111326533D+00  7.8524578686448D-01
1  0.0000000000000D+00  9.2141239083077D-11 -4.9355887432601D-10
2  1.0000000000000D-02  3.5544168266025D-02 -8.3239069533384D-03
3  2.0000000000000D-02  7.1080492907693D-02 -1.6692257232408D-02
4  3.0000000000000D-02  1.0660095174357D-01 -2.5148700376099D-02
5  4.0000000000000D-02  1.4209716750025D-01 -3.3735308297532D-02
6  5.0000000000000D-02  1.7756023529807D-01 -4.2491811213445D-02
7  6.0000000000000D-02  2.1298055610855D-01 -5.1454862908988D-02
8  7.0000000000000D-02  2.4834767806463D-01 -6.0657344529133D-02
9  8.0000000000000D-02  2.8365014741256D-01 -7.0127715594377D-02
10  9.0000000000000D-02  3.1887537078129D-01 -7.9889420333560D-02
11  1.0000000000000D-01  3.5400949031314D-01 -8.9960356718428D-02
12  1.1000000000000D-01  3.8903727304886D-01 -1.0035241478212D-01
13  1.2000000000000D-01  4.2394201579483D-01 -1.1107108991752D-01
14  1.3000000000000D-01  4.5870546652011D-01 -1.2211517589284D-01
15  1.4000000000000D-01  4.9330776313985D-01 -1.3347654130368D-01
16  1.5000000000000D-01  5.2772739034140D-01 -1.4513999211564D-01
17  1.6000000000000D-01  5.6194115490267D-01 -1.5708322185434D-01
18  1.7000000000000D-01  5.9592417974126D-01 -1.6927684988338D-01
19  1.8000000000000D-01  6.2964991672096D-01 -1.8168454709140D-01
20  1.9000000000000D-01  6.6309017803130D-01 -1.9426324719995D-01
21  2.0000000000000D-01  6.9621518574920D-01 -2.0696344082050D-01
22  2.1000000000000D-01  7.2899363899114D-01 -2.1972954834438D-01
23  2.2000000000000D-01  7.6139279787344D-01 -2.3250036675828D-01
24  2.3000000000000D-01  7.9337858331820D-01 -2.4520958455304D-01
25  2.4000000000000D-01  8.2491569157624D-01 -2.5778635804615D-01
26  2.5000000000000D-01  8.5596772218802D-01 -2.7015594168155D-01
27  2.6000000000000D-01  8.8649731797025D-01 -2.8224036421165D-01
28  2.7000000000000D-01  9.1646631550209D-01 -2.9395914211675D-01
29  2.8000000000000D-01  9.4583590449122D-01 -3.0523002118220D-01
30  2.9000000000000D-01  9.7456679432814D-01 -3.1596973684006D-01
31  3.0000000000000D-01  1.0026193860870D+00 -3.2609478369358D-01
32  3.1000000000000D-01  1.0299539482045D+00 -3.3552218458241D-01
33  3.2000000000000D-01  1.0565307940648D+00 -3.4417024961447D-01
34  3.3000000000000D-01  1.0823104597354D+00 -3.5195931578634D-01
35  3.4000000000000D-01  1.1072538801435D+00 -3.5881245813552D-01
36  3.5000000000000D-01  1.1313225620410D+00 -3.6465616380953D-01
37  3.6000000000000D-01  1.1544787521939D+00 -3.6942096099523D-01
38  3.7000000000000D-01  1.1766855993327D+00 -3.7304199531589D-01
39  3.8000000000000D-01  1.1979073085208D+00 -3.7545954706863D-01
40  3.9000000000000D-01  1.2181092867375D+00 -3.7661948352708D-01
41  4.0000000000000D-01  1.2372582786196D+00 -3.7647364146473D-01
42  4.1000000000000D-01  1.2553224914723D+00 -3.7498013604912D-01
43  4.2000000000000D-01  1.2722717088282D+00 -3.7210359330314D-01
44  4.3000000000000D-01  1.2880773920169D+00 -3.6781530441363D-01
45  4.4000000000000D-01  1.3027127693881D+00 -3.6209330127250D-01
46  4.5000000000000D-01  1.3161529130184D+00 -3.5492235374922D-01
47  4.6000000000000D-01  1.3283748029161D+00 -3.4629389029842D-01
48  4.7000000000000D-01  1.3393573789190D+00 -3.3620584458795D-01
49  4.8000000000000D-01  1.3490815806558D+00 -3.2466243187636D-01
50  4.9000000000000D-01  1.3575303761069D+00 -3.1167385985968D-01
51  5.0000000000000D-01  1.3646887794559D+00 -2.9725597963038D-01
52  5.1000000000000D-01  1.3705438590643D+00 -2.8142988323610D-01
53  5.2000000000000D-01  1.3750847365269D+00 -2.6422145507705D-01
54  5.3000000000000D-01  1.3783025778760D+00 -2.4566088502943D-01
55  5.4000000000000D-01  1.3801905780883D+00 -2.2578215171883D-01
56  5.5000000000000D-01  1.3807439401216D+00 -2.0462248478225D-01
57  5.6000000000000D-01  1.3799598497517D+00 -1.8222181524536D-01
58  5.7000000000000D-01  1.3778374475070D+00 -1.5862222329719D-01
59  5.8000000000000D-01  1.3743777990004D+00 -1.3386739276435D-01
60  5.9000000000000D-01  1.3695838649361D+00 -1.0800208147040D-01
61  6.0000000000000D-01  1.3634604720271D+00 -8.1071616413655D-02
62  6.1000000000000D-01  1.3560142859912D+00 -5.3121422308990D-02
63  6.2000000000000D-01  1.3472537877081D+00 -2.4196591526129D-02
64  6.3000000000000D-01  1.3371892535107D+00  5.6584971856276D-03
65  6.4000000000000D-01  1.3258327404596D+00  3.6400504547603D-02
66  6.5000000000000D-01  1.3131980773044D+00  6.7987395399784D-02
67  6.6000000000000D-01  1.2993008616779D+00  1.0037863732604D-01
68  6.7000000000000D-01  1.2841584638985D+00  1.3353532947101D-01
69  6.8000000000000D-01  1.2677900375749D+00  1.6742025887024D-01
70  6.9000000000000D-01  1.2502165370166D+00  2.0199788277612D-01
71  7.0000000000000D-01  1.2314607412626D+00  2.3723423665954D-01
72  7.1000000000000D-01  1.2115472843427D+00  2.7309676878494D-01
73  7.2000000000000D-01  1.1905026911938D+00  3.0955410348257D-01
74  7.3000000000000D-01  1.1683554184610D+00  3.4657573645366D-01
75  7.4000000000000D-01  1.1451358992326D+00  3.8413166662412D-01
76  7.5000000000000D-01  1.1208765905832D+00  4.2219197019849D-01
77  7.6000000000000D-01  1.0956120226422D+00  4.6072632363792D-01
78  7.7000000000000D-01  1.0693788477572D+00  4.9970348327378D-01
79  7.8000000000000D-01  1.0422158882011D+00  5.3909073017193D-01
80  7.9000000000000D-01  1.0141641807625D+00  5.7885328964545D-01
81  8.0000000000000D-01  9.8526701648004D-01  6.1895373548340D-01
82  8.1000000000000D-01  9.5556997372337D-01  6.5935138949606D-01
83  8.2000000000000D-01  9.2512094279186D-01  7.0000172736934D-01
84  8.3000000000000D-01  8.9397014019967D-01  7.4085580206155D-01
85  8.4000000000000D-01  8.6217011083978D-01  7.8185969606133D-01
86  8.5000000000000D-01  8.2977571627346D-01  8.2295401374971D-01
87  8.6000000000000D-01  7.9684410747357D-01  8.6407342487196D-01
88  8.7000000000000D-01  7.6343468046102D-01  9.0514626972554D-01
89  8.8000000000000D-01  7.2960901341189D-01  9.4609423611231D-01
90  8.9000000000000D-01  6.9543078397786D-01  9.8683211738925D-01
91  9.0000000000000D-01  6.6096566575266D-01  1.0272676600916D+00
92  9.1000000000000D-01  6.2628120303076D-01  1.0673015086016D+00
93  9.2000000000000D-01  5.9144666323866D-01  1.1068272532087D+00
94  9.3000000000000D-01  5.5653286667237D-01  1.1457315866614D+00
95  9.4000000000000D-01  5.2161199344271D-01  1.1838945729705D+00
96  9.5000000000000D-01  4.8675736781117D-01  1.2211900307891D+00
97  9.6000000000000D-01  4.5204322038978D-01  1.2574860321989D+00
98  9.7000000000000D-01  4.1754442897344D-01  1.2926455161853D+00
99  9.8000000000000D-01  3.8333623906835D-01  1.3265270145223D+00
100  9.9000000000000D-01  3.4949396548114D-01  1.3589854861757D+00
101  1.0000000000000D+00  3.1609267661782D-01  1.3898732547817D+00
102  1.0100000000000D+00  2.8320686342418D-01  1.4190410422097D+00
103  1.0200000000000D+00  2.5091009516437D-01  1.4463390897313D+00
104  1.0300000000000D+00  2.1927466448688D-01  1.4716183568866D+00
105  1.0400000000000D+00  1.8837122444953D-01  1.4947317868462D+00
106  1.0500000000000D+00  1.5826842038285D-01  1.5155356258422D+00
107  1.0600000000000D+00  1.2903251965077D-01  1.5338907831365D+00
108  1.0700000000000D+00  1.0072704250870D-01  1.5496642170924D+00
109  1.0800000000000D+00  7.3412397376271D-02  1.5627303321181D+00
110  1.0900000000000D+00  4.7145523916231D-02  1.5729723706681D+00
111  1.1000000000000D+00  2.1979547359198D-02  1.5802837840519D+00
112  1.1100000000000D+00 -2.0365524855238D-03  1.5845695655624D+00
113  1.1200000000000D+00 -2.4858254125508D-02  1.5857475294201D+00
114  1.1300000000000D+00 -4.6445785873635D-02  1.5837495192704D+00
115  1.1400000000000D+00 -6.6764392684481D-02  1.5785225301723D+00
116  1.1500000000000D+00 -8.5784575296814D-02  1.5700297287828D+00
117  1.1600000000000D+00 -1.0348229879879D-01  1.5582513571005D+00
118  1.1700000000000D+00 -1.1983916800477D-01  1.5431855063031D+00
119  1.1800000000000D+00 -1.3484256719161D-01  1.5248487478925D+00
120  1.1900000000000D+00 -1.4848576216027D-01  1.5032766112519D+00
121  1.2000000000000D+00 -1.6076796286450D-01  1.4785238980016D+00
122  1.2100000000000D+00 -1.7169434515095D-01  1.4506648249459D+00
123  1.2200000000000D+00 -1.8127603055389D-01  1.4197929892721D+00
124  1.2300000000000D+00 -1.8953002353973D-01  1.3860211518310D+00
125  1.2400000000000D+00 -1.9647910595282D-01  1.3494808360499D+00
126  1.2500000000000D+00 -2.0215168869681D-01  1.3103217413783D+00
127  1.2600000000000D+00 -2.0658162137002D-01  1.2687109735115D+00
128  1.2700000000000D+00 -2.0980796086169D-01  1.2248320950710D+00
129  1.2800000000000D+00 -2.1187470011114D-01  1.1788840013595D+00
130  1.2900000000000D+00 -2.1283045907279D-01  1.1310796299848D+00
131  1.3000000000000D+00 -2.1272814005238D-01  1.0816445137785D+00
132  1.3100000000000D+00 -2.1162454978683D-01  1.0308151874477D+00
133  1.3200000000000D+00 -2.0957999146557D-01  9.7883746255914D-01
134  1.3300000000000D+00 -2.0665782979794D-01  9.2596458500644D-01
135  1.3400000000000D+00 -2.0292403258136D-01  8.7245529085763D-01
136  1.3500000000000D+00 -1.9844669277185D-01  8.1857177930514D-01
137  1.3600000000000D+00 -1.9329553484608D-01  7.6457762035270D-01
138  1.3700000000000D+00 -1.8754140974878D-01  7.1073561745722D-01
139  1.3800000000000D+00 -1.8125578273284D-01  6.5730564549984D-01
140  1.3900000000000D+00 -1.7451021841267D-01  6.0454248445217D-01
141  1.4000000000000D+00 -1.6737586757746D-01  5.5269367041158D-01
142  1.4100000000000D+00 -1.5992296003723D-01  5.0199738426012D-01
143  1.4200000000000D+00 -1.5222030811513D-01  4.5268039994505D-01
144  1.4300000000000D+00 -1.4433482469187D-01  4.0495611096398D-01
145  1.4400000000000D+00 -1.3633106035103D-01  3.5902265674428D-01
146  1.4500000000000D+00 -1.2827076321639D-01  3.1506116599399D-01
147  1.4600000000000D+00 -1.2021246520322D-01  2.7323413467445D-01
148  1.4700000000000D+00 -1.1221109783581D-01  2.3368395256425D-01
149  1.4800000000000D+00 -1.0431764285342D-01  1.9653160834739D-01
150  1.4900000000000D+00 -9.6578815225935D-02  1.6187554906870D-01
151  1.5000000000000D+00 -8.9036809794467D-02  1.2979089077226D-01
152  1.5100000000000D+00 -8.1728983328964D-02  1.0032817763250D-01
153  1.5200000000000D+00 -7.4687746708815D-02  7.3513386785534D-02
154  1.5300000000000D+00 -6.7940674840974D-02  4.9349286267355D-02
155  1.5400000000000D+00 -6.1510650565180D-02  2.7816744632651D-02
156  1.5500000000000D+00 -5.5416150825200D-02  8.8767674044207D-03
157  1.5600000000000D+00 -4.9671319644990D-02 -7.5288996891960D-03
158  1.5700000000000D+00 -4.4286032706837D-02 -2.1477344774428D-02
159  1.5800000000000D+00 -3.9266090626308D-02 -3.3063248165235D-02
160  1.5900000000000D+00 -3.4613402230366D-02 -4.2397786594516D-02
161  1.6000000000000D+00 -3.0326219458629D-02 -4.9607258356224D-02
162  1.6100000000000D+00 -2.6399397990027D-02 -5.4831594518186D-02
163  1.6200000000000D+00 -2.2824687994685D-02 -5.8222725269549D-02
164  1.6300000000000D+00 -1.9591049014963D-02 -5.9942832544651D-02
165  1.6400000000000D+00 -1.6684986513453D-02 -6.0162501219065D-02
166  1.6500000000000D+00 -1.4090905080286D-02 -5.9058793889538D-02
167  1.6600000000000D+00 -1.1791474918460D-02 -5.6813266112921D-02
168  1.6700000000000D+00 -9.7680066707982D-03 -5.3609946835691D-02
169  1.6800000000000D+00 -8.0008307503156D-03 -4.9633303218466D-02
170  1.6900000000000D+00 -6.4696762366075D-03 -4.5066214651789D-02
171  1.7000000000000D+00 -5.1540454332469D-03 -4.0087975547057D-02
172  1.7100000000000D+00 -4.0335792211378D-03 -3.4872351393064D-02
173  1.7200000000000D+00 -3.0884094459387D-03 -2.9585706971088D-02
174  1.7300000000000D+00 -2.2994938476109D-03 -2.4385229397173D-02
175  1.7400000000000D+00 -1.6489298461766D-03 -1.9417264516498D-02
176  1.7500000000000D+00 -1.1202176595429D-03 -1.4818335538819D-02
177  1.7600000000000D+00 -6.9859812334264D-04 -1.0706169966435D-02
178  1.7700000000000D+00 -3.7181019063631D-04 -7.1660790554385D-03
179  1.7800000000000D+00 -1.2894270734728D-04 -4.2988242414874D-03
180  1.7900000000000D+00  4.3160269574016D-05 -2.2687609432001D-03
181  1.8000000000000D+00  1.5166729448320D-04 -1.1148119263801D-03
182  1.8100000000000D+00  1.7636519938848D-04 -5.3871172682720D-04
183  1.8200000000000D+00  1.0533606192419D-04 -1.9928283706220D-04
184  1.8300000000000D+00  1.3762123796201D-05 -1.9898746762213D-05
185  1.8400000000000D+00 -2.0754536137511D-05  2.6080922969864D-05
186  1.8500000000000D+00 -9.0031970845671D-06  9.8206403257660D-06
187  1.8600000000000D+00  3.9004186946430D-06 -6.2207811744009D-06
188  1.8700000000000D+00  3.2545357494763D-06 -4.9396084441143D-06
189  1.8800000000000D+00 -2.9092244740876D-07  8.8224916475871D-07
190  1.8900000000000D+00 -4.5077035110502D-07  1.3670026816515D-06
191  1.9000000000000D+00  0.0000000000000D+00  0.0000000000000D+00
192  1.9100000000000D+00  0.0000000000000D+00  0.0000000000000D+00
193  1.9200000000000D+00  0.0000000000000D+00  0.0000000000000D+00
194  1.9300000000000D+00  0.0000000000000D+00  0.0000000000000D+00
195  1.9400000000000D+00  0.0000000000000D+00  0.0000000000000D+00
196  1.9500000000000D+00  0.0000000000000D+00  0.0000000000000D+00
197  1.9600000000000D+00  0.0000000000000D+00  0.0000000000000D+00
198  1.9700000000000D+00  0.0000000000000D+00  0.0000000000000D+00
199  1.9800000000000D+00  0.0000000000000D+00  0.0000000000000D+00
200  1.9900000000000D+00  0.0000000000000D+00  0.0000000000000D+00
201  2.0000000000000D+00  0.0000000000000D+00  0.0000000000000D+00
202  2.0100000000000D+00  0.0000000000000D+00  0.0000000000000D+00
203  2.0200000000000D+00  0.0000000000000D+00  0.0000000000000D+00
204  2.0300000000000D+00  0.0000000000000D+00  0.0000000000000D+00
205  2.0400000000000D+00  0.0000000000000D+00  0.0000000000000D+00
206  2.0500000000000D+00  0.0000000000000D+00  0.0000000000000D+00
207  2.0600000000000D+00  0.0000000000000D+00  0.0000000000000D+00
208  2.0700000000000D+00  0.0000000000000D+00  0.0000000000000D+00
209  2.0800000000000D+00  0.0000000000000D+00  0.0000000000000D+00
210  2.0900000000000D+00  0.0000000000000D+00  0.0000000000000D+00
211  2.1000000000000D+00  0.0000000000000D+00  0.0000000000000D+00
212  2.1100000000000D+00  0.0000000000000D+00  0.0000000000000D+00
213  2.1200000000000D+00  0.0000000000000D+00  0.0000000000000D+00
214  2.1300000000000D+00  0.0000000000000D+00  0.0000000000000D+00
215  2.1400000000000D+00  0.0000000000000D+00  0.0000000000000D+00
216  2.1500000000000D+00  0.0000000000000D+00  0.0000000000000D+00
217  2.1600000000000D+00  0.0000000000000D+00  0.0000000000000D+00
218  2.1700000000000D+00  0.0000000000000D+00  0.0000000000000D+00
219  2.1800000000000D+00  0.0000000000000D+00  0.0000000000000D+00
220  2.1900000000000D+00  0.0000000000000D+00  0.0000000000000D+00
221  2.2000000000000D+00  0.0000000000000D+00  0.0000000000000D+00
222  2.2100000000000D+00  0.0000000000000D+00  0.0000000000000D+00
223  2.2200000000000D+00  0.0000000000000D+00  0.0000000000000D+00
224  2.2300000000000D+00  0.0000000000000D+00  0.0000000000000D+00
225  2.2400000000000D+00  0.0000000000000D+00  0.0000000000000D+00
226  2.2500000000000D+00  0.0000000000000D+00  0.0000000000000D+00
227  2.2600000000000D+00  0.0000000000000D+00  0.0000000000000D+00
228  2.2700000000000D+00  0.0000000000000D+00  0.0000000000000D+00
229  2.2800000000000D+00  0.0000000000000D+00  0.0000000000000D+00
230  2.2900000000000D+00  0.0000000000000D+00  0.0000000000000D+00
231  2.3000000000000D+00  0.0000000000000D+00  0.0000000000000D+00
232  2.3100000000000D+00  0.0000000000000D+00  0.0000000000000D+00
233  2.3200000000000D+00  0.0000000000000D+00  0.0000000000000D+00
234  2.3300000000000D+00  0.0000000000000D+00  0.0000000000000D+00
235  2.3400000000000D+00  0.0000000000000D+00  0.0000000000000D+00
236  2.3500000000000D+00  0.0000000000000D+00  0.0000000000000D+00
237  2.3600000000000D+00  0.0000000000000D+00  0.0000000000000D+00
238  2.3700000000000D+00  0.0000000000000D+00  0.0000000000000D+00
239  2.3800000000000D+00  0.0000000000000D+00  0.0000000000000D+00
240  2.3900000000000D+00  0.0000000000000D+00  0.0000000000000D+00
241  2.4000000000000D+00  0.0000000000000D+00  0.0000000000000D+00
242  2.4100000000000D+00  0.0000000000000D+00  0.0000000000000D+00
243  2.4200000000000D+00  0.0000000000000D+00  0.0000000000000D+00
244  2.4300000000000D+00  0.0000000000000D+00  0.0000000000000D+00
245  2.4400000000000D+00  0.0000000000000D+00  0.0000000000000D+00
246  2.4500000000000D+00  0.0000000000000D+00  0.0000000000000D+00
247  2.4600000000000D+00  0.0000000000000D+00  0.0000000000000D+00
248  2.4700000000000D+00  0.0000000000000D+00  0.0000000000000D+00
249  2.4800000000000D+00  0.0000000000000D+00  0.0000000000000D+00
250  2.4900000000000D+00  0.0000000000000D+00  0.0000000000000D+00
251  2.5000000000000D+00  0.0000000000000D+00  0.0000000000000D+00
252  2.5100000000000D+00  0.0000000000000D+00  0.0000000000000D+00
253  2.5200000000000D+00  0.0000000000000D+00  0.0000000000000D+00
254  2.5300000000000D+00  0.0000000000000D+00  0.0000000000000D+00
255  2.5400000000000D+00  0.0000000000000D+00  0.0000000000000D+00
256  2.5500000000000D+00  0.0000000000000D+00  0.0000000000000D+00
257  2.5600000000000D+00  0.0000000000000D+00  0.0000000000000D+00
258  2.5700000000000D+00  0.0000000000000D+00  0.0000000000000D+00
259  2.5800000000000D+00  0.0000000000000D+00  0.0000000000000D+00
260  2.5900000000000D+00  0.0000000000000D+00  0.0000000000000D+00
261  2.6000000000000D+00  0.0000000000000D+00  0.0000000000000D+00
262  2.6100000000000D+00  0.0000000000000D+00  0.0000000000000D+00
263  2.6200000000000D+00  0.0000000000000D+00  0.0000000000000D+00
264  2.6300000000000D+00  0.0000000000000D+00  0.0000000000000D+00
265  2.6400000000000D+00  0.0000000000000D+00  0.0000000000000D+00
266  2.6500000000000D+00  0.0000000000000D+00  0.0000000000000D+00
267  2.6600000000000D+00  0.0000000000000D+00  0.0000000000000D+00
268  2.6700000000000D+00  0.0000000000000D+00  0.0000000000000D+00
269  2.6800000000000D+00  0.0000000000000D+00  0.0000000000000D+00
270  2.6900000000000D+00  0.0000000000000D+00  0.0000000000000D+00
271  2.7000000000000D+00  0.0000000000000D+00  0.0000000000000D+00
272  2.7100000000000D+00  0.0000000000000D+00  0.0000000000000D+00
273  2.7200000000000D+00  0.0000000000000D+00  0.0000000000000D+00
274  2.7300000000000D+00  0.0000000000000D+00  0.0000000000000D+00
275  2.7400000000000D+00  0.0000000000000D+00  0.0000000000000D+00
276  2.7500000000000D+00  0.0000000000000D+00  0.0000000000000D+00
277  2.7600000000000D+00  0.0000000000000D+00  0.0000000000000D+00
278  2.7700000000000D+00  0.0000000000000D+00  0.0000000000000D+00
279  2.7800000000000D+00  0.0000000000000D+00  0.0000000000000D+00
280  2.7900000000000D+00  0.0000000000000D+00  0.0000000000000D+00
281  2.8000000000000D+00  0.0000000000000D+00  0.0000000000000D+00
282  2.8100000000000D+00  0.0000000000000D+00  0.0000000000000D+00
283  2.8200000000000D+00  0.0000000000000D+00  0.0000000000000D+00
284  2.8300000000000D+00  0.0000000000000D+00  0.0000000000000D+00
285  2.8400000000000D+00  0.0000000000000D+00  0.0000000000000D+00
286  2.8500000000000D+00  0.0000000000000D+00  0.0000000000000D+00
287  2.8600000000000D+00  0.0000000000000D+00  0.0000000000000D+00
288  2.8700000000000D+00  0.0000000000000D+00  0.0000000000000D+00
289  2.8800000000000D+00  0.0000000000000D+00  0.0000000000000D+00
290  2.8900000000000D+00  0.0000000000000D+00  0.0000000000000D+00
291  2.9000000000000D+00  0.0000000000000D+00  0.0000000000000D+00
292  2.9100000000000D+00  0.0000000000000D+00  0.0000000000000D+00
293  2.9200000000000D+00  0.0000000000000D+00  0.0000000000000D+00
294  2.9300000000000D+00  0.0000000000000D+00  0.0000000000000D+00
295  2.9400000000000D+00  0.0000000000000D+00  0.0000000000000D+00
296  2.9500000000000D+00  0.0000000000000D+00  0.0000000000000D+00
297  2.9600000000000D+00  0.0000000000000D+00  0.0000000000000D+00
298  2.9700000000000D+00  0.0000000000000D+00  0.0000000000000D+00
299  2.9800000000000D+00  0.0000000000000D+00  0.0000000000000D+00
300  2.9900000000000D+00  0.0000000000000D+00  0.0000000000000D+00
301  3.0000000000000D+00  0.0000000000000D+00  0.0000000000000D+00
302  3.0100000000000D+00  0.0000000000000D+00  0.0000000000000D+00
303  3.0200000000000D+00  0.0000000000000D+00  0.0000000000000D+00
304  3.0300000000000D+00  0.0000000000000D+00  0.0000000000000D+00
305  3.0400000000000D+00  0.0000000000000D+00  0.0000000000000D+00
306  3.0500000000000D+00  0.0000000000000D+00  0.0000000000000D+00
307  3.0600000000000D+00  0.0000000000000D+00  0.0000000000000D+00
308  3.0700000000000D+00  0.0000000000000D+00  0.0000000000000D+00
309  3.0800000000000D+00  0.0000000000000D+00  0.0000000000000D+00
310  3.0900000000000D+00  0.0000000000000D+00  0.0000000000000D+00
311  3.1000000000000D+00  0.0000000000000D+00  0.0000000000000D+00
312  3.1100000000000D+00  0.0000000000000D+00  0.0000000000000D+00
313  3.1200000000000D+00  0.0000000000000D+00  0.0000000000000D+00
314  3.1300000000000D+00  0.0000000000000D+00  0.0000000000000D+00
315  3.1400000000000D+00  0.0000000000000D+00  0.0000000000000D+00
316  3.1500000000000D+00  0.0000000000000D+00  0.0000000000000D+00
317  3.1600000000000D+00  0.0000000000000D+00  0.0000000000000D+00
318  3.1700000000000D+00  0.0000000000000D+00  0.0000000000000D+00
319  3.1800000000000D+00  0.0000000000000D+00  0.0000000000000D+00
320  3.1900000000000D+00  0.0000000000000D+00  0.0000000000000D+00
321  3.2000000000000D+00  0.0000000000000D+00  0.0000000000000D+00
322  3.2100000000000D+00  0.0000000000000D+00  0.0000000000000D+00
323  3.2200000000000D+00  0.0000000000000D+00  0.0000000000000D+00
324  3.2300000000000D+00  0.0000000000000D+00  0.0000000000000D+00
325  3.2400000000000D+00  0.0000000000000D+00  0.0000000000000D+00
326  3.2500000000000D+00  0.0000000000000D+00  0.0000000000000D+00
327  3.2600000000000D+00  0.0000000000000D+00  0.0000000000000D+00
328  3.2700000000000D+00  0.0000000000000D+00  0.0000000000000D+00
329  3.2800000000000D+00  0.0000000000000D+00  0.0000000000000D+00
330  3.2900000000000D+00  0.0000000000000D+00  0.0000000000000D+00
331  3.3000000000000D+00  0.0000000000000D+00  0.0000000000000D+00
332  3.3100000000000D+00  0.0000000000000D+00  0.0000000000000D+00
333  3.3200000000000D+00  0.0000000000000D+00  0.0000000000000D+00
334  3.3300000000000D+00  0.0000000000000D+00  0.0000000000000D+00
335  3.3400000000000D+00  0.0000000000000D+00  0.0000000000000D+00
336  3.3500000000000D+00  0.0000000000000D+00  0.0000000000000D+00
337  3.3600000000000D+00  0.0000000000000D+00  0.0000000000000D+00
338  3.3700000000000D+00  0.0000000000000D+00  0.0000000000000D+00
339  3.3800000000000D+00  0.0000000000000D+00  0.0000000000000D+00
340  3.3900000000000D+00  0.0000000000000D+00  0.0000000000000D+00
341  3.4000000000000D+00  0.0000000000000D+00  0.0000000000000D+00
342  3.4100000000000D+00  0.0000000000000D+00  0.0000000000000D+00
343  3.4200000000000D+00  0.0000000000000D+00  0.0000000000000D+00
344  3.4300000000000D+00  0.0000000000000D+00  0.0000000000000D+00
345  3.4400000000000D+00  0.0000000000000D+00  0.0000000000000D+00
346  3.4500000000000D+00  0.0000000000000D+00  0.0000000000000D+00
347  3.4600000000000D+00  0.0000000000000D+00  0.0000000000000D+00
348  3.4700000000000D+00  0.0000000000000D+00  0.0000000000000D+00
349  3.4800000000000D+00  0.0000000000000D+00  0.0000000000000D+00
350  3.4900000000000D+00  0.0000000000000D+00  0.0000000000000D+00
351  3.5000000000000D+00  0.0000000000000D+00  0.0000000000000D+00
352  3.5100000000000D+00  0.0000000000000D+00  0.0000000000000D+00
353  3.5200000000000D+00  0.0000000000000D+00  0.0000000000000D+00
354  3.5300000000000D+00  0.0000000000000D+00  0.0000000000000D+00
355  3.5400000000000D+00  0.0000000000000D+00  0.0000000000000D+00
356  3.5500000000000D+00  0.0000000000000D+00  0.0000000000000D+00
357  3.5600000000000D+00  0.0000000000000D+00  0.0000000000000D+00
358  3.5700000000000D+00  0.0000000000000D+00  0.0000000000000D+00
359  3.5800000000000D+00  0.0000000000000D+00  0.0000000000000D+00
360  3.5900000000000D+00  0.0000000000000D+00  0.0000000000000D+00
361  3.6000000000000D+00  0.0000000000000D+00  0.0000000000000D+00
362  3.6100000000000D+00  0.0000000000000D+00  0.0000000000000D+00
363  3.6200000000000D+00  0.0000000000000D+00  0.0000000000000D+00
364  3.6300000000000D+00  0.0000000000000D+00  0.0000000000000D+00
365  3.6400000000000D+00  0.0000000000000D+00  0.0000000000000D+00
366  3.6500000000000D+00  0.0000000000000D+00  0.0000000000000D+00
367  3.6600000000000D+00  0.0000000000000D+00  0.0000000000000D+00
368  3.6700000000000D+00  0.0000000000000D+00  0.0000000000000D+00
369  3.6800000000000D+00  0.0000000000000D+00  0.0000000000000D+00
370  3.6900000000000D+00  0.0000000000000D+00  0.0000000000000D+00
371  3.7000000000000D+00  0.0000000000000D+00  0.0000000000000D+00
372  3.7100000000000D+00  0.0000000000000D+00  0.0000000000000D+00
373  3.7200000000000D+00  0.0000000000000D+00  0.0000000000000D+00
374  3.7300000000000D+00  0.0000000000000D+00  0.0000000000000D+00
375  3.7400000000000D+00  0.0000000000000D+00  0.0000000000000D+00
376  3.7500000000000D+00  0.0000000000000D+00  0.0000000000000D+00
377  3.7600000000000D+00  0.0000000000000D+00  0.0000000000000D+00
378  3.7700000000000D+00  0.0000000000000D+00  0.0000000000000D+00
379  3.7800000000000D+00  0.0000000000000D+00  0.0000000000000D+00
380  3.7900000000000D+00  0.0000000000000D+00  0.0000000000000D+00
381  3.8000000000000D+00  0.0000000000000D+00  0.0000000000000D+00
382  3.8100000000000D+00  0.0000000000000D+00  0.0000000000000D+00
383  3.8200000000000D+00  0.0000000000000D+00  0.0000000000000D+00
384  3.8300000000000D+00  0.0000000000000D+00  0.0000000000000D+00
385  3.8400000000000D+00  0.0000000000000D+00  0.0000000000000D+00
386  3.8500000000000D+00  0.0000000000000D+00  0.0000000000000D+00
387  3.8600000000000D+00  0.0000000000000D+00  0.0000000000000D+00
388  3.8700000000000D+00  0.0000000000000D+00  0.0000000000000D+00
389  3.8800000000000D+00  0.0000000000000D+00  0.0000000000000D+00
390  3.8900000000000D+00  0.0000000000000D+00  0.0000000000000D+00
391  3.9000000000000D+00  0.0000000000000D+00  0.0000000000000D+00
392  3.9100000000000D+00  0.0000000000000D+00  0.0000000000000D+00
393  3.9200000000000D+00  0.0000000000000D+00  0.0000000000000D+00
394  3.9300000000000D+00  0.0000000000000D+00  0.0000000000000D+00
395  3.9400000000000D+00  0.0000000000000D+00  0.0000000000000D+00
396  3.9500000000000D+00  0.0000000000000D+00  0.0000000000000D+00
397  3.9600000000000D+00  0.0000000000000D+00  0.0000000000000D+00
398  3.9700000000000D+00  0.0000000000000D+00  0.0000000000000D+00
399  3.9800000000000D+00  0.0000000000000D+00  0.0000000000000D+00
400  3.9900000000000D+00  0.0000000000000D+00  0.0000000000000D+00
401  4.0000000000000D+00  0.0000000000000D+00  0.0000000000000D+00
402  4.0100000000000D+00  0.0000000000000D+00  0.0000000000000D+00
403  4.0200000000000D+00  0.0000000000000D+00  0.0000000000000D+00
404  4.0300000000000D+00  0.0000000000000D+00  0.0000000000000D+00
405  4.0400000000000D+00  0.0000000000000D+00  0.0000000000000D+00
406  4.0500000000000D+00  0.0000000000000D+00  0.0000000000000D+00
407  4.0600000000000D+00  0.0000000000000D+00  0.0000000000000D+00
408  4.0700000000000D+00  0.0000000000000D+00  0.0000000000000D+00
409  4.0800000000000D+00  0.0000000000000D+00  0.0000000000000D+00
410  4.0900000000000D+00  0.0000000000000D+00  0.0000000000000D+00
411  4.1000000000000D+00  0.0000000000000D+00  0.0000000000000D+00
412  4.1100000000000D+00  0.0000000000000D+00  0.0000000000000D+00
413  4.1200000000000D+00  0.0000000000000D+00  0.0000000000000D+00
414  4.1300000000000D+00  0.0000000000000D+00  0.0000000000000D+00
415  4.1400000000000D+00  0.0000000000000D+00  0.0000000000000D+00
416  4.1500000000000D+00  0.0000000000000D+00  0.0000000000000D+00
417  4.1600000000000D+00  0.0000000000000D+00  0.0000000000000D+00
418  4.1700000000000D+00  0.0000000000000D+00  0.0000000000000D+00
419  4.1800000000000D+00  0.0000000000000D+00  0.0000000000000D+00
420  4.1900000000000D+00  0.0000000000000D+00  0.0000000000000D+00
421  4.2000000000000D+00  0.0000000000000D+00  0.0000000000000D+00
422  4.2100000000000D+00  0.0000000000000D+00  0.0000000000000D+00
423  4.2200000000000D+00  0.0000000000000D+00  0.0000000000000D+00
424  4.2300000000000D+00  0.0000000000000D+00  0.0000000000000D+00
425  4.2400000000000D+00  0.0000000000000D+00  0.0000000000000D+00
426  4.2500000000000D+00  0.0000000000000D+00  0.0000000000000D+00
427  4.2600000000000D+00  0.0000000000000D+00  0.0000000000000D+00
428  4.2700000000000D+00  0.0000000000000D+00  0.0000000000000D+00
429  4.2800000000000D+00  0.0000000000000D+00  0.0000000000000D+00
430  4.2900000000000D+00  0.0000000000000D+00  0.0000000000000D+00
431  4.3000000000000D+00  0.0000000000000D+00  0.0000000000000D+00
432  4.3100000000000D+00  0.0000000000000D+00  0.0000000000000D+00
433  4.3200000000000D+00  0.0000000000000D+00  0.0000000000000D+00
434  4.3300000000000D+00  0.0000000000000D+00  0.0000000000000D+00
435  4.3400000000000D+00  0.0000000000000D+00  0.0000000000000D+00
436  4.3500000000000D+00  0.0000000000000D+00  0.0000000000000D+00
437  4.3600000000000D+00  0.0000000000000D+00  0.0000000000000D+00
438  4.3700000000000D+00  0.0000000000000D+00  0.0000000000000D+00
439  4.3800000000000D+00  0.0000000000000D+00  0.0000000000000D+00
440  4.3900000000000D+00  0.0000000000000D+00  0.0000000000000D+00
441  4.4000000000000D+00  0.0000000000000D+00  0.0000000000000D+00
442  4.4100000000000D+00  0.0000000000000D+00  0.0000000000000D+00
443  4.4200000000000D+00  0.0000000000000D+00  0.0000000000000D+00
444  4.4300000000000D+00  0.0000000000000D+00  0.0000000000000D+00