Mg    ONCVPSP  r_core=  2.32  2.11
12.0000      2.0000      150628    zatom,zion,pspd
8      11   1     4   400     0    pspcod,pspxc,lmax,lloc,mmax,r2well
3.99000000  4.00000000  0.00000000    rchrg fchrg qchrg
2     2     0     0     0    nproj
0                 extension_switch
0                         5.9792363357140D+00  6.2471303999628D-01
1  0.0000000000000D+00 -2.4949486920889D-12  1.8948891067350D-11
2  1.0000000000000D-02  2.7579703200447D-02 -5.0648494146746D-03
3  2.0000000000000D-02  5.5148299060495D-02 -1.0128887006512D-02
4  3.0000000000000D-02  8.2694670693978D-02 -1.5191316207367D-02
5  4.0000000000000D-02  1.1020768213514D-01 -2.0251370532470D-02
6  5.0000000000000D-02  1.3767616882941D-01 -2.5308327561944D-02
7  6.0000000000000D-02  1.6508892816255D-01 -3.0361521663649D-02
8  7.0000000000000D-02  1.9243471004416D-01 -3.5410355060263D-02
9  8.0000000000000D-02  2.1970220756359D-01 -4.0454306862410D-02
10  9.0000000000000D-02  2.4688004773980D-01 -4.5492939713077D-02
11  1.0000000000000D-01  2.7395678239003D-01 -5.0525903716061D-02
12  1.1000000000000D-01  3.0092087914617D-01 -5.5552937352707D-02
13  1.2000000000000D-01  3.2776071265238D-01 -6.0573865126265D-02
14  1.3000000000000D-01  3.5446455598212D-01 -6.5588591711644D-02
15  1.4000000000000D-01  3.8102057231789D-01 -7.0597092429628D-02
16  1.5000000000000D-01  4.0741680694234D-01 -7.5599399908551D-02
17  1.6000000000000D-01  4.3364117959469D-01 -8.0595586842361D-02
18  1.7000000000000D-01  4.5968147725201D-01 -8.5585744801740D-02
19  1.8000000000000D-01  4.8552534740015D-01 -9.0569959103799D-02
20  1.9000000000000D-01  5.1116029186461D-01 -9.5548279795507D-02
21  2.0000000000000D-01  5.3657366127634D-01 -1.0052068885589D-01
22  2.1000000000000D-01  5.6175265025263D-01 -1.0548706377175D-01
23  2.2000000000000D-01  5.8668429337720D-01 -1.1044713769050D-01
24  2.3000000000000D-01  6.1135546206769D-01 -1.1540045640152D-01
25  2.4000000000000D-01  6.3575286242170D-01 -1.2034633244323D-01
26  2.5000000000000D-01  6.5986303413559D-01 -1.2528379667728D-01
27  2.6000000000000D-01  6.8367235059141D-01 -1.3021154771205D-01
28  2.7000000000000D-01  7.0716702020893D-01 -1.3512789959593D-01
29  2.8000000000000D-01  7.3033308915953D-01 -1.4003072823571D-01
30  2.9000000000000D-01  7.5315644553774D-01 -1.4491741702560D-01
31  3.0000000000000D-01  7.7562282508466D-01 -1.4978480219957D-01
32  3.1000000000000D-01  7.9771781855419D-01 -1.5462911844121D-01
33  3.2000000000000D-01  8.1942688080911D-01 -1.5944594530260D-01
34  3.3000000000000D-01  8.4073534172876D-01 -1.6423015499585D-01
35  3.4000000000000D-01  8.6162841900366D-01 -1.6897586212751D-01
36  3.5000000000000D-01  8.8209123288483D-01 -1.7367637594763D-01
37  3.6000000000000D-01  9.0210882294692D-01 -1.7832415568102D-01
38  3.7000000000000D-01  9.2166616691406D-01 -1.8291076949851D-01
39  3.8000000000000D-01  9.4074820158664D-01 -1.8742685767068D-01
40  3.9000000000000D-01  9.5933984589455D-01 -1.9186210042570D-01
41  4.0000000000000D-01  9.7742602608963D-01 -1.9620519100664D-01
42  4.1000000000000D-01  9.9499170307537D-01 -2.0044381439223D-01
43  4.2000000000000D-01  1.0120219018569D+00 -2.0456463210817D-01
44  4.3000000000000D-01  1.0285017430777D+00 -2.0855327351486D-01
45  4.4000000000000D-01  1.0444164765940D+00 -2.1239433391175D-01
46  4.5000000000000D-01  1.0597515170174D+00 -2.1607137974823D-01
47  4.6000000000000D-01  1.0744924811415D+00 -2.1956696117736D-01
48  4.7000000000000D-01  1.0886252271469D+00 -2.2286263213210D-01
49  4.8000000000000D-01  1.1021358954620D+00 -2.2593897804351D-01
50  4.9000000000000D-01  1.1150109511357D+00 -2.2877565125893D-01
51  5.0000000000000D-01  1.1272372275619D+00 -2.3135141415432D-01
52  5.1000000000000D-01  1.1388019713731D+00 -2.3364418987049D-01
53  5.2000000000000D-01  1.1496928883052D+00 -2.3563112053765D-01
54  5.3000000000000D-01  1.1598981898145D+00 -2.3728863278843D-01
55  5.4000000000000D-01  1.1694066402108D+00 -2.3859251029493D-01
56  5.5000000000000D-01  1.1782076040558D+00 -2.3951797300379D-01
57  5.6000000000000D-01  1.1862910935561D+00 -2.4003976268266D-01
58  5.7000000000000D-01  1.1936478156686D+00 -2.4013223433483D-01
59  5.8000000000000D-01  1.2002692186208D+00 -2.3976945298518D-01
60  5.9000000000000D-01  1.2061475375377D+00 -2.3892529529172D-01
61  6.0000000000000D-01  1.2112758388542D+00 -2.3757355539303D-01
62  6.1000000000000D-01  1.2156480631873D+00 -2.3568805436348D-01
63  6.2000000000000D-01  1.2192590663310D+00 -2.3324275261651D-01
64  6.3000000000000D-01  1.2221046580370D+00 -2.3021186457061D-01
65  6.4000000000000D-01  1.2241816382384D+00 -2.2656997487563D-01
66  6.5000000000000D-01  1.2254878303761D+00 -2.2229215548720D-01
67  6.6000000000000D-01  1.2260221114888D+00 -2.1735408287592D-01
68  6.7000000000000D-01  1.2257844387352D+00 -2.1173215466591D-01
69  6.8000000000000D-01  1.2247758720215D+00 -2.0540360501416D-01
70  6.9000000000000D-01  1.2229985924229D+00 -1.9834661806933D-01
71  7.0000000000000D-01  1.2204559160976D+00 -1.9054043888433D-01
72  7.1000000000000D-01  1.2171523034104D+00 -1.8196548120440D-01
73  7.2000000000000D-01  1.2130933630051D+00 -1.7260343160860D-01
74  7.3000000000000D-01  1.2082858505824D+00 -1.6243734954952D-01
75  7.4000000000000D-01  1.2027376621724D+00 -1.5145176291360D-01
76  7.5000000000000D-01  1.1964578217146D+00 -1.3963275881048D-01
77  7.6000000000000D-01  1.1894564627941D+00 -1.2696806939793D-01
78  7.7000000000000D-01  1.1817448044139D+00 -1.1344715265466D-01
79  7.8000000000000D-01  1.1733351207259D+00 -9.9061268129452D-02
80  7.9000000000000D-01  1.1642407046783D+00 -8.3803547819644D-02
81  8.0000000000000D-01  1.1544758255850D+00 -6.7669062464957D-02
82  8.1000000000000D-01  1.1440556806651D+00 -5.0654883683488D-02
83  8.2000000000000D-01  1.1329963406516D+00 -3.2760142524502D-02
84  8.3000000000000D-01  1.1213146896153D+00 -1.3986085166996D-02
85  8.4000000000000D-01  1.1090283592061D+00  5.6638733471406D-03
86  8.5000000000000D-01  1.0961556575645D+00  2.6184096291852D-02
87  8.6000000000000D-01  1.0827154932151D+00  4.7566672125590D-02
88  8.7000000000000D-01  1.0687272943069D+00  6.9801359656629D-02
89  8.8000000000000D-01  1.0542109236285D+00  9.2875529938432D-02
90  8.9000000000000D-01  1.0391865898801D+00  1.1677410315467D-01
91  9.0000000000000D-01  1.0236747557462D+00  1.4147947857987D-01
92  9.1000000000000D-01  1.0076960433723D+00  1.6697145552943D-01
93  9.2000000000000D-01  9.9127113790827D-01  1.9322714304352D-01
94  9.3000000000000D-01  9.7442068983793D-01  2.2022085588373D-01
95  9.4000000000000D-01  9.5716521687580D-01  2.4792399426099D-01
96  9.5000000000000D-01  9.3952500626628D-01  2.7630490455897D-01
97  9.6000000000000D-01  9.2152001837723D-01  3.0532871817100D-01
98  9.7000000000000D-01  9.0316979253278D-01  3.3495716543046D-01
99  9.8000000000000D-01  8.8449335590397D-01  3.6514836106645D-01
100  9.9000000000000D-01  8.6550913613785D-01  3.9585655664013D-01
101  1.0000000000000D+00  8.4623489509520D-01  4.2703189766634D-01
102  1.0100000000000D+00  8.2668758949024D-01  4.5861995146928D-01
103  1.0200000000000D+00  8.0688371093306D-01  4.9056230525650D-01
104  1.0300000000000D+00  7.8683998707715D-01  5.2279815938462D-01
105  1.0400000000000D+00  7.6657384728251D-01  5.5526563206895D-01
106  1.0500000000000D+00  7.4610331397303D-01  5.8790182494196D-01
107  1.0600000000000D+00  7.2544696704733D-01  6.2064304811404D-01
108  1.0700000000000D+00  7.0462388756612D-01  6.5342500343935D-01
109  1.0800000000000D+00  6.8365360495893D-01  6.8618297591179D-01
110  1.0900000000000D+00  6.6255604262438D-01  7.1885202105711D-01
111  1.1000000000000D+00  6.4135146357772D-01  7.5136715079560D-01
112  1.1100000000000D+00  6.2006041617554D-01  7.8366351673288D-01
113  1.1200000000000D+00  5.9870368014429D-01  8.1567659032044D-01
114  1.1300000000000D+00  5.7730221312999D-01  8.4734233935181D-01
115  1.1400000000000D+00  5.5587709797146D-01  8.7859740029056D-01
116  1.1500000000000D+00  5.3444949088932D-01  9.0937924594475D-01
117  1.1600000000000D+00  5.1304057076123D-01  9.3962634803327D-01
118  1.1700000000000D+00  4.9167148964033D-01  9.6927833420374D-01
119  1.1800000000000D+00  4.7036332465389D-01  9.9827613908108D-01
120  1.1900000000000D+00  4.4913703140671D-01  1.0265621489365D+00
121  1.2000000000000D+00  4.2801339898933D-01  1.0540803395819D+00
122  1.2100000000000D+00  4.0701300667879D-01  1.0807764070991D+00
123  1.2200000000000D+00  3.8615618240737D-01  1.1065978910176D+00
124  1.2300000000000D+00  3.6546296305635D-01  1.1314942895631D+00
125  1.2400000000000D+00  3.4495305662223D-01  1.1554171665960D+00
126  1.2500000000000D+00  3.2464580629590D-01  1.1783202498714D+00
127  1.2600000000000D+00  3.0456015648569D-01  1.2001595202462D+00
128  1.2700000000000D+00  2.8471462081012D-01  1.2208932914824D+00
129  1.2800000000000D+00  2.6512725208636D-01  1.2404822803118D+00
130  1.2900000000000D+00  2.4581561433610D-01  1.2588896664277D+00
131  1.3000000000000D+00  2.2679675683423D-01  1.2760811421471D+00
132  1.3100000000000D+00  2.0808719022604D-01  1.2920249515226D+00
133  1.3200000000000D+00  1.8970286474107D-01  1.3066919186898D+00
134  1.3300000000000D+00  1.7165915053596D-01  1.3200554654628D+00
135  1.3400000000000D+00  1.5397082019550D-01  1.3320916181626D+00
136  1.3500000000000D+00  1.3665203343017D-01  1.3427790037953D+00
137  1.3600000000000D+00  1.1971632398681D-01  1.3520988361284D+00
138  1.3700000000000D+00  1.0317658880687D-01  1.3600348919044D+00
139  1.3800000000000D+00  8.7045079438134D-02  1.3665734781520D+00
140  1.3900000000000D+00  7.1333395667046D-02  1.3717033917019D+00
141  1.4000000000000D+00  5.6052481392221D-02  1.3754158717934D+00
142  1.4100000000000D+00  4.1212622594004D-02  1.3777045480306D+00
143  1.4200000000000D+00  2.6823447356133D-02  1.3785653850666D+00
144  1.4300000000000D+00  1.2893927760761D-02  1.3779966266511D+00
145  1.4400000000000D+00 -5.6761663908355D-04  1.3759987418774D+00
146  1.4500000000000D+00 -1.3553513892458D-02  1.3725743761113D+00
147  1.4600000000000D+00 -2.6056733880102D-02  1.3677283107959D+00
148  1.4700000000000D+00 -3.8070881902294D-02  1.3614674349595D+00
149  1.4800000000000D+00 -4.9590192369113D-02  1.3538007330708D+00
150  1.4900000000000D+00 -6.0609523114970D-02  1.3447392924410D+00
151  1.5000000000000D+00 -7.1124351057470D-02  1.3342963352953D+00
152  1.5100000000000D+00 -8.1130770036541D-02  1.3224872772905D+00
153  1.5200000000000D+00 -9.0625491616521D-02  1.3093298190804D+00
154  1.5300000000000D+00 -9.9605849710224D-02  1.2948440692128D+00
155  1.5400000000000D+00 -1.0806980998639D-01  1.2790527054728D+00
156  1.5500000000000D+00 -1.1601598472325D-01  1.2619811701331D+00
157  1.5600000000000D+00 -1.2344365394231D-01  1.2436579023246D+00
158  1.5700000000000D+00 -1.3035279345620D-01  1.2241146028881D+00
159  1.5800000000000D+00 -1.3674410976884D-01  1.2033865261176D+00
160  1.5900000000000D+00 -1.4261908281295D-01  1.1815127954244D+00
161  1.6000000000000D+00 -1.4798001465236D-01  1.1585367258189D+00
162  1.6100000000000D+00 -1.5283008578678D-01  1.1345061514034D+00
163  1.6200000000000D+00 -1.5717341474976D-01  1.1094737309031D+00
164  1.6300000000000D+00 -1.6101512315237D-01  1.0834972262760D+00
165  1.6400000000000D+00 -1.6436139963936D-01  1.0566397258906D+00
166  1.6500000000000D+00 -1.6721956448287D-01  1.0289697952033D+00
167  1.6600000000000D+00 -1.6959812760857D-01  1.0005615405426D+00
168  1.6700000000000D+00 -1.7150683944484D-01  9.7149454483740D-01
169  1.6800000000000D+00 -1.7295672975345D-01  9.4185369499323D-01
170  1.6900000000000D+00 -1.7396012893095D-01  9.1172882518800D-01
171  1.7000000000000D+00 -1.7453067312674D-01  8.8121424637424D-01
172  1.7100000000000D+00 -1.7468328077721D-01  8.5040805261350D-01
173  1.7200000000000D+00 -1.7443411151941D-01  8.1941133071137D-01
174  1.7300000000000D+00 -1.7380048724849D-01  7.8832713752290D-01
175  1.7400000000000D+00 -1.7280079695175D-01  7.5725941396698D-01
176  1.7500000000000D+00 -1.7145436120763D-01  7.2631171837144D-01
177  1.7600000000000D+00 -1.6978128369917D-01  6.9558593650982D-01
178  1.7700000000000D+00 -1.6780226931562D-01  6.6518091647533D-01
179  1.7800000000000D+00 -1.6553843343378D-01  6.3519112263642D-01
180  1.7900000000000D+00 -1.6301109470532D-01  6.0570535920611D-01
181  1.8000000000000D+00 -1.6024156448877D-01  5.7680556314423D-01
182  1.8100000000000D+00 -1.5725094108921D-01  5.4856579442954D-01
183  1.8200000000000D+00 -1.5405990978880D-01  5.2105136690167D-01
184  1.8300000000000D+00 -1.5068856446952D-01  4.9431823494218D-01
185  1.8400000000000D+00 -1.4715625001753D-01  4.6841261229313D-01
186  1.8500000000000D+00 -1.4348143108240D-01  4.4337081572800D-01
187  1.8600000000000D+00 -1.3968160007236D-01  4.1921941694271D-01
188  1.8700000000000D+00 -1.3577320489322D-01  3.9597553975883D-01
189  1.8800000000000D+00 -1.3177162851924D-01  3.7364746129799D-01
190  1.8900000000000D+00 -1.2769118038639D-01  3.5223530605440D-01
191  1.9000000000000D+00 -1.2354513431226D-01  3.3173192382991D-01
192  1.9100000000000D+00 -1.1934577995508D-01  3.1212385534103D-01
193  1.9200000000000D+00 -1.1510449813614D-01  2.9339232307615D-01
194  1.9300000000000D+00 -1.1083185164858D-01  2.7551426701202D-01
195  1.9400000000000D+00 -1.0653768329644D-01  2.5846334128087D-01
196  1.9500000000000D+00 -1.0223121695281D-01  2.4221082894623D-01
197  1.9600000000000D+00 -9.7921164539750D-02  2.2672655094999D-01
198  1.9700000000000D+00 -9.3615816236232D-02  2.1197956970621D-01
199  1.9800000000000D+00 -8.9323138025694D-02  1.9793890123594D-01
200  1.9900000000000D+00 -8.5050845199944D-02  1.8457402275351D-01
201  2.0000000000000D+00 -8.0806473062080D-02  1.7185532144294D-01
202  2.0100000000000D+00 -7.6597433209700D-02  1.5975443013137D-01
203  2.0200000000000D+00 -7.2431053418523D-02  1.4824444772519D-01
204  2.0300000000000D+00 -6.8314612666200D-02  1.3730010065305D-01
205  2.0400000000000D+00 -6.4255357413617D-02  1.2689781452745D-01
206  2.0500000000000D+00 -6.0260512607459D-02  1.1701572643629D-01
207  2.0600000000000D+00 -5.6337282067374D-02  1.0763365859101D-01
208  2.0700000000000D+00 -5.2492841266602D-02  9.8733050169781D-02
209  2.0800000000000D+00 -4.8734323870143D-02  9.0296853565497D-02
210  2.0900000000000D+00 -4.5068804899285D-02  8.2309440993834D-02
211  2.1000000000000D+00 -4.1503277451984D-02  7.4756466903473D-02
212  2.1100000000000D+00 -3.8044629938673D-02  6.7624759074182D-02
213  2.1200000000000D+00 -3.4699620248938D-02  6.0902199014665D-02
214  2.1300000000000D+00 -3.1474848244855D-02  5.4577601319314D-02
215  2.1400000000000D+00 -2.8376731196766D-02  4.8640625107757D-02
216  2.1500000000000D+00 -2.5411476017631D-02  4.3081671386064D-02
217  2.1600000000000D+00 -2.2585055222692D-02  3.7891810517819D-02
218  2.1700000000000D+00 -1.9903183207636D-02  3.3062717028166D-02
219  2.1800000000000D+00 -1.7371292792500D-02  2.8586610684961D-02
220  2.1900000000000D+00 -1.4994515519626D-02  2.4456220005529D-02
221  2.2000000000000D+00 -1.2777661635497D-02  2.0664748192867D-02
222  2.2100000000000D+00 -1.0725202598575D-02  1.7205851982204D-02
223  2.2200000000000D+00 -8.8412553665283D-03  1.4073629203949D-02
224  2.2300000000000D+00 -7.1295674264350D-03  1.1262612535472D-02
225  2.2400000000000D+00 -5.5939631312752D-03  8.7684089936094D-03
226  2.2500000000000D+00 -4.2373318485537D-03  6.5863096859898D-03
227  2.2600000000000D+00 -3.0603341723971D-03  4.7095078787373D-03
228  2.2700000000000D+00 -2.0622423890924D-03  3.1308445590913D-03
229  2.2800000000000D+00 -1.2514372469944D-03  1.8555482024701D-03
230  2.2900000000000D+00 -6.3646483997852D-04  8.9018248818606D-04
231  2.3000000000000D+00 -2.1942384843410D-04  2.3083975077417D-04
232  2.3100000000000D+00  2.0345434841378D-05 -1.4456123260920D-04
233  2.3200000000000D+00  1.1289270211568D-04 -2.7393702613860D-04
234  2.3300000000000D+00  9.7656820664557D-05 -2.1283262667668D-04
235  2.3400000000000D+00  3.6795826419349D-05 -7.7280014972100D-05
236  2.3500000000000D+00 -1.2460371986261D-05  2.5814588940953D-05
237  2.3600000000000D+00 -2.1926961561005D-05  4.4836131827921D-05
238  2.3700000000000D+00 -8.3160035737067D-06  1.6858667300507D-05
239  2.3800000000000D+00  3.0979848716143D-06 -6.5440270509841D-06
240  2.3900000000000D+00  4.3651394492816D-06 -9.1695681358455D-06
241  2.4000000000000D+00  1.1733578675223D-06 -2.4538930711889D-06
242  2.4100000000000D+00 -2.3440462368880D-07  5.9393850760512D-07
243  2.4200000000000D+00 -2.7710995197965D-07  7.0214601031004D-07
244  2.4300000000000D+00 -4.3655340054318D-08  1.1061465901491D-07
245  2.4400000000000D+00  0.0000000000000D+00  0.0000000000000D+00
246  2.4500000000000D+00  0.0000000000000D+00  0.0000000000000D+00
247  2.4600000000000D+00  0.0000000000000D+00  0.0000000000000D+00
248  2.4700000000000D+00  0.0000000000000D+00  0.0000000000000D+00
249  2.4800000000000D+00  0.0000000000000D+00  0.0000000000000D+00
250  2.4900000000000D+00  0.0000000000000D+00  0.0000000000000D+00
251  2.5000000000000D+00  0.0000000000000D+00  0.0000000000000D+00
252  2.5100000000000D+00  0.0000000000000D+00  0.0000000000000D+00
253  2.5200000000000D+00  0.0000000000000D+00  0.0000000000000D+00
254  2.5300000000000D+00  0.0000000000000D+00  0.0000000000000D+00
255  2.5400000000000D+00  0.0000000000000D+00  0.0000000000000D+00
256  2.5500000000000D+00  0.0000000000000D+00  0.0000000000000D+00
257  2.5600000000000D+00  0.0000000000000D+00  0.0000000000000D+00
258  2.5700000000000D+00  0.0000000000000D+00  0.0000000000000D+00
259  2.5800000000000D+00  0.0000000000000D+00  0.0000000000000D+00
260  2.5900000000000D+00  0.0000000000000D+00  0.0000000000000D+00
261  2.6000000000000D+00  0.0000000000000D+00  0.0000000000000D+00
262  2.6100000000000D+00  0.0000000000000D+00  0.0000000000000D+00
263  2.6200000000000D+00  0.0000000000000D+00  0.0000000000000D+00
264  2.6300000000000D+00  0.0000000000000D+00  0.0000000000000D+00
265  2.6400000000000D+00  0.0000000000000D+00  0.0000000000000D+00
266  2.6500000000000D+00  0.0000000000000D+00  0.0000000000000D+00
267  2.6600000000000D+00  0.0000000000000D+00  0.0000000000000D+00
268  2.6700000000000D+00  0.0000000000000D+00  0.0000000000000D+00
269  2.6800000000000D+00  0.0000000000000D+00  0.0000000000000D+00
270  2.6900000000000D+00  0.0000000000000D+00  0.0000000000000D+00
271  2.7000000000000D+00  0.0000000000000D+00  0.0000000000000D+00
272  2.7100000000000D+00  0.0000000000000D+00  0.0000000000000D+00
273  2.7200000000000D+00  0.0000000000000D+00  0.0000000000000D+00
274  2.7300000000000D+00  0.0000000000000D+00  0.0000000000000D+00
275  2.7400000000000D+00  0.0000000000000D+00  0.0000000000000D+00
276  2.7500000000000D+00  0.0000000000000D+00  0.0000000000000D+00
277  2.7600000000000D+00  0.0000000000000D+00  0.0000000000000D+00
278  2.7700000000000D+00  0.0000000000000D+00  0.0000000000000D+00
279  2.7800000000000D+00  0.0000000000000D+00  0.0000000000000D+00
280  2.7900000000000D+00  0.0000000000000D+00  0.0000000000000D+00
281  2.8000000000000D+00  0.0000000000000D+00  0.0000000000000D+00
282  2.8100000000000D+00  0.0000000000000D+00  0.0000000000000D+00
283  2.8200000000000D+00  0.0000000000000D+00  0.0000000000000D+00
284  2.8300000000000D+00  0.0000000000000D+00  0.0000000000000D+00
285  2.8400000000000D+00  0.0000000000000D+00  0.0000000000000D+00
286  2.8500000000000D+00  0.0000000000000D+00  0.0000000000000D+00
287  2.8600000000000D+00  0.0000000000000D+00  0.0000000000000D+00
288  2.8700000000000D+00  0.0000000000000D+00  0.0000000000000D+00
289  2.8800000000000D+00  0.0000000000000D+00  0.0000000000000D+00
290  2.8900000000000D+00  0.0000000000000D+00  0.0000000000000D+00
291  2.9000000000000D+00  0.0000000000000D+00  0.0000000000000D+00
292  2.9100000000000D+00  0.0000000000000D+00  0.0000000000000D+00
293  2.9200000000000D+00  0.0000000000000D+00  0.0000000000000D+00
294  2.9300000000000D+00  0.0000000000000D+00  0.0000000000000D+00
295  2.9400000000000D+00  0.0000000000000D+00  0.0000000000000D+00
296  2.9500000000000D+00  0.0000000000000D+00  0.0000000000000D+00
297  2.9600000000000D+00  0.0000000000000D+00  0.0000000000000D+00
298  2.9700000000000D+00  0.0000000000000D+00  0.0000000000000D+00
299  2.9800000000000D+00  0.0000000000000D+00  0.0000000000000D+00
300  2.9900000000000D+00  0.0000000000000D+00  0.0000000000000D+00
301  3.0000000000000D+00  0.0000000000000D+00  0.0000000000000D+00
302  3.0100000000000D+00  0.0000000000000D+00  0.0000000000000D+00
303  3.0200000000000D+00  0.0000000000000D+00  0.0000000000000D+00
304  3.0300000000000D+00  0.0000000000000D+00  0.0000000000000D+00
305  3.0400000000000D+00  0.0000000000000D+00  0.0000000000000D+00
306  3.0500000000000D+00  0.0000000000000D+00  0.0000000000000D+00
307  3.0600000000000D+00  0.0000000000000D+00  0.0000000000000D+00
308  3.0700000000000D+00  0.0000000000000D+00  0.0000000000000D+00
309  3.0800000000000D+00  0.0000000000000D+00  0.0000000000000D+00
310  3.0900000000000D+00  0.0000000000000D+00  0.0000000000000D+00
311  3.1000000000000D+00  0.0000000000000D+00  0.0000000000000D+00
312  3.1100000000000D+00  0.0000000000000D+00  0.0000000000000D+00
313  3.1200000000000D+00  0.0000000000000D+00  0.0000000000000D+00
314  3.1300000000000D+00  0.0000000000000D+00  0.0000000000000D+00
315  3.1400000000000D+00  0.0000000000000D+00  0.0000000000000D+00
316  3.1500000000000D+00  0.0000000000000D+00  0.0000000000000D+00
317  3.1600000000000D+00  0.0000000000000D+00  0.0000000000000D+00
318  3.1700000000000D+00  0.0000000000000D+00  0.0000000000000D+00
319  3.1800000000000D+00  0.0000000000000D+00  0.0000000000000D+00
320  3.1900000000000D+00  0.0000000000000D+00  0.0000000000000D+00
321  3.2000000000000D+00  0.0000000000000D+00  0.0000000000000D+00
322  3.2100000000000D+00  0.0000000000000D+00  0.0000000000000D+00
323  3.2200000000000D+00  0.0000000000000D+00  0.0000000000000D+00
324  3.2300000000000D+00  0.0000000000000D+00  0.0000000000000D+00
325  3.2400000000000D+00  0.0000000000000D+00  0.0000000000000D+00
326  3.2500000000000D+00  0.0000000000000D+00  0.0000000000000D+00
327  3.2600000000000D+00  0.0000000000000D+00  0.0000000000000D+00
328  3.2700000000000D+00  0.0000000000000D+00  0.0000000000000D+00
329  3.2800000000000D+00  0.0000000000000D+00  0.0000000000000D+00
330  3.2900000000000D+00  0.0000000000000D+00  0.0000000000000D+00
331  3.3000000000000D+00  0.0000000000000D+00  0.0000000000000D+00
332  3.3100000000000D+00  0.0000000000000D+00  0.0000000000000D+00
333  3.3200000000000D+00  0.0000000000000D+00  0.0000000000000D+00
334  3.3300000000000D+00  0.0000000000000D+00  0.0000000000000D+00
335  3.3400000000000D+00  0.0000000000000D+00  0.0000000000000D+00
336  3.3500000000000D+00  0.0000000000000D+00  0.0000000000000D+00
337  3.3600000000000D+00  0.0000000000000D+00  0.0000000000000D+00
338  3.3700000000000D+00  0.0000000000000D+00  0.0000000000000D+00
339  3.3800000000000D+00  0.0000000000000D+00  0.0000000000000D+00
340  3.3900000000000D+00  0.0000000000000D+00  0.0000000000000D+00
341  3.4000000000000D+00  0.0000000000000D+00  0.0000000000000D+00
342  3.4100000000000D+00  0.0000000000000D+00  0.0000000000000D+00
343  3.4200000000000D+00  0.0000000000000D+00  0.0000000000000D+00
344  3.4300000000000D+00  0.0000000000000D+00  0.0000000000000D+00
345  3.4400000000000D+00  0.0000000000000D+00  0.0000000000000D+00
346  3.4500000000000D+00  0.0000000000000D+00  0.0000000000000D+00
347  3.4600000000000D+00  0.0000000000000D+00  0.0000000000000D+00
348  3.4700000000000D+00  0.0000000000000D+00  0.0000000000000D+00
349  3.4800000000000D+00  0.0000000000000D+00  0.0000000000000D+00
350  3.4900000000000D+00  0.0000000000000D+00  0.0000000000000D+00
351  3.5000000000000D+00  0.0000000000000D+00  0.0000000000000D+00
352  3.5100000000000D+00  0.0000000000000D+00  0.0000000000000D+00
353  3.5200000000000D+00  0.0000000000000D+00  0.0000000000000D+00
354  3.5300000000000D+00  0.0000000000000D+00  0.0000000000000D+00
355  3.5400000000000D+00  0.0000000000000D+00  0.0000000000000D+00
356  3.5500000000000D+00  0.0000000000000D+00  0.0000000000000D+00
357  3.5600000000000D+00  0.0000000000000D+00  0.0000000000000D+00
358  3.5700000000000D+00  0.0000000000000D+00  0.0000000000000D+00
359  3.5800000000000D+00  0.0000000000000D+00  0.0000000000000D+00
360  3.5900000000000D+00  0.0000000000000D+00  0.0000000000000D+00
361  3.6000000000000D+00  0.0000000000000D+00  0.0000000000000D+00
362  3.6100000000000D+00  0.0000000000000D+00  0.0000000000000D+00
363  3.6200000000000D+00  0.0000000000000D+00  0.0000000000000D+00
364  3.6300000000000D+00  0.0000000000000D+00  0.0000000000000D+00
365  3.6400000000000D+00  0.0000000000000D+00  0.0000000000000D+00
366  3.6500000000000D+00  0.0000000000000D+00  0.0000000000000D+00
367  3.6600000000000D+00  0.0000000000000D+00  0.0000000000000D+00
368  3.6700000000000D+00  0.0000000000000D+00  0.0000000000000D+00
369  3.6800000000000D+00  0.0000000000000D+00  0.0000000000000D+00
370  3.6900000000000D+00  0.0000000000000D+00  0.0000000000000D+00
371  3.7000000000000D+00  0.0000000000000D+00  0.0000000000000D+00
372  3.7100000000000D+00  0.0000000000000D+00  0.0000000000000D+00
373  3.7200000000000D+00  0.0000000000000D+00  0.0000000000000D+00
374  3.7300000000000D+00  0.0000000000000D+00  0.0000000000000D+00
375  3.7400000000000D+00  0.0000000000000D+00  0.0000000000000D+00
376  3.7500000000000D+00  0.0000000000000D+00  0.0000000000000D+00
377  3.7600000000000D+00  0.0000000000000D+00  0.0000000000000D+00
378  3.7700000000000D+00  0.0000000000000D+00  0.0000000000000D+00
379  3.7800000000000D+00  0.0000000000000D+00  0.0000000000000D+00
380  3.7900000000000D+00  0.0000000000000D+00  0.0000000000000D+00
381  3.8000000000000D+00  0.0000000000000D+00  0.0000000000000D+00
382  3.8100000000000D+00  0.0000000000000D+00  0.0000000000000D+00
383  3.8200000000000D+00  0.0000000000000D+00  0.0000000000000D+00
384  3.8300000000000D+00  0.0000000000000D+00  0.0000000000000D+00
385  3.8400000000000D+00  0.0000000000000D+00  0.0000000000000D+00
386  3.8500000000000D+00  0.0000000000000D+00  0.0000000000000D+00
387  3.8600000000000D+00  0.0000000000000D+00  0.0000000000000D+00
388  3.8700000000000D+00  0.0000000000000D+00  0.0000000000000D+00
389  3.8800000000000D+00  0.0000000000000D+00  0.0000000000000D+00
390  3.8900000000000D+00  0.0000000000000D+00  0.0000000000000D+00
391  3.9000000000000D+00  0.0000000000000D+00  0.0000000000000D+00
392  3.9100000000000D+00  0.0000000000000D+00  0.0000000000000D+00
393  3.9200000000000D+00  0.0000000000000D+00  0.0000000000000D+00
394  3.9300000000000D+00  0.0000000000000D+00  0.0000000000000D+00
395  3.9400000000000D+00  0.0000000000000D+00  0.0000000000000D+00
396  3.9500000000000D+00  0.0000000000000D+00  0.0000000000000D+00
397  3.9600000000000D+00  0.0000000000000D+00  0.0000000000000D+00
398  3.9700000000000D+00  0.0000000000000D+00  0.0000000000000D+00
399  3.9800000000000D+00  0.0000000000000D+00  0.0000000000000D+00
400  3.9900000000000D+00  0.0000000000000D+00  0.0000000000000D+00
1                         4.0016834622806D+00  7.4007417583032D-01
1  0.0000000000000D+00  1.3406287191486D-10 -7.8362066835425D-11
2  1.0000000000000D-02  1.0573900490895D-03 -2.7212813670592D-04
3  2.0000000000000D-02  4.2245696765646D-03 -1.0856792547931D-03
4  3.0000000000000D-02  9.4865897955487D-03 -2.4321684985970D-03
5  4.0000000000000D-02  1.6818610105072D-02 -4.2975044744650D-03
6  5.0000000000000D-02  2.6186011129721D-02 -6.6620641742771D-03
7  6.0000000000000D-02  3.7544550621783D-02 -9.5007976164054D-03
8  7.0000000000000D-02  5.0840563869878D-02 -1.2783361948420D-02
9  8.0000000000000D-02  6.6011207324052D-02 -1.6474284677484D-02
10  9.0000000000000D-02  8.2984744810649D-02 -2.0533155612297D-02
11  1.0000000000000D-01  1.0168087547057D-01 -2.4914847013847D-02
12  1.1000000000000D-01  1.2201110241143D-01 -2.9569761360649D-02
13  1.2000000000000D-01  1.4387914091731D-01 -3.4444106037048D-02
14  1.3000000000000D-01  1.6718136490950D-01 -3.9480194150348D-02
15  1.4000000000000D-01  1.9180729019728D-01 -4.4616770573624D-02
16  1.5000000000000D-01  2.1764009290018D-01 -4.9789362196305D-02
17  1.6000000000000D-01  2.4455716126242D-01 -5.4930651243854D-02
18  1.7000000000000D-01  2.7243067891605D-01 -5.9970870401672D-02
19  1.8000000000000D-01  3.0112823748419D-01 -6.4838218346903D-02
20  1.9000000000000D-01  3.3051347624798D-01 -6.9459294156075D-02
21  2.0000000000000D-01  3.6044674643348D-01 -7.3759548916934D-02
22  2.1000000000000D-01  3.9078579750769D-01 -7.7663752730684D-02
23  2.2000000000000D-01  4.2138648270764D-01 -8.1096475147071D-02
24  2.3000000000000D-01  4.5210348086430D-01 -8.3982576930666D-02
25  2.4000000000000D-01  4.8279103142576D-01 -8.6247710913731D-02
26  2.5000000000000D-01  5.1330367943277D-01 -8.7818829550761D-02
27  2.6000000000000D-01  5.4349702705610D-01 -8.8624696653678D-02
28  2.7000000000000D-01  5.7322848817155D-01 -8.8596400656658D-02
29  2.8000000000000D-01  6.0235804232538D-01 -8.7667866637288D-02
30  2.9000000000000D-01  6.3074898433381D-01 -8.5776364208181D-02
31  3.0000000000000D-01  6.5826866566552D-01 -8.2863008292105D-02
32  3.1000000000000D-01  6.8478922367812D-01 -7.8873249706067D-02
33  3.2000000000000D-01  7.1018829472063D-01 -7.3757352407420D-02
34  3.3000000000000D-01  7.3434970707458D-01 -6.7470854199842D-02
35  3.4000000000000D-01  7.5716414968963D-01 -5.9975007660625D-02
36  3.5000000000000D-01  7.7852981267532D-01 -5.1237198034878D-02
37  3.6000000000000D-01  7.9835299554222D-01 -4.1231334848409D-02
38  3.7000000000000D-01  8.1654867924236D-01 -2.9938214020723D-02
39  3.8000000000000D-01  8.3304105814316D-01 -1.7345847313903D-02
40  3.9000000000000D-01  8.4776402818147D-01 -3.4497560332084D-03
41  4.0000000000000D-01  8.6066162758473D-01  1.1746773998122D-02
42  4.1000000000000D-01  8.7168842671634D-01  2.8232479033593D-02
43  4.2000000000000D-01  8.8080986380130D-01  4.5987948249999D-02