Ar    ONCVPSP  r_core=  1.56  1.56  1.56
18.0000      8.0000      160518    zatom,zion,pspd
8      11   2     4   400     0    pspcod,pspxc,lmax,lloc,mmax,r2well
3.99000000  7.00000000  0.00000000    rchrg fchrg qchrg
2     3     2     0    nproj
2                 extension_switch
4     3     0    nprojso
0                         4.2158283461733D-01  8.4511112200682D+00
1  0.0000000000000D+00  5.1532533795751D-10 -8.6142593058725D-11
2  1.0000000000000D-02 -3.5909752777935D-02  6.2668202601667D-02
3  2.0000000000000D-02 -7.1648256605101D-02  1.2522017996961D-01
4  3.0000000000000D-02 -1.0704534763676D-01  1.8754006870464D-01
5  4.0000000000000D-02 -1.4193302124686D-01  2.4951272688639D-01
6  5.0000000000000D-02 -1.7614648428685D-01  3.1102408935916D-01
7  6.0000000000000D-02 -2.0952517489406D-01  3.7196151653558D-01
8  7.0000000000000D-02 -2.4191373964510D-01  4.3221413465926D-01
9  8.0000000000000D-02 -2.7316295836498D-01  4.9167316555445D-01
10  9.0000000000000D-02 -3.0313060753393D-01  5.5023224399570D-01
11  1.0000000000000D-01 -3.3168225397489D-01  6.0778772095497D-01
12  1.1000000000000D-01 -3.5869197134510D-01  6.6423895112430D-01
13  1.2000000000000D-01 -3.8404297288450D-01  7.1948856326799D-01
14  1.3000000000000D-01 -4.0762815488156D-01  7.7344271212756D-01
15  1.4000000000000D-01 -4.2935054638958D-01  8.2601131078313D-01
16  1.5000000000000D-01 -4.4912366185178D-01  8.7710824256450D-01
17  1.6000000000000D-01 -4.6687175445544D-01  9.2665155180119D-01
18  1.7000000000000D-01 -4.8252996922287D-01  9.7456361290214D-01
19  1.8000000000000D-01 -4.9604439604071D-01  1.0207712774579D+00
20  1.9000000000000D-01 -5.0737202401960D-01  1.0652059992612D+00
21  2.0000000000000D-01 -5.1648059974280D-01  1.1078039373421D+00
22  2.1000000000000D-01 -5.2334839309615D-01  1.1485060373067D+00
23  2.2000000000000D-01 -5.2796387545340D-01  1.1872580914589D+00
24  2.3000000000000D-01 -5.3032531601114D-01  1.2240107783594D+00
25  2.4000000000000D-01 -5.3044030301045D-01  1.2587196826439D+00
26  2.5000000000000D-01 -5.2832519743742D-01  1.2913452960758D+00
27  2.6000000000000D-01 -5.2400452755128D-01  1.3218530009427D+00
28  2.7000000000000D-01 -5.1751033323616D-01  1.3502130370311D+00
29  2.8000000000000D-01 -5.0888146970420D-01  1.3764004535113D+00
30  2.9000000000000D-01 -4.9816288048416D-01  1.4003950471504D+00
31  3.0000000000000D-01 -4.8540484990858D-01  1.4221812883336D+00
32  3.1000000000000D-01 -4.7066224545855D-01  1.4417482364137D+00
33  3.2000000000000D-01 -4.5399376033561D-01  1.4590894459334D+00
34  3.3000000000000D-01 -4.3546116650681D-01  1.4742028652612D+00
35  3.4000000000000D-01 -4.1512858821137D-01  1.4870907291637D+00
36  3.5000000000000D-01 -3.9306180552897D-01  1.4977594467918D+00
37  3.6000000000000D-01 -3.6932759709552D-01  1.5062194865020D+00
38  3.7000000000000D-01 -3.4399313041898D-01  1.5124852588497D+00
39  3.8000000000000D-01 -3.1712540750123D-01  1.5165749989965D+00
40  3.9000000000000D-01 -2.8879077262548D-01  1.5185106496594D+00
41  4.0000000000000D-01 -2.5905448822722D-01  1.5183177456045D+00
42  4.1000000000000D-01 -2.2798038374838D-01  1.5160253005441D+00
43  4.2000000000000D-01 -1.9563058128681D-01  1.5116656971505D+00
44  4.3000000000000D-01 -1.6206530071359D-01  1.5052745807392D+00
45  4.4000000000000D-01 -1.2734274575203D-01  1.4968907570108D+00
46  4.5000000000000D-01 -9.1519071310531D-02  1.4865560940754D+00
47  4.6000000000000D-01 -5.4648431152245D-02  1.4743154288120D+00
48  4.7000000000000D-01 -1.6783103782257D-02  1.4602164774530D+00
49  4.8000000000000D-01  2.2026306744335D-02  1.4443097501184D+00
50  4.9000000000000D-01  6.1730599528624D-02  1.4266484688686D+00
51  5.0000000000000D-01  1.0228164056741D-01  1.4072884887007D+00
52  5.1000000000000D-01  1.4363196806027D-01  1.3862882207718D+00
53  5.2000000000000D-01  1.8573434674998D-01  1.3637085570141D+00
54  5.3000000000000D-01  2.2854127959838D-01  1.3396127951974D+00
55  5.4000000000000D-01  2.7200448582878D-01  1.3140665634032D+00
56  5.5000000000000D-01  3.1607435497619D-01  1.2871377428007D+00
57  5.6000000000000D-01  3.6069938707126D-01  1.2588963875665D+00
58  5.7000000000000D-01  4.0582562943220D-01  1.2294146407515D+00
59  5.8000000000000D-01  4.5139612074930D-01  1.1987666448931D+00
60  5.9000000000000D-01  4.9735035321020D-01  1.1670284461788D+00
61  6.0000000000000D-01  5.4362376333297D-01  1.1342778910030D+00
62  6.1000000000000D-01  5.9014726194540D-01  1.1005945138126D+00
63  6.2000000000000D-01  6.3684681337376D-01  1.0660594152158D+00
64  6.3000000000000D-01  6.8364307338756D-01  1.0307551294271D+00
65  6.4000000000000D-01  7.3045109479481D-01  9.9476548023713D-01
66  6.5000000000000D-01  7.7718010879589D-01  9.5817542483761D-01
67  6.6000000000000D-01  8.2373338929987D-01  9.2107088498101D-01
68  6.7000000000000D-01  8.7000820639331D-01  8.8353856512756D-01
69  6.8000000000000D-01  9.1589587403193D-01  8.4566575741323D-01
70  6.9000000000000D-01  9.6128189582569D-01  8.0754013346676D-01
71  7.0000000000000D-01  1.0060462115186D+00  7.6924952330533D-01
72  7.1000000000000D-01  1.0500635454307D+00  7.3088168174750D-01
73  7.2000000000000D-01  1.0932038567641D+00  6.9252404299287D-01
74  7.3000000000000D-01  1.1353328902852D+00  6.5426346422974D-01
75  7.4000000000000D-01  1.1763128244977D+00  6.1618595934155D-01
76  7.5000000000000D-01  1.2160030130437D+00  5.7837642398581D-01
77  7.6000000000000D-01  1.2542608137131D+00  5.4091835351570D-01
78  7.7000000000000D-01  1.2909424981443D+00  5.0389355539829D-01
79  7.8000000000000D-01  1.3259042340605D+00  4.6738185795372D-01
80  7.9000000000000D-01  1.3590031307330D+00  4.3146081739374D-01
81  8.0000000000000D-01  1.3900983373078D+00  3.9620542527293D-01
82  8.1000000000000D-01  1.4190521826907D+00  3.6168781857973D-01
83  8.2000000000000D-01  1.4457313448693D+00  3.2797699478481D-01
84  8.3000000000000D-01  1.4700080368753D+00  2.9513853423012D-01
85  8.4000000000000D-01  1.4917611960630D+00  2.6323433228071D-01
86  8.5000000000000D-01  1.5108776630104D+00  2.3232234367315D-01
87  8.6000000000000D-01  1.5272533361464D+00  2.0245634147705D-01
88  8.7000000000000D-01  1.5407942881690D+00  1.7368569304041D-01
89  8.8000000000000D-01  1.5514178304628D+00  1.4605515521396D-01
90  8.9000000000000D-01  1.5590535120295D+00  1.1960469104588D-01
91  9.0000000000000D-01  1.5636440399296D+00  9.4369310005575D-02
92  9.1000000000000D-01  1.5651461088848D+00  7.0378933635267D-02
93  9.2000000000000D-01  1.5635311285003D+00  4.7658288342228D-02
94  9.3000000000000D-01  1.5587858375342D+00  2.6226826833996D-02
95  9.4000000000000D-01  1.5509127957526D+00  6.0986794657881D-03
96  9.5000000000000D-01  1.5399307451492D+00 -1.2717363483722D-02
97  9.6000000000000D-01  1.5258748336755D+00 -3.0217837862982D-02
98  9.7000000000000D-01  1.5087966960857D+00 -4.6404559564493D-02
99  9.8000000000000D-01  1.4887643880647D+00 -6.1284546146609D-02
100  9.9000000000000D-01  1.4658621714252D+00 -7.4869906304060D-02
101  1.0000000000000D+00  1.4401901498062D+00 -8.7177697637474D-02
102  1.0100000000000D+00  1.4118637560577D+00 -9.8229753493343D-02
103  1.0200000000000D+00  1.3810130941644D+00 -1.0805247994836D-01
104  1.0300000000000D+00  1.3477821402791D+00 -1.1667662431945D-01
105  1.0400000000000D+00  1.3123278090949D+00 -1.2413701687459D-01
106  1.0500000000000D+00  1.2748188934465D+00 -1.3047228770853D-01
107  1.0600000000000D+00  1.2354348864411D+00 -1.3572456099134D-01
108  1.0700000000000D+00  1.1943646970498D+00 -1.3993912907396D-01
109  1.0800000000000D+00  1.1518052712893D+00 -1.4316410913380D-01
110  1.0900000000000D+00  1.1079601323866D+00 -1.4545008525011D-01
111  1.1000000000000D+00  1.0630378543814D+00 -1.4684973896495D-01
112  1.1100000000000D+00  1.0172504844520D+00 -1.4741747151452D-01
113  1.1200000000000D+00  9.7081193010890D-01 -1.4720902103740D-01
114  1.1300000000000D+00  9.2393632783482D-01 -1.4628107811984D-01
115  1.1400000000000D+00  8.7683641011662D-01 -1.4469090306949D-01
116  1.1500000000000D+00  8.2972188799884D-01 -1.4249594832031D-01
117  1.1600000000000D+00  7.8279786623706D-01 -1.3975348931879D-01
118  1.1700000000000D+00  7.3626330784233D-01 -1.3652026716505D-01
119  1.1800000000000D+00  6.9030956425962D-01 -1.3285214614653D-01
120  1.1900000000000D+00  6.4511898706812D-01 -1.2880378921458D-01
121  1.2000000000000D+00  6.0086363588398D-01 -1.2442835419176D-01
122  1.2100000000000D+00  5.5770409610642D-01 -1.1977721328484D-01
123  1.2200000000000D+00  5.1578841933367D-01 -1.1489969830720D-01
124  1.2300000000000D+00  4.7525119753981D-01 -1.0984287366248D-01
125  1.2400000000000D+00  4.3621278039584D-01 -1.0465133880542D-01
126  1.2500000000000D+00  3.9877864386479D-01 -9.9367061649851D-02
127  1.2600000000000D+00  3.6303891655690D-01 -9.4029244069389D-02
128  1.2700000000000D+00  3.2906806750839D-01 -8.8674220094431D-02
129  1.2800000000000D+00  2.9692475799188D-01 -8.3335387208588D-02
130  1.2900000000000D+00  2.6665185829255D-01 -7.8043170823615D-02
131  1.3000000000000D+00  2.3827662668634D-01 -7.2825021314394D-02
132  1.3100000000000D+00  2.1181104757278D-01 -6.7705442943577D-02
133  1.3200000000000D+00  1.8725232347138D-01 -6.2706053579587D-02
134  1.3300000000000D+00  1.6458351185080D-01 -5.7845673417088D-02
135  1.3400000000000D+00  1.4377429858260D-01 -5.3140441062050D-02
136  1.3500000000000D+00  1.2478189623177D-01 -4.8603954675903D-02
137  1.3600000000000D+00  1.0755205307077D-01 -4.4247435450860D-02
138  1.3700000000000D+00  9.2020160169293D-02 -4.0079910953317D-02
139  1.3800000000000D+00  7.8112438653188D-02 -3.6108414909871D-02
140  1.3900000000000D+00  6.5747190617922D-02 -3.2338200271267D-02
141  1.4000000000000D+00  5.4836095791687D-02 -2.8772962128065D-02
142  1.4100000000000D+00  4.5285533620226D-02 -2.5415066627882D-02
143  1.4200000000000D+00  3.6997912181108D-02 -2.2265782349193D-02
144  1.4300000000000D+00  2.9872982603959D-02 -1.9325510104406D-02
145  1.4400000000000D+00  2.3809119522599D-02 -1.6594007491511D-02
146  1.4500000000000D+00  1.8704546002948D-02 -1.4070604119160D-02
147  1.4600000000000D+00  1.4458476906141D-02 -1.1754403136840D-02
148  1.4700000000000D+00  1.0972203426438D-02 -9.6444702325703D-03
149  1.4800000000000D+00  8.1499287923175D-03 -7.7399862030726D-03
150  1.4900000000000D+00  5.8999143443413D-03 -6.0404296679360D-03
151  1.5000000000000D+00  4.1348964546943D-03 -4.5456604726736D-03
152  1.5100000000000D+00  2.7713917104907D-03 -3.2559941238619D-03
153  1.5200000000000D+00  1.7341070644823D-03 -2.1728725726423D-03
154  1.5300000000000D+00  9.5821169965130D-04 -1.2946211198239D-03
155  1.5400000000000D+00  3.9849065752999D-04 -6.2946806173849D-04
156  1.5500000000000D+00  2.7769314791851D-05 -1.9809149271357D-04
157  1.5600000000000D+00 -1.5617310408923D-04  1.1702628555925D-05
158  1.5700000000000D+00 -1.4237494272372D-04  5.2319962295505D-05
159  1.5800000000000D+00 -2.8349476198316D-05  1.2334365205175D-05
160  1.5900000000000D+00  2.4109100343058D-05 -1.1107526813249D-05
161  1.6000000000000D+00  5.5650529893660D-06 -2.6648622992131D-06
162  1.6100000000000D+00 -5.1866664837800D-06  2.2220195636612D-06
163  1.6200000000000D+00 -7.2429809586227D-07  3.1640908653849D-07
164  1.6300000000000D+00  4.9896423256993D-07 -1.2712382341112D-07
165  1.6400000000000D+00  3.0270668241224D-08 -7.7122223054224D-09
166  1.6500000000000D+00  0.0000000000000D+00  0.0000000000000D+00
167  1.6600000000000D+00  0.0000000000000D+00  0.0000000000000D+00
168  1.6700000000000D+00  0.0000000000000D+00  0.0000000000000D+00
169  1.6800000000000D+00  0.0000000000000D+00  0.0000000000000D+00
170  1.6900000000000D+00  0.0000000000000D+00  0.0000000000000D+00
171  1.7000000000000D+00  0.0000000000000D+00  0.0000000000000D+00
172  1.7100000000000D+00  0.0000000000000D+00  0.0000000000000D+00
173  1.7200000000000D+00  0.0000000000000D+00  0.0000000000000D+00
174  1.7300000000000D+00  0.0000000000000D+00  0.0000000000000D+00
175  1.7400000000000D+00  0.0000000000000D+00  0.0000000000000D+00
176  1.7500000000000D+00  0.0000000000000D+00  0.0000000000000D+00
177  1.7600000000000D+00  0.0000000000000D+00  0.0000000000000D+00
178  1.7700000000000D+00  0.0000000000000D+00  0.0000000000000D+00
179  1.7800000000000D+00  0.0000000000000D+00  0.0000000000000D+00
180  1.7900000000000D+00  0.0000000000000D+00  0.0000000000000D+00
181  1.8000000000000D+00  0.0000000000000D+00  0.0000000000000D+00
182  1.8100000000000D+00  0.0000000000000D+00  0.0000000000000D+00
183  1.8200000000000D+00  0.0000000000000D+00  0.0000000000000D+00
184  1.8300000000000D+00  0.0000000000000D+00  0.0000000000000D+00
185  1.8400000000000D+00  0.0000000000000D+00  0.0000000000000D+00
186  1.8500000000000D+00  0.0000000000000D+00  0.0000000000000D+00
187  1.8600000000000D+00  0.0000000000000D+00  0.0000000000000D+00
188  1.8700000000000D+00  0.0000000000000D+00  0.0000000000000D+00
189  1.8800000000000D+00  0.0000000000000D+00  0.0000000000000D+00
190  1.8900000000000D+00  0.0000000000000D+00  0.0000000000000D+00
191  1.9000000000000D+00  0.0000000000000D+00  0.0000000000000D+00
192  1.9100000000000D+00  0.0000000000000D+00  0.0000000000000D+00
193  1.9200000000000D+00  0.0000000000000D+00  0.0000000000000D+00
194  1.9300000000000D+00  0.0000000000000D+00  0.0000000000000D+00
195  1.9400000000000D+00  0.0000000000000D+00  0.0000000000000D+00
196  1.9500000000000D+00  0.0000000000000D+00  0.0000000000000D+00
197  1.9600000000000D+00  0.0000000000000D+00  0.0000000000000D+00
198  1.9700000000000D+00  0.0000000000000D+00  0.0000000000000D+00
199  1.9800000000000D+00  0.0000000000000D+00  0.0000000000000D+00
200  1.9900000000000D+00  0.0000000000000D+00  0.0000000000000D+00
201  2.0000000000000D+00  0.0000000000000D+00  0.0000000000000D+00
202  2.0100000000000D+00  0.0000000000000D+00  0.0000000000000D+00
203  2.0200000000000D+00  0.0000000000000D+00  0.0000000000000D+00
204  2.0300000000000D+00  0.0000000000000D+00  0.0000000000000D+00
205  2.0400000000000D+00  0.0000000000000D+00  0.0000000000000D+00
206  2.0500000000000D+00  0.0000000000000D+00  0.0000000000000D+00
207  2.0600000000000D+00  0.0000000000000D+00  0.0000000000000D+00
208  2.0700000000000D+00  0.0000000000000D+00  0.0000000000000D+00
209  2.0800000000000D+00  0.0000000000000D+00  0.0000000000000D+00
210  2.0900000000000D+00  0.0000000000000D+00  0.0000000000000D+00
211  2.1000000000000D+00  0.0000000000000D+00  0.0000000000000D+00
212  2.1100000000000D+00  0.0000000000000D+00  0.0000000000000D+00
213  2.1200000000000D+00  0.0000000000000D+00  0.0000000000000D+00
214  2.1300000000000D+00  0.0000000000000D+00  0.0000000000000D+00
215  2.1400000000000D+00  0.0000000000000D+00  0.0000000000000D+00
216  2.1500000000000D+00  0.0000000000000D+00  0.0000000000000D+00
217  2.1600000000000D+00  0.0000000000000D+00  0.0000000000000D+00
218  2.1700000000000D+00  0.0000000000000D+00  0.0000000000000D+00
219  2.1800000000000D+00  0.0000000000000D+00  0.0000000000000D+00
220  2.1900000000000D+00  0.0000000000000D+00  0.0000000000000D+00
221  2.2000000000000D+00  0.0000000000000D+00  0.0000000000000D+00
222  2.2100000000000D+00  0.0000000000000D+00  0.0000000000000D+00
223  2.2200000000000D+00  0.0000000000000D+00  0.0000000000000D+00
224  2.2300000000000D+00  0.0000000000000D+00  0.0000000000000D+00
225  2.2400000000000D+00  0.0000000000000D+00  0.0000000000000D+00
226  2.2500000000000D+00  0.0000000000000D+00  0.0000000000000D+00
227  2.2600000000000D+00  0.0000000000000D+00  0.0000000000000D+00
228  2.2700000000000D+00  0.0000000000000D+00  0.0000000000000D+00
229  2.2800000000000D+00  0.0000000000000D+00  0.0000000000000D+00
230  2.2900000000000D+00  0.0000000000000D+00  0.0000000000000D+00
231  2.3000000000000D+00  0.0000000000000D+00  0.0000000000000D+00
232  2.3100000000000D+00  0.0000000000000D+00  0.0000000000000D+00
233  2.3200000000000D+00  0.0000000000000D+00  0.0000000000000D+00
234  2.3300000000000D+00  0.0000000000000D+00  0.0000000000000D+00
235  2.3400000000000D+00  0.0000000000000D+00  0.0000000000000D+00
236  2.3500000000000D+00  0.0000000000000D+00  0.0000000000000D+00
237  2.3600000000000D+00  0.0000000000000D+00  0.0000000000000D+00
238  2.3700000000000D+00  0.0000000000000D+00  0.0000000000000D+00
239  2.3800000000000D+00  0.0000000000000D+00  0.0000000000000D+00
240  2.3900000000000D+00  0.0000000000000D+00  0.0000000000000D+00
241  2.4000000000000D+00  0.0000000000000D+00  0.0000000000000D+00
242  2.4100000000000D+00  0.0000000000000D+00  0.0000000000000D+00
243  2.4200000000000D+00  0.0000000000000D+00  0.0000000000000D+00
244  2.4300000000000D+00  0.0000000000000D+00  0.0000000000000D+00
245  2.4400000000000D+00  0.0000000000000D+00  0.0000000000000D+00
246  2.4500000000000D+00  0.0000000000000D+00  0.0000000000000D+00
247  2.4600000000000D+00  0.0000000000000D+00  0.0000000000000D+00
248  2.4700000000000D+00  0.0000000000000D+00  0.0000000000000D+00
249  2.4800000000000D+00  0.0000000000000D+00  0.0000000000000D+00
250  2.4900000000000D+00  0.0000000000000D+00  0.0000000000000D+00
251  2.5000000000000D+00  0.0000000000000D+00  0.0000000000000D+00
252  2.5100000000000D+00  0.0000000000000D+00  0.0000000000000D+00
253  2.5200000000000D+00  0.0000000000000D+00  0.0000000000000D+00
254  2.5300000000000D+00  0.0000000000000D+00  0.0000000000000D+00
255  2.5400000000000D+00  0.0000000000000D+00  0.0000000000000D+00
256  2.5500000000000D+00  0.0000000000000D+00  0.0000000000000D+00
257  2.5600000000000D+00  0.0000000000000D+00  0.0000000000000D+00
258  2.5700000000000D+00  0.0000000000000D+00  0.0000000000000D+00
259  2.5800000000000D+00  0.0000000000000D+00  0.0000000000000D+00
260  2.5900000000000D+00  0.0000000000000D+00  0.0000000000000D+00
261  2.6000000000000D+00  0.0000000000000D+00  0.0000000000000D+00
262  2.6100000000000D+00  0.0000000000000D+00  0.0000000000000D+00
263  2.6200000000000D+00  0.0000000000000D+00  0.0000000000000D+00
264  2.6300000000000D+00  0.0000000000000D+00  0.0000000000000D+00
265  2.6400000000000D+00  0.0000000000000D+00  0.0000000000000D+00
266  2.6500000000000D+00  0.0000000000000D+00  0.0000000000000D+00
267  2.6600000000000D+00  0.0000000000000D+00  0.0000000000000D+00
268  2.6700000000000D+00  0.0000000000000D+00  0.0000000000000D+00
269  2.6800000000000D+00  0.0000000000000D+00  0.0000000000000D+00
270  2.6900000000000D+00  0.0000000000000D+00  0.0000000000000D+00
271  2.7000000000000D+00  0.0000000000000D+00  0.0000000000000D+00
272  2.7100000000000D+00  0.0000000000000D+00  0.0000000000000D+00
273  2.7200000000000D+00  0.0000000000000D+00  0.0000000000000D+00
274  2.7300000000000D+00  0.0000000000000D+00  0.0000000000000D+00
275  2.7400000000000D+00  0.0000000000000D+00  0.0000000000000D+00
276  2.7500000000000D+00  0.0000000000000D+00  0.0000000000000D+00
277  2.7600000000000D+00  0.0000000000000D+00  0.0000000000000D+00
278  2.7700000000000D+00  0.0000000000000D+00  0.0000000000000D+00
279  2.7800000000000D+00  0.0000000000000D+00  0.0000000000000D+00
280  2.7900000000000D+00  0.0000000000000D+00  0.0000000000000D+00
281  2.8000000000000D+00  0.0000000000000D+00  0.0000000000000D+00
282  2.8100000000000D+00  0.0000000000000D+00  0.0000000000000D+00
283  2.8200000000000D+00  0.0000000000000D+00  0.0000000000000D+00
284  2.8300000000000D+00  0.0000000000000D+00  0.0000000000000D+00
285  2.8400000000000D+00  0.0000000000000D+00  0.0000000000000D+00
286  2.8500000000000D+00  0.0000000000000D+00  0.0000000000000D+00
287  2.8600000000000D+00  0.0000000000000D+00  0.0000000000000D+00
288  2.8700000000000D+00  0.0000000000000D+00  0.0000000000000D+00
289  2.8800000000000D+00  0.0000000000000D+00  0.0000000000000D+00
290  2.8900000000000D+00  0.0000000000000D+00  0.0000000000000D+00
291  2.9000000000000D+00  0.0000000000000D+00  0.0000000000000D+00
292  2.9100000000000D+00  0.0000000000000D+00  0.0000000000000D+00
293  2.9200000000000D+00  0.0000000000000D+00  0.0000000000000D+00
294  2.9300000000000D+00  0.0000000000000D+00  0.0000000000000D+00
295  2.9400000000000D+00  0.0000000000000D+00  0.0000000000000D+00
296  2.9500000000000D+00  0.0000000000000D+00  0.0000000000000D+00
297  2.9600000000000D+00  0.0000000000000D+00  0.0000000000000D+00
298  2.9700000000000D+00  0.0000000000000D+00  0.0000000000000D+00
299  2.9800000000000D+00  0.0000000000000D+00  0.0000000000000D+00
300  2.9900000000000D+00  0.0000000000000D+00  0.0000000000000D+00
301  3.0000000000000D+00  0.0000000000000D+00  0.0000000000000D+00
302  3.0100000000000D+00  0.0000000000000D+00  0.0000000000000D+00
303  3.0200000000000D+00  0.0000000000000D+00  0.0000000000000D+00
304  3.0300000000000D+00  0.0000000000000D+00  0.0000000000000D+00
305  3.0400000000000D+00  0.0000000000000D+00  0.0000000000000D+00
306  3.0500000000000D+00  0.0000000000000D+00  0.0000000000000D+00
307  3.0600000000000D+00  0.0000000000000D+00  0.0000000000000D+00
308  3.0700000000000D+00  0.0000000000000D+00  0.0000000000000D+00
309  3.0800000000000D+00  0.0000000000000D+00  0.0000000000000D+00
310  3.0900000000000D+00  0.0000000000000D+00  0.0000000000000D+00
311  3.1000000000000D+00  0.0000000000000D+00  0.0000000000000D+00
312  3.1100000000000D+00  0.0000000000000D+00  0.0000000000000D+00
313  3.1200000000000D+00  0.0000000000000D+00  0.0000000000000D+00
314  3.1300000000000D+00  0.0000000000000D+00  0.0000000000000D+00
315  3.1400000000000D+00  0.0000000000000D+00  0.0000000000000D+00
316  3.1500000000000D+00  0.0000000000000D+00  0.0000000000000D+00
317  3.1600000000000D+00  0.0000000000000D+00  0.0000000000000D+00
318  3.1700000000000D+00  0.0000000000000D+00  0.0000000000000D+00
319  3.1800000000000D+00  0.0000000000000D+00  0.0000000000000D+00
320  3.1900000000000D+00  0.0000000000000D+00  0.0000000000000D+00
321  3.2000000000000D+00  0.0000000000000D+00  0.0000000000000D+00
322  3.2100000000000D+00  0.0000000000000D+00  0.0000000000000D+00
323  3.2200000000000D+00  0.0000000000000D+00  0.0000000000000D+00
324  3.2300000000000D+00  0.0000000000000D+00  0.0000000000000D+00
325  3.2400000000000D+00  0.0000000000000D+00  0.0000000000000D+00
326  3.2500000000000D+00  0.0000000000000D+00  0.0000000000000D+00
327  3.2600000000000D+00  0.0000000000000D+00  0.0000000000000D+00
328  3.2700000000000D+00  0.0000000000000D+00  0.0000000000000D+00
329  3.2800000000000D+00  0.0000000000000D+00  0.0000000000000D+00
330  3.2900000000000D+00  0.0000000000000D+00  0.0000000000000D+00
331  3.3000000000000D+00  0.0000000000000D+00  0.0000000000000D+00
332  3.3100000000000D+00  0.0000000000000D+00  0.0000000000000D+00
333  3.3200000000000D+00  0.0000000000000D+00  0.0000000000000D+00
334  3.3300000000000D+00  0.0000000000000D+00  0.0000000000000D+00
335  3.3400000000000D+00  0.0000000000000D+00  0.0000000000000D+00
336  3.3500000000000D+00  0.0000000000000D+00  0.0000000000000D+00
337  3.3600000000000D+00  0.0000000000000D+00  0.0000000000000D+00
338  3.3700000000000D+00  0.0000000000000D+00  0.0000000000000D+00
339  3.3800000000000D+00  0.0000000000000D+00  0.0000000000000D+00
340  3.3900000000000D+00  0.0000000000000D+00  0.0000000000000D+00
341  3.4000000000000D+00  0.0000000000000D+00  0.0000000000000D+00
342  3.4100000000000D+00  0.0000000000000D+00  0.0000000000000D+00
343  3.4200000000000D+00  0.0000000000000D+00  0.0000000000000D+00
344  3.4300000000000D+00  0.0000000000000D+00  0.0000000000000D+00
345  3.4400000000000D+00  0.0000000000000D+00  0.0000000000000D+00
346  3.4500000000000D+00  0.0000000000000D+00  0.0000000000000D+00
347  3.4600000000000D+00  0.0000000000000D+00  0.0000000000000D+00
348  3.4700000000000D+00  0.0000000000000D+00  0.0000000000000D+00
349  3.4800000000000D+00  0.0000000000000D+00  0.0000000000000D+00
350  3.4900000000000D+00  0.0000000000000D+00  0.0000000000000D+00
351  3.5000000000000D+00  0.0000000000000D+00  0.0000000000000D+00
352  3.5100000000000D+00  0.0000000000000D+00  0.0000000000000D+00
353  3.5200000000000D+00  0.0000000000000D+00  0.0000000000000D+00
354  3.5300000000000D+00  0.0000000000000D+00  0.0000000000000D+00
355  3.5400000000000D+00  0.0000000000000D+00  0.0000000000000D+00
356  3.5500000000000D+00  0.0000000000000D+00  0.0000000000000D+00
357  3.5600000000000D+00  0.0000000000000D+00  0.0000000000000D+00
358  3.5700000000000D+00  0.0000000000000D+00  0.0000000000000D+00
359  3.5800000000000D+00  0.0000000000000D+00  0.0000000000000D+00
360  3.5900000000000D+00  0.0000000000000D+00  0.0000000000000D+00
361  3.6000000000000D+00  0.0000000000000D+00  0.0000000000000D+00
362  3.6100000000000D+00  0.0000000000000D+00  0.0000000000000D+00
363  3.6200000000000D+00  0.0000000000000D+00  0.0000000000000D+00
364  3.6300000000000D+00  0.0000000000000D+00  0.0000000000000D+00
365  3.6400000000000D+00  0.0000000000000D+00  0.0000000000000D+00
366  3.6500000000000D+00  0.0000000000000D+00  0.0000000000000D+00
367  3.6600000000000D+00  0.0000000000000D+00  0.0000000000000D+00
368  3.6700000000000D+00  0.0000000000000D+00  0.0000000000000D+00
369  3.6800000000000D+00  0.0000000000000D+00  0.0000000000000D+00
370  3.6900000000000D+00  0.0000000000000D+00  0.0000000000000D+00
371  3.7000000000000D+00  0.0000000000000D+00  0.0000000000000D+00
372  3.7100000000000D+00  0.0000000000000D+00  0.0000000000000D+00
373  3.7200000000000D+00  0.0000000000000D+00  0.0000000000000D+00
374  3.7300000000000D+00  0.0000000000000D+00  0.0000000000000D+00
375  3.7400000000000D+00  0.0000000000000D+00  0.0000000000000D+00
376  3.7500000000000D+00  0.0000000000000D+00  0.0000000000000D+00
377  3.7600000000000D+00  0.0000000000000D+00  0.0000000000000D+00
378  3.7700000000000D+00  0.0000000000000D+00  0.0000000000000D+00
379  3.7800000000000D+00  0.0000000000000D+00  0.0000000000000D+00
380  3.7900000000000D+00  0.0000000000000D+00  0.0000000000000D+00
381  3.8000000000000D+00  0.0000000000000D+00  0.0000000000000D+00
382  3.8100000000000D+00  0.0000000000000D+00  0.0000000000000D+00
383  3.8200000000000D+00  0.0000000000000D+00  0.0000000000000D+00
384  3.8300000000000D+00  0.0000000000000D+00  0.0000000000000D+00
385  3.8400000000000D+00  0.0000000000000D+00  0.0000000000000D+00
386  3.8500000000000D+00  0.0000000000000D+00  0.0000000000000D+00
387  3.8600000000000D+00  0.0000000000000D+00  0.0000000000000D+00
388  3.8700000000000D+00  0.0000000000000D+00  0.0000000000000D+00
389  3.8800000000000D+00  0.0000000000000D+00  0.0000000000000D+00
390  3.8900000000000D+00  0.0000000000000D+00  0.0000000000000D+00
391  3.9000000000000D+00  0.0000000000000D+00  0.0000000000000D+00
392  3.9100000000000D+00  0.0000000000000D+00  0.0000000000000D+00
393  3.9200000000000D+00  0.0000000000000D+00  0.0000000000000D+00
394  3.9300000000000D+00  0.0000000000000D+00  0.0000000000000D+00
395  3.9400000000000D+00  0.0000000000000D+00  0.0000000000000D+00
396  3.9500000000000D+00  0.0000000000000D+00  0.0000000000000D+00
397  3.9600000000000D+00  0.0000000000000D+00  0.0000000000000D+00
398  3.9700000000000D+00  0.0000000000000D+00  0.0000000000000D+00
399  3.9800000000000D+00  0.0000000000000D+00  0.0000000000000D+00
400  3.9900000000000D+00  0.0000000000000D+00  0.0000000000000D+00
1                         2.2719467219554D+00  2.5653785840713D-01  3.5955401985889D-05
1  0.0000000000000D+00  3.4379939450879D-09 -1.2588811326708D-08  1.8904928456021D-08
2  1.0000000000000D-02  1.4895949830294D-03 -1.2738553372664D-03  2.9226614875425D-03
3  2.0000000000000D-02  5.9475760018614D-03 -5.0681728146614D-03  1.1644686834674D-02
4  3.0000000000000D-02  1.3341665222758D-02 -1.1301665258009D-02  2.6028904387655D-02
5  4.0000000000000D-02  2.3618510837192D-02 -1.9840375012846D-02  4.5849036277904D-02
6  5.0000000000000D-02  3.6704347163408D-02 -3.0499930557378D-02  7.0793173357838D-02
7  6.0000000000000D-02  5.2505905350578D-02 -4.3048656459305D-02  1.0046856590503D-01
8  7.0000000000000D-02  7.0911561484038D-02 -5.7211488257391D-02  1.3440765718942D-01
9  8.0000000000000D-02  9.1792705452130D-02 -7.2674631259871D-02  1.7207526809330D-01
10  9.0000000000000D-02  1.1500531074133D-01 -8.9090890573400D-02  2.1287682339379D-01
11  1.0000000000000D-01  1.4039168242279D-01 -1.0608558908028D-01  2.5616749436846D-01
12  1.1000000000000D-01  1.6778235802392D-01 -1.2326298073135D-01  3.0126211836282D-01
13  1.2000000000000D-01  1.9699813378012D-01 -1.4021305855385D-01  3.4744574396064D-01
14  1.3000000000000D-01  2.2785218696736D-01 -1.5651865031241D-01  3.9398464073269D-01
15  1.4000000000000D-01  2.6015226365229D-01 -1.7176268990362D-01  4.4013760524024D-01
16  1.5000000000000D-01  2.9370290028411D-01 -1.8553554938794D-01  4.8516739023910D-01
17  1.6000000000000D-01  3.2830764710420D-01 -1.9744231511686D-01  5.2835208187234D-01
18  1.7000000000000D-01  3.6377126137408D-01 -2.0710989172498D-01  5.6899625016668D-01
19  1.8000000000000D-01  3.9990183891884D-01 -2.1419381982642D-01  6.0644170125761D-01
20  1.9000000000000D-01  4.3651285344578D-01 -2.1838469705680D-01  6.4007766552923D-01
21  2.0000000000000D-01  4.7342507451300D-01 -2.1941409758434D-01  6.6935026411793D-01
22  2.1000000000000D-01  5.1046833687010D-01 -2.1705989230382D-01  6.9377110684652D-01
23  2.2000000000000D-01  5.4748313614660D-01 -2.1115088052058D-01  7.1292488760278D-01
24  2.3000000000000D-01  5.8432202849144D-01 -2.0157065391274D-01  7.2647585811828D-01
25  2.4000000000000D-01  6.2085081472961D-01 -1.8826062478059D-01  7.3417307790503D-01
26  2.5000000000000D-01  6.5694949285913D-01 -1.7122216289568D-01  7.3585435650648D-01
27  2.6000000000000D-01  6.9251296621336D-01 -1.5051779846852D-01  7.3144882394834D-01
28  2.7000000000000D-01  7.2745149831157D-01 -1.2627146267358D-01  7.2097808602844D-01
29  2.8000000000000D-01  7.6169090925882D-01 -9.8667751599092D-02  7.0455594255052D-01
30  2.9000000000000D-01  7.9517251248001D-01 -6.7950214219077D-02  6.8238666853010D-01
31  3.0000000000000D-01  8.2785279452388D-01 -3.4418679797417D-02  6.5476188033703D-01
32  3.1000000000000D-01  8.5970284459304D-01  1.5743451870050D-03  6.2205603046222D-01