Hf    ONCVPSP  r_core=  1.56  1.62  1.40  1.62
72.0000     26.0000      151110    zatom,zion,pspd
8   -1013   3     4   600     0    pspcod,pspxc,lmax,lloc,mmax,r2well
5.99000000  3.00000000  0.00000000    rchrg fchrg qchrg
2     2     2     2     0    nproj
1                 extension_switch
0                         1.2811838677642D+01  1.4081445225998D+00
1  0.0000000000000D+00 -2.2234453167513D-10  9.9014640930761D-10
2  1.0000000000000D-02  4.9710341357742D-02 -2.3194158784654D-02
3  2.0000000000000D-02  9.9358709493278D-02 -4.6244284789208D-02
4  3.0000000000000D-02  1.4888338765853D-01 -6.9007833171197D-02
5  4.0000000000000D-02  1.9822316812449D-01 -9.1345214972329D-02
6  5.0000000000000D-02  2.4731759692518D-01 -1.1312122533756D-01
7  6.0000000000000D-02  2.9610720704259D-01 -1.3420641277699D-01
8  7.0000000000000D-02  3.4453373644401D-01 -1.5447837099354D-01
9  8.0000000000000D-02  3.9254032760523D-01 -1.7382293578961D-01
10  9.0000000000000D-02  4.4007170542621D-01 -1.9213527078204D-01
11  1.0000000000000D-01  4.8707433076536D-01 -2.0932082708343D-01
12  1.1000000000000D-01  5.3349652718224D-01 -2.2529616373182D-01
13  1.2000000000000D-01  5.7928857887969D-01 -2.3998961745185D-01
14  1.3000000000000D-01  6.2440279827249D-01 -2.5334181228773D-01
15  1.4000000000000D-01  6.6879356207295D-01 -2.6530600173829D-01
16  1.5000000000000D-01  7.1241731527026D-01 -2.7584823822320D-01
17  1.6000000000000D-01  7.5523254288259D-01 -2.8494736699063D-01
18  1.7000000000000D-01  7.9719970987292D-01 -2.9259484391302D-01
19  1.8000000000000D-01  8.3828117013483D-01 -2.9879437898114D-01
20  1.9000000000000D-01  8.7844104596545D-01 -3.0356140966907D-01
21  2.0000000000000D-01  9.1764507994370D-01 -3.0692241067331D-01
22  2.1000000000000D-01  9.5586046161491D-01 -3.0891404880207D-01
23  2.2000000000000D-01  9.9305563184198D-01 -3.0958219397338D-01
24  2.3000000000000D-01  1.0292000681113D+00 -3.0898079934828D-01
25  2.4000000000000D-01  1.0642640544731D+00 -3.0717066554947D-01
26  2.5000000000000D-01  1.0982184401432D+00 -3.0421810567026D-01
27  2.6000000000000D-01  1.1310343910942D+00 -3.0019352934080D-01
28  2.7000000000000D-01  1.1626831392079D+00 -2.9516996546551D-01
29  2.8000000000000D-01  1.1931357337519D+00 -2.8922154435647D-01
30  2.9000000000000D-01  1.2223628000643D+00 -2.8242196084768D-01
31  3.0000000000000D-01  1.2503343103982D+00 -2.7484294056572D-01
32  3.1000000000000D-01  1.2770193718636D+00 -2.6655273184621D-01
33  3.2000000000000D-01  1.3023860363345D+00 -2.5761464581019D-01
34  3.3000000000000D-01  1.3264011370398D+00 -2.4808566684764D-01
35  3.4000000000000D-01  1.3490301563425D+00 -2.3801515519284D-01
36  3.5000000000000D-01  1.3702371289259D+00 -2.2744366242257D-01
37  3.6000000000000D-01  1.3899845842557D+00 -2.1640187956510D-01
38  3.7000000000000D-01  1.4082335317683D+00 -2.0490973608844D-01
39  3.8000000000000D-01  1.4249434917601D+00 -1.9297566634994D-01
40  3.9000000000000D-01  1.4400725744196D+00 -1.8059605815383D-01
41  4.0000000000000D-01  1.4535776088582D+00 -1.6775489589772D-01
42  4.1000000000000D-01  1.4654143233688D+00 -1.5442360841633D-01
43  4.2000000000000D-01  1.4755375774700D+00 -1.4056112907678D-01
44  4.3000000000000D-01  1.4839016456008D+00 -1.2611417297298D-01
45  4.4000000000000D-01  1.4904605516055D+00 -1.1101773323861D-01
46  4.5000000000000D-01  1.4951684524175D+00 -9.5195795582289D-02
47  4.6000000000000D-01  1.4979800686091D+00 -7.8562267179132D-02
48  4.7000000000000D-01  1.4988511587411D+00 -6.1022113068666D-02
49  4.8000000000000D-01  1.4977390337254D+00 -4.2472690244716D-02
50  4.9000000000000D-01  1.4946031067142D+00 -2.2805266719969D-02
51  5.0000000000000D-01  1.4894054733707D+00 -1.9067100421396D-03
52  5.1000000000000D-01  1.4821115167487D+00  2.0338672930828D-02
53  5.2000000000000D-01  1.4726905304459D+00  4.4047165684395D-02
54  5.3000000000000D-01  1.4611163531822D+00  6.9333564105775D-02
55  5.4000000000000D-01  1.4473680075188D+00  9.6309015966664D-02
56  5.5000000000000D-01  1.4314303350692D+00  1.2507880461846D-01
57  5.6000000000000D-01  1.4132946202754D+00  1.5574010515697D-01
58  5.7000000000000D-01  1.3929591946318D+00  1.8837974244776D-01
59  5.8000000000000D-01  1.3704300131469D+00  2.2307198119271D-01
60  5.9000000000000D-01  1.3457211948323D+00  2.5987637863430D-01
61  6.0000000000000D-01  1.3188555191195D+00  2.9883573052934D-01
62  6.1000000000000D-01  1.2898648703070D+00  3.3997414066943D-01
63  6.2000000000000D-01  1.2587906224566D+00  3.8329524346905D-01
64  6.3000000000000D-01  1.2256839575675D+00  4.2878060800016D-01
65  6.4000000000000D-01  1.1906061103757D+00  4.7638835031180D-01
66  6.5000000000000D-01  1.1536285337320D+00  5.2605197895562D-01
67  6.6000000000000D-01  1.1148329792179D+00  5.7767949637100D-01
68  6.7000000000000D-01  1.0743114884448D+00  6.3115277615312D-01
69  6.8000000000000D-01  1.0321662913495D+00  6.8632723329690D-01
70  6.9000000000000D-01  9.8850960873254D-01  7.4303180129654D-01
71  7.0000000000000D-01  9.4346335728267D-01  8.0106922650597D-01
72  7.1000000000000D-01  8.9715875637520D-01  8.6021668648415D-01
73  7.2000000000000D-01  8.4973583701314D-01  9.2022673520556D-01
74  7.3000000000000D-01  8.0134285438917D-01  9.8082857403442D-01
75  7.4000000000000D-01  7.5213560666097D-01  1.0417296433324D+00
76  7.5000000000000D-01  7.0227666365782D-01  1.1026175254696D+00
77  7.6000000000000D-01  6.5193451033458D-01  1.1631621459801D+00
78  7.7000000000000D-01  6.0128261086620D-01  1.2230182556238D+00
79  7.8000000000000D-01  5.5049840030826D-01  1.2818281722762D+00
80  7.9000000000000D-01  4.9976221172580D-01  1.3392247579062D+00
81  8.0000000000000D-01  4.4925614760055D-01  1.3948346024693D+00
82  8.1000000000000D-01  3.9916290515349D-01  1.4482813833914D+00
83  8.2000000000000D-01  3.4966456595236D-01  1.4991893664849D+00
84  8.3000000000000D-01  3.0094136080351D-01  1.5471870116796D+00
85  8.4000000000000D-01  2.5317042144375D-01  1.5919106448758D+00
86  8.5000000000000D-01  2.0652453094097D-01  1.6330081556098D+00
87  8.6000000000000D-01  1.6117088497716D-01  1.6701426790517D+00
88  8.7000000000000D-01  1.1726987631792D-01  1.7029962201763D+00
89  8.8000000000000D-01  7.4973914763627D-02  1.7312731777759D+00
90  8.9000000000000D-01  3.4426294728578D-02  1.7547037263158D+00
91  9.0000000000000D-01 -4.2398776979121D-03  1.7730470144943D+00
92  9.1000000000000D-01 -4.0902686782146D-02  1.7860941407274D+00
93  9.2000000000000D-01 -7.5452327413219D-02  1.7936708676587D+00
94  9.3000000000000D-01 -1.0779193345028D-01  1.7956400401537D+00
95  9.4000000000000D-01 -1.3783830481930D-01  1.7919036740615D+00
96  9.5000000000000D-01 -1.6552252497225D-01  1.7824046862925D+00
97  9.6000000000000D-01 -1.9079046137235D-01  1.7671282404215D+00
98  9.7000000000000D-01 -2.1360314281587D-01  1.7461026860483D+00
99  9.8000000000000D-01 -2.3393700863146D-01  1.7194000744880D+00
100  9.9000000000000D-01 -2.5178402609301D-01  1.6871362379410D+00
101  1.0000000000000D+00 -2.6715167376182D-01  1.6494704241956D+00
102  1.0100000000000D+00 -2.8006278980886D-01  1.6066044836633D+00
103  1.0200000000000D+00 -2.9055528584548D-01  1.5587816108185D+00
104  1.0300000000000D+00 -2.9868172817693D-01  1.5062846470649D+00
105  1.0400000000000D+00 -3.0450878980303D-01  1.4494339570919D+00
106  1.0500000000000D+00 -3.0811657786243D-01  1.3885848956975D+00
107  1.0600000000000D+00 -3.0959784259684D-01  1.3241248869926D+00
108  1.0700000000000D+00 -3.0905707504402D-01  1.2564701419578D+00
109  1.0800000000000D+00 -3.0660950202769D-01  1.1860620451857D+00
110  1.0900000000000D+00 -3.0237998798080D-01  1.1133632451052D+00
111  1.1000000000000D+00 -2.9650185416920D-01  1.0388534856543D+00
112  1.1100000000000D+00 -2.8911562673350D-01  9.6302522039564D-01
113  1.1200000000000D+00 -2.8036772565091D-01  8.8637905248600D-01
114  1.1300000000000D+00 -2.7040910740133D-01  8.0941904630652D-01
115  1.1400000000000D+00 -2.5939387446608D-01  7.3264795773816D-01
116  1.1500000000000D+00 -2.4747786507144D-01  6.5656243100038D-01
117  1.1600000000000D+00 -2.3481723674778D-01  5.8164821048185D-01
118  1.1700000000000D+00 -2.2156705721076D-01  5.0837541562626D-01
119  1.1800000000000D+00 -2.0787991581351D-01  4.3719392591260D-01
120  1.1900000000000D+00 -1.9390456846417D-01  3.6852892156981D-01
121  1.2000000000000D+00 -1.7978462849769D-01  3.0277662408557D-01
122  1.2100000000000D+00 -1.6565731513914D-01  2.4030027732805D-01
123  1.2200000000000D+00 -1.5165227023716D-01  1.8142640648376D-01
124  1.2300000000000D+00 -1.3789045365065D-01  1.2644139088397D-01
125  1.2400000000000D+00 -1.2448312581133D-01  7.5588379799155D-02
126  1.2500000000000D+00 -1.1153092499201D-01  2.9064576582978D-02
127  1.2600000000000D+00 -9.9123045633284D-02 -1.2981088586707D-02
128  1.2700000000000D+00 -8.7336524828599D-02 -5.0449870493272D-02
129  1.2800000000000D+00 -7.6235626586445D-02 -8.3294762431603D-02
130  1.2900000000000D+00 -6.5871414074107D-02 -1.1152125812153D-01
131  1.3000000000000D+00 -5.6281247135978D-02 -1.3518860697029D-01
132  1.3100000000000D+00 -4.7488479419587D-02 -1.5441026575691D-01
133  1.3200000000000D+00 -3.9503656096821D-02 -1.6934676504321D-01
134  1.3300000000000D+00 -3.2325901094039D-02 -1.8019830383670D-01
135  1.3400000000000D+00 -2.5944722815445D-02 -1.8719581052464D-01
136  1.3500000000000D+00 -2.0340507556320D-02 -1.9059902584380D-01
137  1.3600000000000D+00 -1.5485246890258D-02 -1.9069358333024D-01
138  1.3700000000000D+00 -1.1343434974531D-02 -1.8778727702326D-01
139  1.3800000000000D+00 -7.8729809894795D-03 -1.8220639643200D-01
140  1.3900000000000D+00 -5.0261908315256D-03 -1.7429179768872D-01
141  1.4000000000000D+00 -2.7507926624889D-03 -1.6439483208688D-01
142  1.4100000000000D+00 -9.9099667921916D-04 -1.5287316238096D-01
143  1.4200000000000D+00  3.1142399124687D-04 -1.4008651687644D-01
144  1.4300000000000D+00  1.2160444329530D-03 -1.2639243041595D-01
145  1.4400000000000D+00  1.7827040500223D-03 -1.1214202050589D-01
146  1.4500000000000D+00  2.0704406664425D-03 -9.7675847159734D-02
147  1.4600000000000D+00  2.1364555625908D-03 -8.3319904778741D-02
148  1.4700000000000D+00  2.0351209663189D-03 -6.9381789026789D-02
149  1.4800000000000D+00  1.8170436347011D-03 -5.6147089587200D-02
150  1.4900000000000D+00  1.5281927235594D-03 -4.3876039334489D-02
151  1.5000000000000D+00  1.2091061481381D-03 -3.2800472941845D-02
152  1.5100000000000D+00  8.9442372953811D-04 -2.3126260926458D-02
153  1.5200000000000D+00  6.1126301735760D-04 -1.5009562055137D-02
154  1.5300000000000D+00  3.7755758488765D-04 -8.5435922131333D-03
155  1.5400000000000D+00  2.1313137565188D-04 -3.9394200420076D-03
156  1.5500000000000D+00  1.2983601188503D-04 -1.3341605421495D-03
157  1.5600000000000D+00  8.7034652610531D-05 -2.5058431540804D-04
158  1.5700000000000D+00  3.5951909160448D-05  2.5665219639861D-05
159  1.5800000000000D+00 -2.5166055358024D-06 -5.4200421662619D-06
160  1.5900000000000D+00 -6.5921620649201D-06 -2.1372085010136D-05
161  1.6000000000000D+00  8.2781285470127D-07  1.1515395951879D-06
162  1.6100000000000D+00  1.4996771053400D-06  2.6596956447003D-06
163  1.6200000000000D+00 -1.3862372295669D-07  4.0364820526071D-07
164  1.6300000000000D+00 -1.9982164716882D-07  5.8184593179000D-07
165  1.6400000000000D+00  0.0000000000000D+00  0.0000000000000D+00
166  1.6500000000000D+00  0.0000000000000D+00  0.0000000000000D+00
167  1.6600000000000D+00  0.0000000000000D+00  0.0000000000000D+00
168  1.6700000000000D+00  0.0000000000000D+00  0.0000000000000D+00
169  1.6800000000000D+00  0.0000000000000D+00  0.0000000000000D+00
170  1.6900000000000D+00  0.0000000000000D+00  0.0000000000000D+00
171  1.7000000000000D+00  0.0000000000000D+00  0.0000000000000D+00
172  1.7100000000000D+00  0.0000000000000D+00  0.0000000000000D+00
173  1.7200000000000D+00  0.0000000000000D+00  0.0000000000000D+00
174  1.7300000000000D+00  0.0000000000000D+00  0.0000000000000D+00
175  1.7400000000000D+00  0.0000000000000D+00  0.0000000000000D+00
176  1.7500000000000D+00  0.0000000000000D+00  0.0000000000000D+00
177  1.7600000000000D+00  0.0000000000000D+00  0.0000000000000D+00
178  1.7700000000000D+00  0.0000000000000D+00  0.0000000000000D+00
179  1.7800000000000D+00  0.0000000000000D+00  0.0000000000000D+00
180  1.7900000000000D+00  0.0000000000000D+00  0.0000000000000D+00
181  1.8000000000000D+00  0.0000000000000D+00  0.0000000000000D+00
182  1.8100000000000D+00  0.0000000000000D+00  0.0000000000000D+00
183  1.8200000000000D+00  0.0000000000000D+00  0.0000000000000D+00
184  1.8300000000000D+00  0.0000000000000D+00  0.0000000000000D+00
185  1.8400000000000D+00  0.0000000000000D+00  0.0000000000000D+00
186  1.8500000000000D+00  0.0000000000000D+00  0.0000000000000D+00
187  1.8600000000000D+00  0.0000000000000D+00  0.0000000000000D+00
188  1.8700000000000D+00  0.0000000000000D+00  0.0000000000000D+00
189  1.8800000000000D+00  0.0000000000000D+00  0.0000000000000D+00
190  1.8900000000000D+00  0.0000000000000D+00  0.0000000000000D+00
191  1.9000000000000D+00  0.0000000000000D+00  0.0000000000000D+00
192  1.9100000000000D+00  0.0000000000000D+00  0.0000000000000D+00
193  1.9200000000000D+00  0.0000000000000D+00  0.0000000000000D+00
194  1.9300000000000D+00  0.0000000000000D+00  0.0000000000000D+00
195  1.9400000000000D+00  0.0000000000000D+00  0.0000000000000D+00
196  1.9500000000000D+00  0.0000000000000D+00  0.0000000000000D+00
197  1.9600000000000D+00  0.0000000000000D+00  0.0000000000000D+00
198  1.9700000000000D+00  0.0000000000000D+00  0.0000000000000D+00
199  1.9800000000000D+00  0.0000000000000D+00  0.0000000000000D+00
200  1.9900000000000D+00  0.0000000000000D+00  0.0000000000000D+00
201  2.0000000000000D+00  0.0000000000000D+00  0.0000000000000D+00
202  2.0100000000000D+00  0.0000000000000D+00  0.0000000000000D+00
203  2.0200000000000D+00  0.0000000000000D+00  0.0000000000000D+00
204  2.0300000000000D+00  0.0000000000000D+00  0.0000000000000D+00
205  2.0400000000000D+00  0.0000000000000D+00  0.0000000000000D+00
206  2.0500000000000D+00  0.0000000000000D+00  0.0000000000000D+00
207  2.0600000000000D+00  0.0000000000000D+00  0.0000000000000D+00
208  2.0700000000000D+00  0.0000000000000D+00  0.0000000000000D+00
209  2.0800000000000D+00  0.0000000000000D+00  0.0000000000000D+00
210  2.0900000000000D+00  0.0000000000000D+00  0.0000000000000D+00
211  2.1000000000000D+00  0.0000000000000D+00  0.0000000000000D+00
212  2.1100000000000D+00  0.0000000000000D+00  0.0000000000000D+00
213  2.1200000000000D+00  0.0000000000000D+00  0.0000000000000D+00
214  2.1300000000000D+00  0.0000000000000D+00  0.0000000000000D+00
215  2.1400000000000D+00  0.0000000000000D+00  0.0000000000000D+00
216  2.1500000000000D+00  0.0000000000000D+00  0.0000000000000D+00
217  2.1600000000000D+00  0.0000000000000D+00  0.0000000000000D+00
218  2.1700000000000D+00  0.0000000000000D+00  0.0000000000000D+00
219  2.1800000000000D+00  0.0000000000000D+00  0.0000000000000D+00
220  2.1900000000000D+00  0.0000000000000D+00  0.0000000000000D+00
221  2.2000000000000D+00  0.0000000000000D+00  0.0000000000000D+00
222  2.2100000000000D+00  0.0000000000000D+00  0.0000000000000D+00
223  2.2200000000000D+00  0.0000000000000D+00  0.0000000000000D+00
224  2.2300000000000D+00  0.0000000000000D+00  0.0000000000000D+00
225  2.2400000000000D+00  0.0000000000000D+00  0.0000000000000D+00
226  2.2500000000000D+00  0.0000000000000D+00  0.0000000000000D+00
227  2.2600000000000D+00  0.0000000000000D+00  0.0000000000000D+00
228  2.2700000000000D+00  0.0000000000000D+00  0.0000000000000D+00
229  2.2800000000000D+00  0.0000000000000D+00  0.0000000000000D+00
230  2.2900000000000D+00  0.0000000000000D+00  0.0000000000000D+00
231  2.3000000000000D+00  0.0000000000000D+00  0.0000000000000D+00
232  2.3100000000000D+00  0.0000000000000D+00  0.0000000000000D+00
233  2.3200000000000D+00  0.0000000000000D+00  0.0000000000000D+00
234  2.3300000000000D+00  0.0000000000000D+00  0.0000000000000D+00
235  2.3400000000000D+00  0.0000000000000D+00  0.0000000000000D+00
236  2.3500000000000D+00  0.0000000000000D+00  0.0000000000000D+00
237  2.3600000000000D+00  0.0000000000000D+00  0.0000000000000D+00
238  2.3700000000000D+00  0.0000000000000D+00  0.0000000000000D+00
239  2.3800000000000D+00  0.0000000000000D+00  0.0000000000000D+00
240  2.3900000000000D+00  0.0000000000000D+00  0.0000000000000D+00
241  2.4000000000000D+00  0.0000000000000D+00  0.0000000000000D+00
242  2.4100000000000D+00  0.0000000000000D+00  0.0000000000000D+00
243  2.4200000000000D+00  0.0000000000000D+00  0.0000000000000D+00
244  2.4300000000000D+00  0.0000000000000D+00  0.0000000000000D+00
245  2.4400000000000D+00  0.0000000000000D+00  0.0000000000000D+00
246  2.4500000000000D+00  0.0000000000000D+00  0.0000000000000D+00
247  2.4600000000000D+00  0.0000000000000D+00  0.0000000000000D+00
248  2.4700000000000D+00  0.0000000000000D+00  0.0000000000000D+00
249  2.4800000000000D+00  0.0000000000000D+00  0.0000000000000D+00
250  2.4900000000000D+00  0.0000000000000D+00  0.0000000000000D+00
251  2.5000000000000D+00  0.0000000000000D+00  0.0000000000000D+00
252  2.5100000000000D+00  0.0000000000000D+00  0.0000000000000D+00
253  2.5200000000000D+00  0.0000000000000D+00  0.0000000000000D+00
254  2.5300000000000D+00  0.0000000000000D+00  0.0000000000000D+00
255  2.5400000000000D+00  0.0000000000000D+00  0.0000000000000D+00
256  2.5500000000000D+00  0.0000000000000D+00  0.0000000000000D+00
257  2.5600000000000D+00  0.0000000000000D+00  0.0000000000000D+00
258  2.5700000000000D+00  0.0000000000000D+00  0.0000000000000D+00
259  2.5800000000000D+00  0.0000000000000D+00  0.0000000000000D+00
260  2.5900000000000D+00  0.0000000000000D+00  0.0000000000000D+00
261  2.6000000000000D+00  0.0000000000000D+00  0.0000000000000D+00
262  2.6100000000000D+00  0.0000000000000D+00  0.0000000000000D+00
263  2.6200000000000D+00  0.0000000000000D+00  0.0000000000000D+00
264  2.6300000000000D+00  0.0000000000000D+00  0.0000000000000D+00
265  2.6400000000000D+00  0.0000000000000D+00  0.0000000000000D+00
266  2.6500000000000D+00  0.0000000000000D+00  0.0000000000000D+00
267  2.6600000000000D+00  0.0000000000000D+00  0.0000000000000D+00
268  2.6700000000000D+00  0.0000000000000D+00  0.0000000000000D+00
269  2.6800000000000D+00  0.0000000000000D+00  0.0000000000000D+00
270  2.6900000000000D+00  0.0000000000000D+00  0.0000000000000D+00
271  2.7000000000000D+00  0.0000000000000D+00  0.0000000000000D+00
272  2.7100000000000D+00  0.0000000000000D+00  0.0000000000000D+00
273  2.7200000000000D+00  0.0000000000000D+00  0.0000000000000D+00
274  2.7300000000000D+00  0.0000000000000D+00  0.0000000000000D+00
275  2.7400000000000D+00  0.0000000000000D+00  0.0000000000000D+00
276  2.7500000000000D+00  0.0000000000000D+00  0.0000000000000D+00
277  2.7600000000000D+00  0.0000000000000D+00  0.0000000000000D+00
278  2.7700000000000D+00  0.0000000000000D+00  0.0000000000000D+00
279  2.7800000000000D+00  0.0000000000000D+00  0.0000000000000D+00
280  2.7900000000000D+00  0.0000000000000D+00  0.0000000000000D+00
281  2.8000000000000D+00  0.0000000000000D+00  0.0000000000000D+00
282  2.8100000000000D+00  0.0000000000000D+00  0.0000000000000D+00
283  2.8200000000000D+00  0.0000000000000D+00  0.0000000000000D+00
284  2.8300000000000D+00  0.0000000000000D+00  0.0000000000000D+00
285  2.8400000000000D+00  0.0000000000000D+00  0.0000000000000D+00
286  2.8500000000000D+00  0.0000000000000D+00  0.0000000000000D+00
287  2.8600000000000D+00  0.0000000000000D+00  0.0000000000000D+00
288  2.8700000000000D+00  0.0000000000000D+00  0.0000000000000D+00
289  2.8800000000000D+00  0.0000000000000D+00  0.0000000000000D+00
290  2.8900000000000D+00  0.0000000000000D+00  0.0000000000000D+00
291  2.9000000000000D+00  0.0000000000000D+00  0.0000000000000D+00
292  2.9100000000000D+00  0.0000000000000D+00  0.0000000000000D+00
293  2.9200000000000D+00  0.0000000000000D+00  0.0000000000000D+00
294  2.9300000000000D+00  0.0000000000000D+00  0.0000000000000D+00
295  2.9400000000000D+00  0.0000000000000D+00  0.0000000000000D+00
296  2.9500000000000D+00  0.0000000000000D+00  0.0000000000000D+00
297  2.9600000000000D+00  0.0000000000000D+00  0.0000000000000D+00
298  2.9700000000000D+00  0.0000000000000D+00  0.0000000000000D+00
299  2.9800000000000D+00  0.0000000000000D+00  0.0000000000000D+00
300  2.9900000000000D+00  0.0000000000000D+00  0.0000000000000D+00
301  3.0000000000000D+00  0.0000000000000D+00  0.0000000000000D+00
302  3.0100000000000D+00  0.0000000000000D+00  0.0000000000000D+00
303  3.0200000000000D+00  0.0000000000000D+00  0.0000000000000D+00
304  3.0300000000000D+00  0.0000000000000D+00  0.0000000000000D+00
305  3.0400000000000D+00  0.0000000000000D+00  0.0000000000000D+00
306  3.0500000000000D+00  0.0000000000000D+00  0.0000000000000D+00
307  3.0600000000000D+00  0.0000000000000D+00  0.0000000000000D+00
308  3.0700000000000D+00  0.0000000000000D+00  0.0000000000000D+00
309  3.0800000000000D+00  0.0000000000000D+00  0.0000000000000D+00
310  3.0900000000000D+00  0.0000000000000D+00  0.0000000000000D+00
311  3.1000000000000D+00  0.0000000000000D+00  0.0000000000000D+00
312  3.1100000000000D+00  0.0000000000000D+00  0.0000000000000D+00
313  3.1200000000000D+00  0.0000000000000D+00  0.0000000000000D+00
314  3.1300000000000D+00  0.0000000000000D+00  0.0000000000000D+00
315  3.1400000000000D+00  0.0000000000000D+00  0.0000000000000D+00
316  3.1500000000000D+00  0.0000000000000D+00  0.0000000000000D+00
317  3.1600000000000D+00  0.0000000000000D+00  0.0000000000000D+00
318  3.1700000000000D+00  0.0000000000000D+00  0.0000000000000D+00
319  3.1800000000000D+00  0.0000000000000D+00  0.0000000000000D+00
320  3.1900000000000D+00  0.0000000000000D+00  0.0000000000000D+00
321  3.2000000000000D+00  0.0000000000000D+00  0.0000000000000D+00
322  3.2100000000000D+00  0.0000000000000D+00  0.0000000000000D+00
323  3.2200000000000D+00  0.0000000000000D+00  0.0000000000000D+00
324  3.2300000000000D+00  0.0000000000000D+00  0.0000000000000D+00
325  3.2400000000000D+00  0.0000000000000D+00  0.0000000000000D+00
326  3.2500000000000D+00  0.0000000000000D+00  0.0000000000000D+00
327  3.2600000000000D+00  0.0000000000000D+00  0.0000000000000D+00
328  3.2700000000000D+00  0.0000000000000D+00  0.0000000000000D+00
329  3.2800000000000D+00  0.0000000000000D+00  0.0000000000000D+00
330  3.2900000000000D+00  0.0000000000000D+00  0.0000000000000D+00
331  3.3000000000000D+00  0.0000000000000D+00  0.0000000000000D+00
332  3.3100000000000D+00  0.0000000000000D+00  0.0000000000000D+00
333  3.3200000000000D+00  0.0000000000000D+00  0.0000000000000D+00
334  3.3300000000000D+00  0.0000000000000D+00  0.0000000000000D+00
335  3.3400000000000D+00  0.0000000000000D+00  0.0000000000000D+00
336  3.3500000000000D+00  0.0000000000000D+00  0.0000000000000D+00
337  3.3600000000000D+00  0.0000000000000D+00  0.0000000000000D+00
338  3.3700000000000D+00  0.0000000000000D+00  0.0000000000000D+00
339  3.3800000000000D+00  0.0000000000000D+00  0.0000000000000D+00
340  3.3900000000000D+00  0.0000000000000D+00  0.0000000000000D+00
341  3.4000000000000D+00  0.0000000000000D+00  0.0000000000000D+00
342  3.4100000000000D+00  0.0000000000000D+00  0.0000000000000D+00
343  3.4200000000000D+00  0.0000000000000D+00  0.0000000000000D+00
344  3.4300000000000D+00  0.0000000000000D+00  0.0000000000000D+00
345  3.4400000000000D+00  0.0000000000000D+00  0.0000000000000D+00
346  3.4500000000000D+00  0.0000000000000D+00  0.0000000000000D+00
347  3.4600000000000D+00  0.0000000000000D+00  0.0000000000000D+00
348  3.4700000000000D+00  0.0000000000000D+00  0.0000000000000D+00
349  3.4800000000000D+00  0.0000000000000D+00  0.0000000000000D+00
350  3.4900000000000D+00  0.0000000000000D+00  0.0000000000000D+00
351  3.5000000000000D+00  0.0000000000000D+00  0.0000000000000D+00
352  3.5100000000000D+00  0.0000000000000D+00  0.0000000000000D+00
353  3.5200000000000D+00  0.0000000000000D+00  0.0000000000000D+00
354  3.5300000000000D+00  0.0000000000000D+00  0.0000000000000D+00
355  3.5400000000000D+00  0.0000000000000D+00  0.0000000000000D+00
356  3.5500000000000D+00  0.0000000000000D+00  0.0000000000000D+00
357  3.5600000000000D+00  0.0000000000000D+00  0.0000000000000D+00
358  3.5700000000000D+00  0.0000000000000D+00  0.0000000000000D+00
359  3.5800000000000D+00  0.0000000000000D+00  0.0000000000000D+00
360  3.5900000000000D+00  0.0000000000000D+00  0.0000000000000D+00
361  3.6000000000000D+00  0.0000000000000D+00  0.0000000000000D+00
362  3.6100000000000D+00  0.0000000000000D+00  0.0000000000000D+00
363  3.6200000000000D+00  0.0000000000000D+00  0.0000000000000D+00
364  3.6300000000000D+00  0.0000000000000D+00  0.0000000000000D+00
365  3.6400000000000D+00  0.0000000000000D+00  0.0000000000000D+00
366  3.6500000000000D+00  0.0000000000000D+00  0.0000000000000D+00
367  3.6600000000000D+00  0.0000000000000D+00  0.0000000000000D+00
368  3.6700000000000D+00  0.0000000000000D+00  0.0000000000000D+00
369  3.6800000000000D+00  0.0000000000000D+00  0.0000000000000D+00
370  3.6900000000000D+00  0.0000000000000D+00  0.0000000000000D+00
371  3.7000000000000D+00  0.0000000000000D+00  0.0000000000000D+00
372  3.7100000000000D+00  0.0000000000000D+00  0.0000000000000D+00
373  3.7200000000000D+00  0.0000000000000D+00  0.0000000000000D+00
374  3.7300000000000D+00  0.0000000000000D+00  0.0000000000000D+00
375  3.7400000000000D+00  0.0000000000000D+00  0.0000000000000D+00
376  3.7500000000000D+00  0.0000000000000D+00  0.0000000000000D+00
377  3.7600000000000D+00  0.0000000000000D+00  0.0000000000000D+00
378  3.7700000000000D+00  0.0000000000000D+00  0.0000000000000D+00
379  3.7800000000000D+00  0.0000000000000D+00  0.0000000000000D+00
380  3.7900000000000D+00  0.0000000000000D+00  0.0000000000000D+00
381  3.8000000000000D+00  0.0000000000000D+00  0.0000000000000D+00
382  3.8100000000000D+00  0.0000000000000D+00  0.0000000000000D+00
383  3.8200000000000D+00  0.0000000000000D+00  0.0000000000000D+00
384  3.8300000000000D+00  0.0000000000000D+00  0.0000000000000D+00
385  3.8400000000000D+00  0.0000000000000D+00  0.0000000000000D+00
386  3.8500000000000D+00  0.0000000000000D+00  0.0000000000000D+00
387  3.8600000000000D+00  0.0000000000000D+00  0.0000000000000D+00
388  3.8700000000000D+00  0.0000000000000D+00  0.0000000000000D+00
389  3.8800000000000D+00  0.0000000000000D+00  0.0000000000000D+00
390  3.8900000000000D+00  0.0000000000000D+00  0.0000000000000D+00
391  3.9000000000000D+00  0.0000000000000D+00  0.0000000000000D+00
392  3.9100000000000D+00  0.0000000000000D+00  0.0000000000000D+00
393  3.9200000000000D+00  0.0000000000000D+00  0.0000000000000D+00
394  3.9300000000000D+00  0.0000000000000D+00  0.0000000000000D+00
395  3.9400000000000D+00  0.0000000000000D+00  0.0000000000000D+00
396  3.9500000000000D+00  0.0000000000000D+00  0.0000000000000D+00
397  3.9600000000000D+00  0.0000000000000D+00  0.0000000000000D+00
398  3.9700000000000D+00  0.0000000000000D+00  0.0000000000000D+00
399  3.9800000000000D+00  0.0000000000000D+00  0.0000000000000D+00
400  3.9900000000000D+00  0.0000000000000D+00  0.0000000000000D+00
401  4.0000000000000D+00  0.0000000000000D+00  0.0000000000000D+00
402  4.0100000000000D+00  0.0000000000000D+00  0.0000000000000D+00
403  4.0200000000000D+00  0.0000000000000D+00  0.0000000000000D+00
404  4.0300000000000D+00  0.0000000000000D+00  0.0000000000000D+00
405  4.0400000000000D+00  0.0000000000000D+00  0.0000000000000D+00
406  4.0500000000000D+00  0.0000000000000D+00  0.0000000000000D+00
407  4.0600000000000D+00  0.0000000000000D+00  0.0000000000000D+00
408  4.0700000000000D+00  0.0000000000000D+00  0.0000000000000D+00
409  4.0800000000000D+00  0.0000000000000D+00  0.0000000000000D+00
410  4.0900000000000D+00  0.0000000000000D+00  0.0000000000000D+00
411  4.1000000000000D+00  0.0000000000000D+00  0.0000000000000D+00
412  4.1100000000000D+00  0.0000000000000D+00  0.0000000000000D+00
413  4.1200000000000D+00  0.0000000000000D+00  0.0000000000000D+00
414  4.1300000000000D+00  0.0000000000000D+00  0.0000000000000D+00
415  4.1400000000000D+00  0.0000000000000D+00  0.0000000000000D+00
416  4.1500000000000D+00  0.0000000000000D+00  0.0000000000000D+00
417  4.1600000000000D+00  0.0000000000000D+00  0.0000000000000D+00
418  4.1700000000000D+00  0.0000000000000D+00  0.0000000000000D+00
419  4.1800000000000D+00  0.0000000000000D+00  0.0000000000000D+00
420  4.1900000000000D+00  0.0000000000000D+00  0.0000000000000D+00
421  4.2000000000000D+00  0.0000000000000D+00  0.0000000000000D+00
422  4.2100000000000D+00  0.0000000000000D+00  0.0000000000000D+00
423  4.2200000000000D+00  0.0000000000000D+00  0.0000000000000D+00
424  4.2300000000000D+00  0.0000000000000D+00  0.0000000000000D+00
425  4.2400000000000D+00  0.0000000000000D+00  0.0000000000000D+00
426  4.2500000000000D+00  0.0000000000000D+00  0.0000000000000D+00
427  4.2600000000000D+00  0.0000000000000D+00  0.0000000000000D+00
428  4.2700000000000D+00  0.0000000000000D+00  0.0000000000000D+00
429  4.2800000000000D+00  0.0000000000000D+00  0.0000000000000D+00
430  4.2900000000000D+00  0.0000000000000D+00  0.0000000000000D+00
431  4.3000000000000D+00  0.0000000000000D+00  0.0000000000000D+00
432  4.3100000000000D+00  0.0000000000000D+00  0.0000000000000D+00
433  4.3200000000000D+00  0.0000000000000D+00  0.0000000000000D+00
434  4.3300000000000D+00  0.0000000000000D+00  0.0000000000000D+00
435  4.3400000000000D+00  0.0000000000000D+00  0.0000000000000D+00
436  4.3500000000000D+00  0.0000000000000D+00  0.0000000000000D+00
437  4.3600000000000D+00  0.0000000000000D+00  0.0000000000000D+00
438  4.3700000000000D+00  0.0000000000000D+00  0.0000000000000D+00
439  4.3800000000000D+00  0.0000000000000D+00  0.0000000000000D+00
440  4.3900000000000D+00  0.0000000000000D+00  0.0000000000000D+00
441  4.4000000000000D+00  0.0000000000000D+00  0.0000000000000D+00
442  4.4100000000000D+00  0.0000000000000D+00  0.0000000000000D+00
443  4.4200000000000D+00  0.0000000000000D+00  0.0000000000000D+00