Co    ONCVPSP-3.2.3  r_core=   1.26190   1.32357   1.66026
27.0000     17.0000      170211    zatom,zion,pspd
8      11   2     4   600     0    pspcod,pspxc,lmax,lloc,mmax,r2well
5.99000000  6.00000000  0.00000000    rchrg fchrg qchrg
2     3     2     0    nproj
3     1           extension_switch
4     3     0    nprojso
0                        -6.5675368832814D-01  6.2868519674788D+00
1  0.0000000000000D+00  4.2089066121243D-09  5.9922844464211D-11
2  1.0000000000000D-02  2.4149943636880D-02  9.2388813060022D-02
3  2.0000000000000D-02  4.8414397481601D-02  1.8450729849054D-01
4  3.0000000000000D-02  7.2903232283636D-02  2.7608600071802D-01
5  4.0000000000000D-02  9.7717118534691D-02  3.6685720649321D-01
6  5.0000000000000D-02  1.2294312190169D-01  4.5655581156805D-01
7  6.0000000000000D-02  1.4865053030804D-01  5.4492018194636D-01
8  7.0000000000000D-02  1.7488698487589D-01  6.3169300782705D-01
9  8.0000000000000D-02  2.0167498273298D-01  7.1662214829880D-01
10  9.0000000000000D-02  2.2900881452487D-01  7.9946146477291D-01
11  1.0000000000000D-01  2.5685199342013D-01  8.7997164105827D-01
12  1.1000000000000D-01  2.8513522552882D-01  9.5792098789081D-01
13  1.2000000000000D-01  3.1375496405730D-01  1.0330862296323D+00
14  1.3000000000000D-01  3.4257258129216D-01  1.1052532707515D+00
15  1.4000000000000D-01  3.7141418374358D-01  1.1742179395984D+00
16  1.5000000000000D-01  4.0007108659757D-01  1.2397867068805D+00
17  1.6000000000000D-01  4.2830095414015D-01  1.3017773761557D+00
18  1.7000000000000D-01  4.5582960314912D-01  1.3600197435646D+00
19  1.8000000000000D-01  4.8235345652258D-01  1.4143562239513D+00
20  1.9000000000000D-01  5.0754262475523D-01  1.4646424404545D+00
21  2.0000000000000D-01  5.3104458340887D-01  1.5107477746066D+00
22  2.1000000000000D-01  5.5248840557980D-01  1.5525558739483D+00
23  2.2000000000000D-01  5.7148949966123D-01  1.5899651141646D+00
24  2.3000000000000D-01  5.8765479455734D-01  1.6228890127667D+00
25  2.4000000000000D-01  6.0058830703340D-01  1.6512565913910D+00
26  2.5000000000000D-01  6.0989701919398D-01  1.6750126838662D+00
27  2.6000000000000D-01  6.1519698826139D-01  1.6941181873039D+00
28  2.7000000000000D-01  6.1611960596985D-01  1.7085502536110D+00
29  2.8000000000000D-01  6.1231792106979D-01  1.7183024189933D+00
30  2.9000000000000D-01  6.0347293571773D-01  1.7233846692289D+00
31  3.0000000000000D-01  5.8929978496126D-01  1.7238234387289D+00
32  3.1000000000000D-01  5.6955370814979D-01  1.7196615416781D+00
33  3.2000000000000D-01  5.4403572193776D-01  1.7109580338559D+00
34  3.3000000000000D-01  5.1259790659998D-01  1.6977880040748D+00
35  3.4000000000000D-01  4.7514822064565D-01  1.6802422945411D+00
36  3.5000000000000D-01  4.3165476317145D-01  1.6584271498406D+00
37  3.6000000000000D-01  3.8214940899937D-01  1.6324637946680D+00
38  3.7000000000000D-01  3.2673074834487D-01  1.6024879408620D+00
39  3.8000000000000D-01  2.6556627048975D-01  1.5686492247679D+00
40  3.9000000000000D-01  1.9889373960554D-01  1.5311105764218D+00
41  4.0000000000000D-01  1.2702172039394D-01  1.4900475225347D+00
42  4.1000000000000D-01  5.0329221470546D-02  1.4456474257438D+00
43  4.2000000000000D-01 -3.0735564704543D-02  1.3981086630867D+00
44  4.3000000000000D-01 -1.1565743517717D-01  1.3476397471425D+00
45  4.4000000000000D-01 -2.0385726124215D-01  1.2944583937559D+00
46  4.5000000000000D-01 -2.9469597076789D-01  1.2387905407256D+00
47  4.6000000000000D-01 -3.8747940231569D-01  1.1808693222768D+00
48  4.7000000000000D-01 -4.8146399339169D-01  1.1209340045575D+00
49  4.8000000000000D-01 -5.7586325354872D-01  1.0592288877827D+00
50  4.9000000000000D-01 -6.6985496184743D-01  9.9600218100416D-01
51  5.0000000000000D-01 -7.6258901753881D-01  9.3150485579484D-01
52  5.1000000000000D-01 -8.5319586289917D-01  8.6598948540715D-01
53  5.2000000000000D-01 -9.4079538806311D-01  7.9970907618346D-01
54  5.3000000000000D-01 -1.0245062196060D+00  7.3291589816742D-01
55  5.4000000000000D-01 -1.1034552876426D+00  6.6586032197927D-01
56  5.5000000000000D-01 -1.1767875604345D+00  5.9878966907551D-01
57  5.6000000000000D-01 -1.2436758310495D+00  5.3194708251177D-01
58  5.7000000000000D-01 -1.3033304375561D+00  4.6557042526510D-01
59  5.8000000000000D-01 -1.3550087966436D+00  3.9989121304781D-01
60  5.9000000000000D-01 -1.3980246304617D+00  3.3513358835964D-01
61  6.0000000000000D-01 -1.4317567679316D+00  2.7151334227764D-01
62  6.1000000000000D-01 -1.4556574047570D+00  2.0923699017717D-01
63  6.2000000000000D-01 -1.4692597108921D+00  1.4850090721201D-01
64  6.3000000000000D-01 -1.4721846802533D+00  8.9490528961159D-02
65  6.4000000000000D-01 -1.4641471249014D+00  3.2379622178913D-02
66  6.5000000000000D-01 -1.4449607248029D+00 -2.2670369938134D-02
67  6.6000000000000D-01 -1.4145420543872D+00 -7.5510904116867D-02
68  6.7000000000000D-01 -1.3729135184030D+00 -1.2600683175850D-01
69  6.8000000000000D-01 -1.3202051419653D+00 -1.7403680946552D-01
70  6.9000000000000D-01 -1.2566551729276D+00 -2.1949362339862D-01
71  7.0000000000000D-01 -1.1826094686838D+00 -2.6228442620070D-01
72  7.1000000000000D-01 -1.0985196541305D+00 -3.0233088592586D-01
73  7.2000000000000D-01 -1.0049400524832D+00 -3.3956924711581D-01
74  7.3000000000000D-01 -9.0252340581886D-01 -3.7395030487144D-01
75  7.4000000000000D-01 -7.9201541745295D-01 -4.0543929346633D-01
76  7.5000000000000D-01 -6.7424816322997D-01 -4.3401569173019D-01
77  7.6000000000000D-01 -5.5013243351229D-01 -4.5967294809406D-01
78  7.7000000000000D-01 -4.2064908169144D-01 -4.8241812882036D-01
79  7.8000000000000D-01 -2.8683946835415D-01 -5.0227149353791D-01
80  7.9000000000000D-01 -1.4979510259330D-01 -5.1926600275671D-01
81  8.0000000000000D-01 -1.0646593184242D-02 -5.3344676254439D-01
82  8.1000000000000D-01  1.2944796771052D-01 -5.4487041199898D-01
83  8.2000000000000D-01  2.6931505713413D-01 -5.5360445954757D-01
84  8.3000000000000D-01  4.0777807210681D-01 -5.5972657443234D-01
85  8.4000000000000D-01  5.4366983518613D-01 -5.6332384001074D-01
86  8.5000000000000D-01  6.7584510792230D-01 -5.6449197569356D-01
87  8.6000000000000D-01  8.0319296364638D-01 -5.6333453446921D-01
88  8.7000000000000D-01  9.2464887123939D-01 -5.5996208301588D-01
89  8.8000000000000D-01  1.0392063436432D+00 -5.5449137138271D-01
90  8.9000000000000D-01  1.1459280088811D+00 -5.4704449912940D-01
91  9.0000000000000D-01  1.2439559672335D+00 -5.3774808464969D-01
92  9.1000000000000D-01  1.3325213058985D+00 -5.2673244417266D-01
93  9.2000000000000D-01  1.4109526518916D+00 -5.1413078663751D-01
94  9.3000000000000D-01  1.4786836549870D+00 -5.0007843027798D-01
95  9.4000000000000D-01  1.5352593050547D+00 -4.8471204633478D-01
96  9.5000000000000D-01  1.5803410020600D+00 -4.6816893484553D-01
97  9.6000000000000D-01  1.6137103120852D+00 -4.5058633694526D-01
98  9.7000000000000D-01  1.6352713588131D+00 -4.3210078755598D-01
99  9.8000000000000D-01  1.6450518169096D+00 -4.1284751175150D-01
100  9.9000000000000D-01  1.6432024911324D+00 -3.9295986747272D-01
101  1.0000000000000D+00  1.6299954827252D+00 -3.7256883664098D-01
102  1.0100000000000D+00  1.6058209630471D+00 -3.5180256605973D-01
103  1.0200000000000D+00  1.5711825919090D+00 -3.3078595886326D-01
104  1.0300000000000D+00  1.5266916358109D+00 -3.0964031662576D-01
105  1.0400000000000D+00  1.4730598582449D+00 -2.8848303161915D-01
106  1.0500000000000D+00  1.4110912707551D+00 -2.6742732808962D-01
107  1.0600000000000D+00  1.3416728475784D+00 -2.4658205088803D-01
108  1.0700000000000D+00  1.2657643222881D+00 -2.2605149918467D-01
109  1.0800000000000D+00  1.1843871961901D+00 -2.0593530254696D-01
110  1.0900000000000D+00  1.0986130997933D+00 -1.8632833618340D-01
111  1.1000000000000D+00  1.0095516577860D+00 -1.6732067175966D-01
112  1.1100000000000D+00  9.1833801509199D-01 -1.4899755986926D-01
113  1.1200000000000D+00  8.2612018782793D-01 -1.3143943991427D-01
114  1.1300000000000D+00  7.3404640566418D-01 -1.1472197297037D-01
115  1.1400000000000D+00  6.4325261311087D-01 -9.8916093046221D-02
116  1.1500000000000D+00  5.5485029756435D-01 -8.4088072057896D-02
117  1.1600000000000D+00  4.6991480795727D-01 -7.0299593806593D-02
118  1.1700000000000D+00  3.8947433817990D-01 -5.7607832644878D-02
119  1.1800000000000D+00  3.1449971489081D-01 -4.6065531607970D-02
120  1.1900000000000D+00  2.4589468219628D-01 -3.5721068709071D-02
121  1.2000000000000D+00  1.8448870820434D-01 -2.6618540081911D-02
122  1.2100000000000D+00  1.3102973292482D-01 -1.8797811807516D-02
123  1.2200000000000D+00  8.6173259047418D-02 -1.2295774533405D-02
124  1.2300000000000D+00  5.0415444700745D-02 -7.1399145936541D-03
125  1.2400000000000D+00  2.3968897269049D-02 -3.3344664294906D-03
126  1.2500000000000D+00  7.8332283873254D-03 -9.9900787788695D-04
127  1.2600000000000D+00  1.1680710932849D-03 -3.3413965008509D-05
128  1.2700000000000D+00 -1.9339201658786D-04  8.8647849838559D-05
129  1.2800000000000D+00  6.4627246614030D-05 -1.9322535839538D-05
130  1.2900000000000D+00  4.4064307559841D-05 -1.1587885455699D-05
131  1.3000000000000D+00 -1.5619313423038D-05  5.3345000085478D-06
132  1.3100000000000D+00 -8.6006700727976D-07 -4.7658941853337D-08
133  1.3200000000000D+00 -1.1384081538703D-06 -6.3082675595556D-08
134  1.3300000000000D+00  0.0000000000000D+00  0.0000000000000D+00
135  1.3400000000000D+00  0.0000000000000D+00  0.0000000000000D+00
136  1.3500000000000D+00  0.0000000000000D+00  0.0000000000000D+00
137  1.3600000000000D+00  0.0000000000000D+00  0.0000000000000D+00
138  1.3700000000000D+00  0.0000000000000D+00  0.0000000000000D+00
139  1.3800000000000D+00  0.0000000000000D+00  0.0000000000000D+00
140  1.3900000000000D+00  0.0000000000000D+00  0.0000000000000D+00
141  1.4000000000000D+00  0.0000000000000D+00  0.0000000000000D+00
142  1.4100000000000D+00  0.0000000000000D+00  0.0000000000000D+00
143  1.4200000000000D+00  0.0000000000000D+00  0.0000000000000D+00
144  1.4300000000000D+00  0.0000000000000D+00  0.0000000000000D+00
145  1.4400000000000D+00  0.0000000000000D+00  0.0000000000000D+00
146  1.4500000000000D+00  0.0000000000000D+00  0.0000000000000D+00
147  1.4600000000000D+00  0.0000000000000D+00  0.0000000000000D+00
148  1.4700000000000D+00  0.0000000000000D+00  0.0000000000000D+00
149  1.4800000000000D+00  0.0000000000000D+00  0.0000000000000D+00
150  1.4900000000000D+00  0.0000000000000D+00  0.0000000000000D+00
151  1.5000000000000D+00  0.0000000000000D+00  0.0000000000000D+00
152  1.5100000000000D+00  0.0000000000000D+00  0.0000000000000D+00
153  1.5200000000000D+00  0.0000000000000D+00  0.0000000000000D+00
154  1.5300000000000D+00  0.0000000000000D+00  0.0000000000000D+00
155  1.5400000000000D+00  0.0000000000000D+00  0.0000000000000D+00
156  1.5500000000000D+00  0.0000000000000D+00  0.0000000000000D+00
157  1.5600000000000D+00  0.0000000000000D+00  0.0000000000000D+00
158  1.5700000000000D+00  0.0000000000000D+00  0.0000000000000D+00
159  1.5800000000000D+00  0.0000000000000D+00  0.0000000000000D+00
160  1.5900000000000D+00  0.0000000000000D+00  0.0000000000000D+00
161  1.6000000000000D+00  0.0000000000000D+00  0.0000000000000D+00
162  1.6100000000000D+00  0.0000000000000D+00  0.0000000000000D+00
163  1.6200000000000D+00  0.0000000000000D+00  0.0000000000000D+00
164  1.6300000000000D+00  0.0000000000000D+00  0.0000000000000D+00
165  1.6400000000000D+00  0.0000000000000D+00  0.0000000000000D+00
166  1.6500000000000D+00  0.0000000000000D+00  0.0000000000000D+00
167  1.6600000000000D+00  0.0000000000000D+00  0.0000000000000D+00
168  1.6700000000000D+00  0.0000000000000D+00  0.0000000000000D+00
169  1.6800000000000D+00  0.0000000000000D+00  0.0000000000000D+00
170  1.6900000000000D+00  0.0000000000000D+00  0.0000000000000D+00
171  1.7000000000000D+00  0.0000000000000D+00  0.0000000000000D+00
172  1.7100000000000D+00  0.0000000000000D+00  0.0000000000000D+00
173  1.7200000000000D+00  0.0000000000000D+00  0.0000000000000D+00
174  1.7300000000000D+00  0.0000000000000D+00  0.0000000000000D+00
175  1.7400000000000D+00  0.0000000000000D+00  0.0000000000000D+00
176  1.7500000000000D+00  0.0000000000000D+00  0.0000000000000D+00
177  1.7600000000000D+00  0.0000000000000D+00  0.0000000000000D+00
178  1.7700000000000D+00  0.0000000000000D+00  0.0000000000000D+00
179  1.7800000000000D+00  0.0000000000000D+00  0.0000000000000D+00
180  1.7900000000000D+00  0.0000000000000D+00  0.0000000000000D+00
181  1.8000000000000D+00  0.0000000000000D+00  0.0000000000000D+00
182  1.8100000000000D+00  0.0000000000000D+00  0.0000000000000D+00
183  1.8200000000000D+00  0.0000000000000D+00  0.0000000000000D+00
184  1.8300000000000D+00  0.0000000000000D+00  0.0000000000000D+00
185  1.8400000000000D+00  0.0000000000000D+00  0.0000000000000D+00
186  1.8500000000000D+00  0.0000000000000D+00  0.0000000000000D+00
187  1.8600000000000D+00  0.0000000000000D+00  0.0000000000000D+00
188  1.8700000000000D+00  0.0000000000000D+00  0.0000000000000D+00
189  1.8800000000000D+00  0.0000000000000D+00  0.0000000000000D+00
190  1.8900000000000D+00  0.0000000000000D+00  0.0000000000000D+00
191  1.9000000000000D+00  0.0000000000000D+00  0.0000000000000D+00
192  1.9100000000000D+00  0.0000000000000D+00  0.0000000000000D+00
193  1.9200000000000D+00  0.0000000000000D+00  0.0000000000000D+00
194  1.9300000000000D+00  0.0000000000000D+00  0.0000000000000D+00
195  1.9400000000000D+00  0.0000000000000D+00  0.0000000000000D+00
196  1.9500000000000D+00  0.0000000000000D+00  0.0000000000000D+00
197  1.9600000000000D+00  0.0000000000000D+00  0.0000000000000D+00
198  1.9700000000000D+00  0.0000000000000D+00  0.0000000000000D+00
199  1.9800000000000D+00  0.0000000000000D+00  0.0000000000000D+00
200  1.9900000000000D+00  0.0000000000000D+00  0.0000000000000D+00
201  2.0000000000000D+00  0.0000000000000D+00  0.0000000000000D+00
202  2.0100000000000D+00  0.0000000000000D+00  0.0000000000000D+00
203  2.0200000000000D+00  0.0000000000000D+00  0.0000000000000D+00
204  2.0300000000000D+00  0.0000000000000D+00  0.0000000000000D+00
205  2.0400000000000D+00  0.0000000000000D+00  0.0000000000000D+00
206  2.0500000000000D+00  0.0000000000000D+00  0.0000000000000D+00
207  2.0600000000000D+00  0.0000000000000D+00  0.0000000000000D+00
208  2.0700000000000D+00  0.0000000000000D+00  0.0000000000000D+00
209  2.0800000000000D+00  0.0000000000000D+00  0.0000000000000D+00
210  2.0900000000000D+00  0.0000000000000D+00  0.0000000000000D+00
211  2.1000000000000D+00  0.0000000000000D+00  0.0000000000000D+00
212  2.1100000000000D+00  0.0000000000000D+00  0.0000000000000D+00
213  2.1200000000000D+00  0.0000000000000D+00  0.0000000000000D+00
214  2.1300000000000D+00  0.0000000000000D+00  0.0000000000000D+00
215  2.1400000000000D+00  0.0000000000000D+00  0.0000000000000D+00
216  2.1500000000000D+00  0.0000000000000D+00  0.0000000000000D+00
217  2.1600000000000D+00  0.0000000000000D+00  0.0000000000000D+00
218  2.1700000000000D+00  0.0000000000000D+00  0.0000000000000D+00
219  2.1800000000000D+00  0.0000000000000D+00  0.0000000000000D+00
220  2.1900000000000D+00  0.0000000000000D+00  0.0000000000000D+00
221  2.2000000000000D+00  0.0000000000000D+00  0.0000000000000D+00
222  2.2100000000000D+00  0.0000000000000D+00  0.0000000000000D+00
223  2.2200000000000D+00  0.0000000000000D+00  0.0000000000000D+00
224  2.2300000000000D+00  0.0000000000000D+00  0.0000000000000D+00
225  2.2400000000000D+00  0.0000000000000D+00  0.0000000000000D+00
226  2.2500000000000D+00  0.0000000000000D+00  0.0000000000000D+00
227  2.2600000000000D+00  0.0000000000000D+00  0.0000000000000D+00
228  2.2700000000000D+00  0.0000000000000D+00  0.0000000000000D+00
229  2.2800000000000D+00  0.0000000000000D+00  0.0000000000000D+00
230  2.2900000000000D+00  0.0000000000000D+00  0.0000000000000D+00
231  2.3000000000000D+00  0.0000000000000D+00  0.0000000000000D+00
232  2.3100000000000D+00  0.0000000000000D+00  0.0000000000000D+00
233  2.3200000000000D+00  0.0000000000000D+00  0.0000000000000D+00
234  2.3300000000000D+00  0.0000000000000D+00  0.0000000000000D+00
235  2.3400000000000D+00  0.0000000000000D+00  0.0000000000000D+00
236  2.3500000000000D+00  0.0000000000000D+00  0.0000000000000D+00
237  2.3600000000000D+00  0.0000000000000D+00  0.0000000000000D+00
238  2.3700000000000D+00  0.0000000000000D+00  0.0000000000000D+00
239  2.3800000000000D+00  0.0000000000000D+00  0.0000000000000D+00
240  2.3900000000000D+00  0.0000000000000D+00  0.0000000000000D+00
241  2.4000000000000D+00  0.0000000000000D+00  0.0000000000000D+00
242  2.4100000000000D+00  0.0000000000000D+00  0.0000000000000D+00
243  2.4200000000000D+00  0.0000000000000D+00  0.0000000000000D+00
244  2.4300000000000D+00  0.0000000000000D+00  0.0000000000000D+00
245  2.4400000000000D+00  0.0000000000000D+00  0.0000000000000D+00
246  2.4500000000000D+00  0.0000000000000D+00  0.0000000000000D+00
247  2.4600000000000D+00  0.0000000000000D+00  0.0000000000000D+00
248  2.4700000000000D+00  0.0000000000000D+00  0.0000000000000D+00
249  2.4800000000000D+00  0.0000000000000D+00  0.0000000000000D+00
250  2.4900000000000D+00  0.0000000000000D+00  0.0000000000000D+00
251  2.5000000000000D+00  0.0000000000000D+00  0.0000000000000D+00
252  2.5100000000000D+00  0.0000000000000D+00  0.0000000000000D+00
253  2.5200000000000D+00  0.0000000000000D+00  0.0000000000000D+00
254  2.5300000000000D+00  0.0000000000000D+00  0.0000000000000D+00
255  2.5400000000000D+00  0.0000000000000D+00  0.0000000000000D+00
256  2.5500000000000D+00  0.0000000000000D+00  0.0000000000000D+00
257  2.5600000000000D+00  0.0000000000000D+00  0.0000000000000D+00
258  2.5700000000000D+00  0.0000000000000D+00  0.0000000000000D+00
259  2.5800000000000D+00  0.0000000000000D+00  0.0000000000000D+00
260  2.5900000000000D+00  0.0000000000000D+00  0.0000000000000D+00
261  2.6000000000000D+00  0.0000000000000D+00  0.0000000000000D+00
262  2.6100000000000D+00  0.0000000000000D+00  0.0000000000000D+00
263  2.6200000000000D+00  0.0000000000000D+00  0.0000000000000D+00
264  2.6300000000000D+00  0.0000000000000D+00  0.0000000000000D+00
265  2.6400000000000D+00  0.0000000000000D+00  0.0000000000000D+00
266  2.6500000000000D+00  0.0000000000000D+00  0.0000000000000D+00
267  2.6600000000000D+00  0.0000000000000D+00  0.0000000000000D+00
268  2.6700000000000D+00  0.0000000000000D+00  0.0000000000000D+00
269  2.6800000000000D+00  0.0000000000000D+00  0.0000000000000D+00
270  2.6900000000000D+00  0.0000000000000D+00  0.0000000000000D+00
271  2.7000000000000D+00  0.0000000000000D+00  0.0000000000000D+00
272  2.7100000000000D+00  0.0000000000000D+00  0.0000000000000D+00
273  2.7200000000000D+00  0.0000000000000D+00  0.0000000000000D+00
274  2.7300000000000D+00  0.0000000000000D+00  0.0000000000000D+00
275  2.7400000000000D+00  0.0000000000000D+00  0.0000000000000D+00
276  2.7500000000000D+00  0.0000000000000D+00  0.0000000000000D+00
277  2.7600000000000D+00  0.0000000000000D+00  0.0000000000000D+00
278  2.7700000000000D+00  0.0000000000000D+00  0.0000000000000D+00
279  2.7800000000000D+00  0.0000000000000D+00  0.0000000000000D+00
280  2.7900000000000D+00  0.0000000000000D+00  0.0000000000000D+00
281  2.8000000000000D+00  0.0000000000000D+00  0.0000000000000D+00
282  2.8100000000000D+00  0.0000000000000D+00  0.0000000000000D+00
283  2.8200000000000D+00  0.0000000000000D+00  0.0000000000000D+00
284  2.8300000000000D+00  0.0000000000000D+00  0.0000000000000D+00
285  2.8400000000000D+00  0.0000000000000D+00  0.0000000000000D+00
286  2.8500000000000D+00  0.0000000000000D+00  0.0000000000000D+00
287  2.8600000000000D+00  0.0000000000000D+00  0.0000000000000D+00
288  2.8700000000000D+00  0.0000000000000D+00  0.0000000000000D+00
289  2.8800000000000D+00  0.0000000000000D+00  0.0000000000000D+00
290  2.8900000000000D+00  0.0000000000000D+00  0.0000000000000D+00
291  2.9000000000000D+00  0.0000000000000D+00  0.0000000000000D+00
292  2.9100000000000D+00  0.0000000000000D+00  0.0000000000000D+00
293  2.9200000000000D+00  0.0000000000000D+00  0.0000000000000D+00
294  2.9300000000000D+00  0.0000000000000D+00  0.0000000000000D+00
295  2.9400000000000D+00  0.0000000000000D+00  0.0000000000000D+00
296  2.9500000000000D+00  0.0000000000000D+00  0.0000000000000D+00
297  2.9600000000000D+00  0.0000000000000D+00  0.0000000000000D+00
298  2.9700000000000D+00  0.0000000000000D+00  0.0000000000000D+00
299  2.9800000000000D+00  0.0000000000000D+00  0.0000000000000D+00
300  2.9900000000000D+00  0.0000000000000D+00  0.0000000000000D+00
301  3.0000000000000D+00  0.0000000000000D+00  0.0000000000000D+00
302  3.0100000000000D+00  0.0000000000000D+00  0.0000000000000D+00
303  3.0200000000000D+00  0.0000000000000D+00  0.0000000000000D+00
304  3.0300000000000D+00  0.0000000000000D+00  0.0000000000000D+00
305  3.0400000000000D+00  0.0000000000000D+00  0.0000000000000D+00
306  3.0500000000000D+00  0.0000000000000D+00  0.0000000000000D+00
307  3.0600000000000D+00  0.0000000000000D+00  0.0000000000000D+00
308  3.0700000000000D+00  0.0000000000000D+00  0.0000000000000D+00
309  3.0800000000000D+00  0.0000000000000D+00  0.0000000000000D+00
310  3.0900000000000D+00  0.0000000000000D+00  0.0000000000000D+00
311  3.1000000000000D+00  0.0000000000000D+00  0.0000000000000D+00
312  3.1100000000000D+00  0.0000000000000D+00  0.0000000000000D+00
313  3.1200000000000D+00  0.0000000000000D+00  0.0000000000000D+00
314  3.1300000000000D+00  0.0000000000000D+00  0.0000000000000D+00
315  3.1400000000000D+00  0.0000000000000D+00  0.0000000000000D+00
316  3.1500000000000D+00  0.0000000000000D+00  0.0000000000000D+00
317  3.1600000000000D+00  0.0000000000000D+00  0.0000000000000D+00
318  3.1700000000000D+00  0.0000000000000D+00  0.0000000000000D+00
319  3.1800000000000D+00  0.0000000000000D+00  0.0000000000000D+00
320  3.1900000000000D+00  0.0000000000000D+00  0.0000000000000D+00
321  3.2000000000000D+00  0.0000000000000D+00  0.0000000000000D+00
322  3.2100000000000D+00  0.0000000000000D+00  0.0000000000000D+00
323  3.2200000000000D+00  0.0000000000000D+00  0.0000000000000D+00
324  3.2300000000000D+00  0.0000000000000D+00  0.0000000000000D+00
325  3.2400000000000D+00  0.0000000000000D+00  0.0000000000000D+00
326  3.2500000000000D+00  0.0000000000000D+00  0.0000000000000D+00
327  3.2600000000000D+00  0.0000000000000D+00  0.0000000000000D+00
328  3.2700000000000D+00  0.0000000000000D+00  0.0000000000000D+00
329  3.2800000000000D+00  0.0000000000000D+00  0.0000000000000D+00
330  3.2900000000000D+00  0.0000000000000D+00  0.0000000000000D+00
331  3.3000000000000D+00  0.0000000000000D+00  0.0000000000000D+00
332  3.3100000000000D+00  0.0000000000000D+00  0.0000000000000D+00
333  3.3200000000000D+00  0.0000000000000D+00  0.0000000000000D+00
334  3.3300000000000D+00  0.0000000000000D+00  0.0000000000000D+00
335  3.3400000000000D+00  0.0000000000000D+00  0.0000000000000D+00
336  3.3500000000000D+00  0.0000000000000D+00  0.0000000000000D+00
337  3.3600000000000D+00  0.0000000000000D+00  0.0000000000000D+00
338  3.3700000000000D+00  0.0000000000000D+00  0.0000000000000D+00
339  3.3800000000000D+00  0.0000000000000D+00  0.0000000000000D+00
340  3.3900000000000D+00  0.0000000000000D+00  0.0000000000000D+00
341  3.4000000000000D+00  0.0000000000000D+00  0.0000000000000D+00
342  3.4100000000000D+00  0.0000000000000D+00  0.0000000000000D+00
343  3.4200000000000D+00  0.0000000000000D+00  0.0000000000000D+00
344  3.4300000000000D+00  0.0000000000000D+00  0.0000000000000D+00
345  3.4400000000000D+00  0.0000000000000D+00  0.0000000000000D+00
346  3.4500000000000D+00  0.0000000000000D+00  0.0000000000000D+00
347  3.4600000000000D+00  0.0000000000000D+00  0.0000000000000D+00
348  3.4700000000000D+00  0.0000000000000D+00  0.0000000000000D+00
349  3.4800000000000D+00  0.0000000000000D+00  0.0000000000000D+00
350  3.4900000000000D+00  0.0000000000000D+00  0.0000000000000D+00
351  3.5000000000000D+00  0.0000000000000D+00  0.0000000000000D+00
352  3.5100000000000D+00  0.0000000000000D+00  0.0000000000000D+00
353  3.5200000000000D+00  0.0000000000000D+00  0.0000000000000D+00
354  3.5300000000000D+00  0.0000000000000D+00  0.0000000000000D+00
355  3.5400000000000D+00  0.0000000000000D+00  0.0000000000000D+00
356  3.5500000000000D+00  0.0000000000000D+00  0.0000000000000D+00
357  3.5600000000000D+00  0.0000000000000D+00  0.0000000000000D+00
358  3.5700000000000D+00  0.0000000000000D+00  0.0000000000000D+00
359  3.5800000000000D+00  0.0000000000000D+00  0.0000000000000D+00
360  3.5900000000000D+00  0.0000000000000D+00  0.0000000000000D+00
361  3.6000000000000D+00  0.0000000000000D+00  0.0000000000000D+00
362  3.6100000000000D+00  0.0000000000000D+00  0.0000000000000D+00
363  3.6200000000000D+00  0.0000000000000D+00  0.0000000000000D+00
364  3.6300000000000D+00  0.0000000000000D+00  0.0000000000000D+00
365  3.6400000000000D+00  0.0000000000000D+00  0.0000000000000D+00
366  3.6500000000000D+00  0.0000000000000D+00  0.0000000000000D+00
367  3.6600000000000D+00  0.0000000000000D+00  0.0000000000000D+00
368  3.6700000000000D+00  0.0000000000000D+00  0.0000000000000D+00
369  3.6800000000000D+00  0.0000000000000D+00  0.0000000000000D+00
370  3.6900000000000D+00  0.0000000000000D+00  0.0000000000000D+00
371  3.7000000000000D+00  0.0000000000000D+00  0.0000000000000D+00
372  3.7100000000000D+00  0.0000000000000D+00  0.0000000000000D+00
373  3.7200000000000D+00  0.0000000000000D+00  0.0000000000000D+00
374  3.7300000000000D+00  0.0000000000000D+00  0.0000000000000D+00
375  3.7400000000000D+00  0.0000000000000D+00  0.0000000000000D+00
376  3.7500000000000D+00  0.0000000000000D+00  0.0000000000000D+00
377  3.7600000000000D+00  0.0000000000000D+00  0.0000000000000D+00
378  3.7700000000000D+00  0.0000000000000D+00  0.0000000000000D+00
379  3.7800000000000D+00  0.0000000000000D+00  0.0000000000000D+00
380  3.7900000000000D+00  0.0000000000000D+00  0.0000000000000D+00
381  3.8000000000000D+00  0.0000000000000D+00  0.0000000000000D+00
382  3.8100000000000D+00  0.0000000000000D+00  0.0000000000000D+00
383  3.8200000000000D+00  0.0000000000000D+00  0.0000000000000D+00
384  3.8300000000000D+00  0.0000000000000D+00  0.0000000000000D+00
385  3.8400000000000D+00  0.0000000000000D+00  0.0000000000000D+00
386  3.8500000000000D+00  0.0000000000000D+00  0.0000000000000D+00
387  3.8600000000000D+00  0.0000000000000D+00  0.0000000000000D+00
388  3.8700000000000D+00  0.0000000000000D+00  0.0000000000000D+00
389  3.8800000000000D+00  0.0000000000000D+00  0.0000000000000D+00
390  3.8900000000000D+00  0.0000000000000D+00  0.0000000000000D+00
391  3.9000000000000D+00  0.0000000000000D+00  0.0000000000000D+00
392  3.9100000000000D+00  0.0000000000000D+00  0.0000000000000D+00
393  3.9200000000000D+00  0.0000000000000D+00  0.0000000000000D+00
394  3.9300000000000D+00  0.0000000000000D+00  0.0000000000000D+00
395  3.9400000000000D+00  0.0000000000000D+00  0.0000000000000D+00
396  3.9500000000000D+00  0.0000000000000D+00  0.0000000000000D+00
397  3.9600000000000D+00  0.0000000000000D+00  0.0000000000000D+00
398  3.9700000000000D+00  0.0000000000000D+00  0.0000000000000D+00
399  3.9800000000000D+00  0.0000000000000D+00  0.0000000000000D+00
400  3.9900000000000D+00  0.0000000000000D+00  0.0000000000000D+00
401  4.0000000000000D+00  0.0000000000000D+00  0.0000000000000D+00
402  4.0100000000000D+00  0.0000000000000D+00  0.0000000000000D+00
403  4.0200000000000D+00  0.0000000000000D+00  0.0000000000000D+00
404  4.0300000000000D+00  0.0000000000000D+00  0.0000000000000D+00
405  4.0400000000000D+00  0.0000000000000D+00  0.0000000000000D+00
406  4.0500000000000D+00  0.0000000000000D+00  0.0000000000000D+00
407  4.0600000000000D+00  0.0000000000000D+00  0.0000000000000D+00
408  4.0700000000000D+00  0.0000000000000D+00  0.0000000000000D+00
409  4.0800000000000D+00  0.0000000000000D+00  0.0000000000000D+00
410  4.0900000000000D+00  0.0000000000000D+00  0.0000000000000D+00
411  4.1000000000000D+00  0.0000000000000D+00  0.0000000000000D+00
412  4.1100000000000D+00  0.0000000000000D+00  0.0000000000000D+00
413  4.1200000000000D+00  0.0000000000000D+00  0.0000000000000D+00
414  4.1300000000000D+00  0.0000000000000D+00  0.0000000000000D+00
415  4.1400000000000D+00  0.0000000000000D+00  0.0000000000000D+00
416  4.1500000000000D+00  0.0000000000000D+00  0.0000000000000D+00
417  4.1600000000000D+00  0.0000000000000D+00  0.0000000000000D+00
418  4.1700000000000D+00  0.0000000000000D+00  0.0000000000000D+00
419  4.1800000000000D+00  0.0000000000000D+00  0.0000000000000D+00
420  4.1900000000000D+00  0.0000000000000D+00  0.0000000000000D+00
421  4.2000000000000D+00  0.0000000000000D+00  0.0000000000000D+00
422  4.2100000000000D+00  0.0000000000000D+00  0.0000000000000D+00
423  4.2200000000000D+00  0.0000000000000D+00  0.0000000000000D+00
424  4.2300000000000D+00  0.0000000000000D+00  0.0000000000000D+00
425  4.2400000000000D+00  0.0000000000000D+00  0.0000000000000D+00
426  4.2500000000000D+00  0.0000000000000D+00  0.0000000000000D+00
427  4.2600000000000D+00  0.0000000000000D+00  0.0000000000000D+00
428  4.2700000000000D+00  0.0000000000000D+00  0.0000000000000D+00
429  4.2800000000000D+00  0.0000000000000D+00  0.0000000000000D+00
430  4.2900000000000D+00  0.0000000000000D+00  0.0000000000000D+00
431  4.3000000000000D+00  0.0000000000000D+00  0.0000000000000D+00
432  4.3100000000000D+00  0.0000000000000D+00  0.0000000000000D+00
433  4.3200000000000D+00  0.0000000000000D+00  0.0000000000000D+00
434  4.3300000000000D+00  0.0000000000000D+00  0.0000000000000D+00
435  4.3400000000000D+00  0.0000000000000D+00  0.0000000000000D+00
436  4.3500000000000D+00  0.0000000000000D+00  0.0000000000000D+00
437  4.3600000000000D+00  0.0000000000000D+00  0.0000000000000D+00
438  4.3700000000000D+00  0.0000000000000D+00  0.0000000000000D+00
439  4.3800000000000D+00  0.0000000000000D+00  0.0000000000000D+00
440  4.3900000000000D+00  0.0000000000000D+00  0.0000000000000D+00
441  4.4000000000000D+00  0.0000000000000D+00  0.0000000000000D+00
442  4.4100000000000D+00  0.0000000000000D+00  0.0000000000000D+00
443  4.4200000000000D+00  0.0000000000000D+00  0.0000000000000D+00