Ar    ONCVPSP-3.2.3  r_core=   1.56397   1.56397   1.56397
18.0000      8.0000      161006    zatom,zion,pspd
8   -1012   2     4   400     0    pspcod,pspxc,lmax,lloc,mmax,r2well
3.99000000  7.00000000  0.00000000    rchrg fchrg qchrg
2     2     2     0     0    nproj
1     1           extension_switch
0                         8.3823746237716D+00  4.1265602487423D-01
1  0.0000000000000D+00 -8.6236573437759D-11  5.2186671650745D-10
2  1.0000000000000D-02  6.2759245248957D-02 -3.5277814550975D-02
3  2.0000000000000D-02  1.2540196270812D-01 -7.0386060039855D-02
4  3.0000000000000D-02  1.8781198714508D-01 -1.0515625357532D-01
5  4.0000000000000D-02  2.4987387624881D-01 -1.3942207350524D-01
6  5.0000000000000D-02  3.1147326662924D-01 -1.7302041241487D-01
7  6.0000000000000D-02  3.7249722332526D-01 -2.0579239735474D-01
8  7.0000000000000D-02  4.3283458076003D-01 -2.3758436699489D-01
9  8.0000000000000D-02  4.9237627316821D-01 -2.6824879592433D-01
10  9.0000000000000D-02  5.5101565262601D-01 -2.9764515695456D-01
11  1.0000000000000D-01  6.0864879293873D-01 -3.2564071303612D-01
12  1.1000000000000D-01  6.6517477778189D-01 -3.5211123124920D-01
13  1.2000000000000D-01  7.2049597164767D-01 -3.7694161227059D-01
14  1.3000000000000D-01  7.7451827231849D-01 -4.0002642974022D-01
15  1.4000000000000D-01  8.2715134376949D-01 -4.2127037503754D-01
16  1.5000000000000D-01  8.7830882859224D-01 -4.4058860411702D-01
17  1.6000000000000D-01  9.2790853922797D-01 -4.5790698423033D-01
18  1.7000000000000D-01  9.7587262750018D-01 -4.7316223956403D-01
19  1.8000000000000D-01  1.0221277321393D+00 -4.8630199603248D-01
20  1.9000000000000D-01  1.0666051041954D+00 -4.9728472666962D-01
21  2.0000000000000D-01  1.1092407104345D+00 -5.0607960024617D-01
22  2.1000000000000D-01  1.1499753150094D+00 -5.1266623688544D-01
23  2.2000000000000D-01  1.1887545398837D+00 -5.1703437554729D-01
24  2.3000000000000D-01  1.2255289046656D+00 -5.1918345928121D-01
25  2.4000000000000D-01  1.2602538466741D+00 -5.1912214510452D-01
26  2.5000000000000D-01  1.2928897222132D+00 -5.1686774622604D-01
27  2.6000000000000D-01  1.3234017901682D+00 -5.1244561510106D-01
28  2.7000000000000D-01  1.3517601791559D+00 -5.0588847645743D-01
29  2.8000000000000D-01  1.3779398395671D+00 -4.9723571996875D-01
30  2.9000000000000D-01  1.4019204819175D+00 -4.8653266266142D-01
31  3.0000000000000D-01  1.4236865029918D+00 -4.7382979142169D-01
32  3.1000000000000D-01  1.4432269013019D+00 -4.5918199611424D-01
33  3.2000000000000D-01  1.4605351834055D+00 -4.4264780383204D-01
34  3.3000000000000D-01  1.4756092626294D+00 -4.2428862466914D-01
35  3.4000000000000D-01  1.4884513517196D+00 -4.0416801914292D-01
36  3.5000000000000D-01  1.4990678509010D+00 -3.8235099699668D-01
37  3.6000000000000D-01  1.5074692327653D+00 -3.5890335658792D-01
38  3.7000000000000D-01  1.5136699253294D+00 -3.3389107342236D-01
39  3.8000000000000D-01  1.5176881945042D+00 -3.0737974563374D-01
40  3.9000000000000D-01  1.5195460271050D+00 -2.7943410334667D-01
41  4.0000000000000D-01  1.5192690154047D+00 -2.5011758790290D-01
42  4.1000000000000D-01  1.5168862440903D+00 -2.1949200589374D-01
43  4.2000000000000D-01  1.5124301803356D+00 -1.8761726183593D-01
44  4.3000000000000D-01  1.5059365675414D+00 -1.5455117216822D-01
45  4.4000000000000D-01  1.4974443231335D+00 -1.2034936204784D-01
46  4.5000000000000D-01  1.4869954406388D+00 -8.5065245203199D-02
47  4.6000000000000D-01  1.4746348960932D+00 -4.8750085868939D-02
48  4.7000000000000D-01  1.4604105586663D+00 -1.1453140608073D-02
49  4.8000000000000D-01  1.4443731052275D+00  2.6778123373064D-02
50  4.9000000000000D-01  1.4265759384204D+00  6.5897737968250D-02
51  5.0000000000000D-01  1.4070751076630D+00  1.0586087762731D-01
52  5.1000000000000D-01  1.3859292323602D+00  1.4662344321134D-01
53  5.2000000000000D-01  1.3631994264850D+00  1.8814159388115D-01
54  5.3000000000000D-01  1.3389492235822D+00  2.3037123550482D-01
55  5.4000000000000D-01  1.3132445011545D+00  2.7326747481072D-01
56  5.5000000000000D-01  1.2861534033182D+00  3.1678404913467D-01
57  5.6000000000000D-01  1.2577462605636D+00  3.6087274210265D-01
58  5.7000000000000D-01  1.2280955054229D+00  4.0548279594586D-01
59  5.8000000000000D-01  1.1972755828362D+00  4.5056033135918D-01
60  5.9000000000000D-01  1.1653628540199D+00  4.9604778588028D-01
61  6.0000000000000D-01  1.1324354926740D+00  5.4188338168425D-01
62  6.1000000000000D-01  1.0985733724214D+00  5.8800063345732D-01
63  6.2000000000000D-01  1.0638579444488D+00  6.3432790663286D-01
64  6.3000000000000D-01  1.0283721044192D+00  6.8078803574749D-01
65  6.4000000000000D-01  9.9220004784394D-01  7.2729801201377D-01
66  6.5000000000000D-01  9.5542711323891D-01  7.7376874840538D-01
67  6.6000000000000D-01  9.1813961254538D-01  8.2010492963397D-01
68  6.7000000000000D-01  8.8042464846563D-01  8.6620495336309D-01
69  6.8000000000000D-01  8.4236991854660D-01  9.1196096786932D-01
70  6.9000000000000D-01  8.0406350603959D-01  9.5725901013785D-01
71  7.0000000000000D-01  7.6559365776628D-01  1.0019792470903D+00
72  7.1000000000000D-01  7.2704854943095D-01  1.0459963212845D+00
73  7.2000000000000D-01  6.8851603903056D-01  1.0891798010364D+00
74  7.3000000000000D-01  6.5008340922667D-01  1.1313947335008D+00
75  7.4000000000000D-01  6.1183709975348D-01  1.1725022978213D+00
76  7.5000000000000D-01  5.7386243114018D-01  1.2123605540614D+00
77  7.6000000000000D-01  5.3624332122253D-01  1.2508252822427D+00
78  7.7000000000000D-01  4.9906199610362D-01  1.2877509044955D+00
79  7.8000000000000D-01  4.6239869739419D-01  1.3229914820620D+00
80  7.9000000000000D-01  4.2633138771834D-01  1.3564017777193D+00
81  8.0000000000000D-01  3.9093545660527D-01  1.3878383731087D+00
82  8.1000000000000D-01  3.5628342900251D-01  1.4171608294961D+00
83  8.2000000000000D-01  3.2244467873674D-01  1.4442328796561D+00
84  8.3000000000000D-01  2.8948514931468D-01  1.4689236378739D+00
85  8.4000000000000D-01  2.5746708449557D-01  1.4911088145232D+00
86  8.5000000000000D-01  2.2644877107860D-01  1.5106719212907D+00
87  8.6000000000000D-01  1.9648429633190D-01  1.5275054529066D+00
88  8.7000000000000D-01  1.6762332244349D-01  1.5415120311975D+00
89  8.8000000000000D-01  1.3991088029957D-01  1.5526054974077D+00
90  8.9000000000000D-01  1.1338718479130D-01  1.5607119390489D+00
91  9.0000000000000D-01  8.8087473718363D-02  1.5657706380148D+00
92  9.1000000000000D-01  6.4041872197670D-02  1.5677349273556D+00
93  9.2000000000000D-01  4.1275284299066D-02  1.5665729449210D+00
94  9.3000000000000D-01  1.9807313418878D-02  1.5622682730606D+00
95  9.4000000000000D-01 -3.4778733120894D-04  1.5548204546866D+00
96  9.5000000000000D-01 -1.9181133696367D-02  1.5442453772659D+00
97  9.6000000000000D-01 -3.6689197059834D-02  1.5305755176823D+00
98  9.7000000000000D-01 -5.2873758966972D-02  1.5138600423954D+00
99  9.8000000000000D-01 -6.7741833225523D-02  1.4941647588978D+00
100  9.9000000000000D-01 -8.1305555721382D-02  1.4715719161174D+00
101  1.0000000000000D+00 -9.3582042396678D-02  1.4461798530776D+00
102  1.0100000000000D+00 -1.0459321615903D-01  1.4181024969058D+00
103  1.0200000000000D+00 -1.1436560379422D-01  1.3874687129730D+00
104  1.0300000000000D+00 -1.2293010426283D-01  1.3544215116892D+00
105  1.0400000000000D+00 -1.3032173005632D-01  1.3191171181649D+00
106  1.0500000000000D+00 -1.3657932357776D-01  1.2817239126364D+00
107  1.0600000000000D+00 -1.4174525075734D-01  1.2424212509809D+00
108  1.0700000000000D+00 -1.4586507438974D-01  1.2013981763133D+00
109  1.0800000000000D+00 -1.4898720988042D-01  1.1588520338678D+00
110  1.0900000000000D+00 -1.5116256629520D-01  1.1149870026601D+00
111  1.1000000000000D+00 -1.5244417577432D-01  1.0700125585032D+00
112  1.1100000000000D+00 -1.5288681450200D-01  1.0241418838022D+00
113  1.1200000000000D+00 -1.5254661854468D-01  9.7759024042944D-01
114  1.1300000000000D+00 -1.5148069792542D-01  9.3057332242759D-01
115  1.1400000000000D+00 -1.4974675233349D-01  8.8330560566960D-01
116  1.1500000000000D+00 -1.4740269188014D-01  8.3599871179698D-01
117  1.1600000000000D+00 -1.4450626625879D-01  7.8885980371494D-01
118  1.1700000000000D+00 -1.4111470559204D-01  7.4209002963971D-01
119  1.1800000000000D+00 -1.3728437611160D-01  6.9588303214590D-01
120  1.1900000000000D+00 -1.3307045373022D-01  6.5042353830838D-01
121  1.2000000000000D+00 -1.2852661830196D-01  6.0588604582070D-01
122  1.2100000000000D+00 -1.2370477115401D-01  5.6243361892510D-01
123  1.2200000000000D+00 -1.1865477830215D-01  5.2021680717019D-01
124  1.2300000000000D+00 -1.1342424140920D-01  4.7937269826336D-01
125  1.2400000000000D+00 -1.0805829820991D-01  4.4002411456190D-01
126  1.2500000000000D+00 -1.0259945387913D-01  4.0227896148352D-01
127  1.2600000000000D+00 -9.7087444495256D-02  3.6622973445578D-01
128  1.2700000000000D+00 -9.1559133208257D-02  3.3195318817555D-01
129  1.2800000000000D+00 -8.6048439520714D-02  2.9951017088236D-01
130  1.2900000000000D+00 -8.0586301765665D-02  2.6894562465888D-01
131  1.3000000000000D+00 -7.5200672166473D-02  2.4028874903525D-01
132  1.3100000000000D+00 -6.9916543811808D-02  2.1355332488568D-01
133  1.3200000000000D+00 -6.4756008452248D-02  1.8873819333998D-01
134  1.3300000000000D+00 -5.9738343329182D-02  1.6582788064968D-01
135  1.3400000000000D+00 -5.4880125400006D-02  1.4479336078099D-01
136  1.3500000000000D+00 -5.0195370654759D-02  1.2559294388670D-01
137  1.3600000000000D+00 -4.5695695796231D-02  1.0817327645663D-01
138  1.3700000000000D+00 -4.1390499820859D-02  9.2470440428685D-02
139  1.3800000000000D+00 -3.7287162073644D-02  7.8411133222831D-02
140  1.3900000000000D+00 -3.3391253611591D-02  6.5913912066947D-02
141  1.4000000000000D+00 -2.9706758448143D-02  5.4890484578521D-02
142  1.4100000000000D+00 -2.6236300826429D-02  4.5247025111163D-02
143  1.4200000000000D+00 -2.2981374974802D-02  3.6885498133195D-02
144  1.4300000000000D+00 -1.9942573315002D-02  2.9704967139170D-02
145  1.4400000000000D+00 -1.7119809440409D-02  2.3602869464547D-02
146  1.4500000000000D+00 -1.4512531786848D-02  1.8476235270405D-02
147  1.4600000000000D+00 -1.2119923584153D-02  1.4222824039155D-02
148  1.4700000000000D+00 -9.9410904972540D-03  1.0742203922166D-02
149  1.4800000000000D+00 -7.9752110739075D-03  7.9365729398112D-03
150  1.4900000000000D+00 -6.2217199186264D-03  5.7119173629490D-03
151  1.5000000000000D+00 -4.6803882364886D-03  3.9784046578077D-03
152  1.5100000000000D+00 -3.3513931327490D-03  2.6495853914091D-03
153  1.5200000000000D+00 -2.2360150351139D-03  1.6470464781119D-03
154  1.5300000000000D+00 -1.3322661741660D-03  9.0316264723742D-04
155  1.5400000000000D+00 -6.4833217668193D-04  3.6987101732740D-04
156  1.5500000000000D+00 -2.0528198554580D-04  1.7116234433582D-05
157  1.5600000000000D+00  1.0013565358718D-05 -1.5772713650816D-04
158  1.5700000000000D+00  5.2349454129065D-05 -1.4138586710648D-04
159  1.5800000000000D+00  1.2410719947938D-05 -2.8036407374929D-05
160  1.5900000000000D+00 -1.1197286856812D-05  2.3815245954835D-05
161  1.6000000000000D+00 -2.6892666943070D-06  5.4911614239371D-06
162  1.6100000000000D+00  2.2358248541308D-06 -5.1351378783849D-06
163  1.6200000000000D+00  3.1857203249492D-07 -7.1676678743230D-07
164  1.6300000000000D+00 -1.2511982722428D-07  4.9876288350594D-07
165  1.6400000000000D+00 -7.5906458480959D-09  3.0258452995482D-08
166  1.6500000000000D+00  0.0000000000000D+00  0.0000000000000D+00
167  1.6600000000000D+00  0.0000000000000D+00  0.0000000000000D+00
168  1.6700000000000D+00  0.0000000000000D+00  0.0000000000000D+00
169  1.6800000000000D+00  0.0000000000000D+00  0.0000000000000D+00
170  1.6900000000000D+00  0.0000000000000D+00  0.0000000000000D+00
171  1.7000000000000D+00  0.0000000000000D+00  0.0000000000000D+00
172  1.7100000000000D+00  0.0000000000000D+00  0.0000000000000D+00
173  1.7200000000000D+00  0.0000000000000D+00  0.0000000000000D+00
174  1.7300000000000D+00  0.0000000000000D+00  0.0000000000000D+00
175  1.7400000000000D+00  0.0000000000000D+00  0.0000000000000D+00
176  1.7500000000000D+00  0.0000000000000D+00  0.0000000000000D+00
177  1.7600000000000D+00  0.0000000000000D+00  0.0000000000000D+00
178  1.7700000000000D+00  0.0000000000000D+00  0.0000000000000D+00
179  1.7800000000000D+00  0.0000000000000D+00  0.0000000000000D+00
180  1.7900000000000D+00  0.0000000000000D+00  0.0000000000000D+00
181  1.8000000000000D+00  0.0000000000000D+00  0.0000000000000D+00
182  1.8100000000000D+00  0.0000000000000D+00  0.0000000000000D+00
183  1.8200000000000D+00  0.0000000000000D+00  0.0000000000000D+00
184  1.8300000000000D+00  0.0000000000000D+00  0.0000000000000D+00
185  1.8400000000000D+00  0.0000000000000D+00  0.0000000000000D+00
186  1.8500000000000D+00  0.0000000000000D+00  0.0000000000000D+00
187  1.8600000000000D+00  0.0000000000000D+00  0.0000000000000D+00
188  1.8700000000000D+00  0.0000000000000D+00  0.0000000000000D+00
189  1.8800000000000D+00  0.0000000000000D+00  0.0000000000000D+00
190  1.8900000000000D+00  0.0000000000000D+00  0.0000000000000D+00
191  1.9000000000000D+00  0.0000000000000D+00  0.0000000000000D+00
192  1.9100000000000D+00  0.0000000000000D+00  0.0000000000000D+00
193  1.9200000000000D+00  0.0000000000000D+00  0.0000000000000D+00
194  1.9300000000000D+00  0.0000000000000D+00  0.0000000000000D+00
195  1.9400000000000D+00  0.0000000000000D+00  0.0000000000000D+00
196  1.9500000000000D+00  0.0000000000000D+00  0.0000000000000D+00
197  1.9600000000000D+00  0.0000000000000D+00  0.0000000000000D+00
198  1.9700000000000D+00  0.0000000000000D+00  0.0000000000000D+00
199  1.9800000000000D+00  0.0000000000000D+00  0.0000000000000D+00
200  1.9900000000000D+00  0.0000000000000D+00  0.0000000000000D+00
201  2.0000000000000D+00  0.0000000000000D+00  0.0000000000000D+00
202  2.0100000000000D+00  0.0000000000000D+00  0.0000000000000D+00
203  2.0200000000000D+00  0.0000000000000D+00  0.0000000000000D+00
204  2.0300000000000D+00  0.0000000000000D+00  0.0000000000000D+00
205  2.0400000000000D+00  0.0000000000000D+00  0.0000000000000D+00
206  2.0500000000000D+00  0.0000000000000D+00  0.0000000000000D+00
207  2.0600000000000D+00  0.0000000000000D+00  0.0000000000000D+00
208  2.0700000000000D+00  0.0000000000000D+00  0.0000000000000D+00
209  2.0800000000000D+00  0.0000000000000D+00  0.0000000000000D+00
210  2.0900000000000D+00  0.0000000000000D+00  0.0000000000000D+00
211  2.1000000000000D+00  0.0000000000000D+00  0.0000000000000D+00
212  2.1100000000000D+00  0.0000000000000D+00  0.0000000000000D+00
213  2.1200000000000D+00  0.0000000000000D+00  0.0000000000000D+00
214  2.1300000000000D+00  0.0000000000000D+00  0.0000000000000D+00
215  2.1400000000000D+00  0.0000000000000D+00  0.0000000000000D+00
216  2.1500000000000D+00  0.0000000000000D+00  0.0000000000000D+00
217  2.1600000000000D+00  0.0000000000000D+00  0.0000000000000D+00
218  2.1700000000000D+00  0.0000000000000D+00  0.0000000000000D+00
219  2.1800000000000D+00  0.0000000000000D+00  0.0000000000000D+00
220  2.1900000000000D+00  0.0000000000000D+00  0.0000000000000D+00
221  2.2000000000000D+00  0.0000000000000D+00  0.0000000000000D+00
222  2.2100000000000D+00  0.0000000000000D+00  0.0000000000000D+00
223  2.2200000000000D+00  0.0000000000000D+00  0.0000000000000D+00
224  2.2300000000000D+00  0.0000000000000D+00  0.0000000000000D+00
225  2.2400000000000D+00  0.0000000000000D+00  0.0000000000000D+00
226  2.2500000000000D+00  0.0000000000000D+00  0.0000000000000D+00
227  2.2600000000000D+00  0.0000000000000D+00  0.0000000000000D+00
228  2.2700000000000D+00  0.0000000000000D+00  0.0000000000000D+00
229  2.2800000000000D+00  0.0000000000000D+00  0.0000000000000D+00
230  2.2900000000000D+00  0.0000000000000D+00  0.0000000000000D+00
231  2.3000000000000D+00  0.0000000000000D+00  0.0000000000000D+00
232  2.3100000000000D+00  0.0000000000000D+00  0.0000000000000D+00
233  2.3200000000000D+00  0.0000000000000D+00  0.0000000000000D+00
234  2.3300000000000D+00  0.0000000000000D+00  0.0000000000000D+00
235  2.3400000000000D+00  0.0000000000000D+00  0.0000000000000D+00
236  2.3500000000000D+00  0.0000000000000D+00  0.0000000000000D+00
237  2.3600000000000D+00  0.0000000000000D+00  0.0000000000000D+00
238  2.3700000000000D+00  0.0000000000000D+00  0.0000000000000D+00
239  2.3800000000000D+00  0.0000000000000D+00  0.0000000000000D+00
240  2.3900000000000D+00  0.0000000000000D+00  0.0000000000000D+00
241  2.4000000000000D+00  0.0000000000000D+00  0.0000000000000D+00
242  2.4100000000000D+00  0.0000000000000D+00  0.0000000000000D+00
243  2.4200000000000D+00  0.0000000000000D+00  0.0000000000000D+00
244  2.4300000000000D+00  0.0000000000000D+00  0.0000000000000D+00
245  2.4400000000000D+00  0.0000000000000D+00  0.0000000000000D+00
246  2.4500000000000D+00  0.0000000000000D+00  0.0000000000000D+00
247  2.4600000000000D+00  0.0000000000000D+00  0.0000000000000D+00
248  2.4700000000000D+00  0.0000000000000D+00  0.0000000000000D+00
249  2.4800000000000D+00  0.0000000000000D+00  0.0000000000000D+00
250  2.4900000000000D+00  0.0000000000000D+00  0.0000000000000D+00
251  2.5000000000000D+00  0.0000000000000D+00  0.0000000000000D+00
252  2.5100000000000D+00  0.0000000000000D+00  0.0000000000000D+00
253  2.5200000000000D+00  0.0000000000000D+00  0.0000000000000D+00
254  2.5300000000000D+00  0.0000000000000D+00  0.0000000000000D+00
255  2.5400000000000D+00  0.0000000000000D+00  0.0000000000000D+00
256  2.5500000000000D+00  0.0000000000000D+00  0.0000000000000D+00
257  2.5600000000000D+00  0.0000000000000D+00  0.0000000000000D+00
258  2.5700000000000D+00  0.0000000000000D+00  0.0000000000000D+00
259  2.5800000000000D+00  0.0000000000000D+00  0.0000000000000D+00
260  2.5900000000000D+00  0.0000000000000D+00  0.0000000000000D+00
261  2.6000000000000D+00  0.0000000000000D+00  0.0000000000000D+00
262  2.6100000000000D+00  0.0000000000000D+00  0.0000000000000D+00
263  2.6200000000000D+00  0.0000000000000D+00  0.0000000000000D+00
264  2.6300000000000D+00  0.0000000000000D+00  0.0000000000000D+00
265  2.6400000000000D+00  0.0000000000000D+00  0.0000000000000D+00
266  2.6500000000000D+00  0.0000000000000D+00  0.0000000000000D+00
267  2.6600000000000D+00  0.0000000000000D+00  0.0000000000000D+00
268  2.6700000000000D+00  0.0000000000000D+00  0.0000000000000D+00
269  2.6800000000000D+00  0.0000000000000D+00  0.0000000000000D+00
270  2.6900000000000D+00  0.0000000000000D+00  0.0000000000000D+00
271  2.7000000000000D+00  0.0000000000000D+00  0.0000000000000D+00
272  2.7100000000000D+00  0.0000000000000D+00  0.0000000000000D+00
273  2.7200000000000D+00  0.0000000000000D+00  0.0000000000000D+00
274  2.7300000000000D+00  0.0000000000000D+00  0.0000000000000D+00
275  2.7400000000000D+00  0.0000000000000D+00  0.0000000000000D+00
276  2.7500000000000D+00  0.0000000000000D+00  0.0000000000000D+00
277  2.7600000000000D+00  0.0000000000000D+00  0.0000000000000D+00
278  2.7700000000000D+00  0.0000000000000D+00  0.0000000000000D+00
279  2.7800000000000D+00  0.0000000000000D+00  0.0000000000000D+00
280  2.7900000000000D+00  0.0000000000000D+00  0.0000000000000D+00
281  2.8000000000000D+00  0.0000000000000D+00  0.0000000000000D+00
282  2.8100000000000D+00  0.0000000000000D+00  0.0000000000000D+00
283  2.8200000000000D+00  0.0000000000000D+00  0.0000000000000D+00
284  2.8300000000000D+00  0.0000000000000D+00  0.0000000000000D+00
285  2.8400000000000D+00  0.0000000000000D+00  0.0000000000000D+00
286  2.8500000000000D+00  0.0000000000000D+00  0.0000000000000D+00
287  2.8600000000000D+00  0.0000000000000D+00  0.0000000000000D+00
288  2.8700000000000D+00  0.0000000000000D+00  0.0000000000000D+00
289  2.8800000000000D+00  0.0000000000000D+00  0.0000000000000D+00
290  2.8900000000000D+00  0.0000000000000D+00  0.0000000000000D+00
291  2.9000000000000D+00  0.0000000000000D+00  0.0000000000000D+00
292  2.9100000000000D+00  0.0000000000000D+00  0.0000000000000D+00
293  2.9200000000000D+00  0.0000000000000D+00  0.0000000000000D+00
294  2.9300000000000D+00  0.0000000000000D+00  0.0000000000000D+00
295  2.9400000000000D+00  0.0000000000000D+00  0.0000000000000D+00
296  2.9500000000000D+00  0.0000000000000D+00  0.0000000000000D+00
297  2.9600000000000D+00  0.0000000000000D+00  0.0000000000000D+00
298  2.9700000000000D+00  0.0000000000000D+00  0.0000000000000D+00
299  2.9800000000000D+00  0.0000000000000D+00  0.0000000000000D+00
300  2.9900000000000D+00  0.0000000000000D+00  0.0000000000000D+00
301  3.0000000000000D+00  0.0000000000000D+00  0.0000000000000D+00
302  3.0100000000000D+00  0.0000000000000D+00  0.0000000000000D+00
303  3.0200000000000D+00  0.0000000000000D+00  0.0000000000000D+00
304  3.0300000000000D+00  0.0000000000000D+00  0.0000000000000D+00
305  3.0400000000000D+00  0.0000000000000D+00  0.0000000000000D+00
306  3.0500000000000D+00  0.0000000000000D+00  0.0000000000000D+00
307  3.0600000000000D+00  0.0000000000000D+00  0.0000000000000D+00
308  3.0700000000000D+00  0.0000000000000D+00  0.0000000000000D+00
309  3.0800000000000D+00  0.0000000000000D+00  0.0000000000000D+00
310  3.0900000000000D+00  0.0000000000000D+00  0.0000000000000D+00
311  3.1000000000000D+00  0.0000000000000D+00  0.0000000000000D+00
312  3.1100000000000D+00  0.0000000000000D+00  0.0000000000000D+00
313  3.1200000000000D+00  0.0000000000000D+00  0.0000000000000D+00
314  3.1300000000000D+00  0.0000000000000D+00  0.0000000000000D+00
315  3.1400000000000D+00  0.0000000000000D+00  0.0000000000000D+00
316  3.1500000000000D+00  0.0000000000000D+00  0.0000000000000D+00
317  3.1600000000000D+00  0.0000000000000D+00  0.0000000000000D+00
318  3.1700000000000D+00  0.0000000000000D+00  0.0000000000000D+00
319  3.1800000000000D+00  0.0000000000000D+00  0.0000000000000D+00
320  3.1900000000000D+00  0.0000000000000D+00  0.0000000000000D+00
321  3.2000000000000D+00  0.0000000000000D+00  0.0000000000000D+00
322  3.2100000000000D+00  0.0000000000000D+00  0.0000000000000D+00
323  3.2200000000000D+00  0.0000000000000D+00  0.0000000000000D+00
324  3.2300000000000D+00  0.0000000000000D+00  0.0000000000000D+00
325  3.2400000000000D+00  0.0000000000000D+00  0.0000000000000D+00
326  3.2500000000000D+00  0.0000000000000D+00  0.0000000000000D+00
327  3.2600000000000D+00  0.0000000000000D+00  0.0000000000000D+00
328  3.2700000000000D+00  0.0000000000000D+00  0.0000000000000D+00
329  3.2800000000000D+00  0.0000000000000D+00  0.0000000000000D+00
330  3.2900000000000D+00  0.0000000000000D+00  0.0000000000000D+00
331  3.3000000000000D+00  0.0000000000000D+00  0.0000000000000D+00
332  3.3100000000000D+00  0.0000000000000D+00  0.0000000000000D+00
333  3.3200000000000D+00  0.0000000000000D+00  0.0000000000000D+00
334  3.3300000000000D+00  0.0000000000000D+00  0.0000000000000D+00
335  3.3400000000000D+00  0.0000000000000D+00  0.0000000000000D+00
336  3.3500000000000D+00  0.0000000000000D+00  0.0000000000000D+00
337  3.3600000000000D+00  0.0000000000000D+00  0.0000000000000D+00
338  3.3700000000000D+00  0.0000000000000D+00  0.0000000000000D+00
339  3.3800000000000D+00  0.0000000000000D+00  0.0000000000000D+00
340  3.3900000000000D+00  0.0000000000000D+00  0.0000000000000D+00
341  3.4000000000000D+00  0.0000000000000D+00  0.0000000000000D+00
342  3.4100000000000D+00  0.0000000000000D+00  0.0000000000000D+00
343  3.4200000000000D+00  0.0000000000000D+00  0.0000000000000D+00
344  3.4300000000000D+00  0.0000000000000D+00  0.0000000000000D+00
345  3.4400000000000D+00  0.0000000000000D+00  0.0000000000000D+00
346  3.4500000000000D+00  0.0000000000000D+00  0.0000000000000D+00
347  3.4600000000000D+00  0.0000000000000D+00  0.0000000000000D+00
348  3.4700000000000D+00  0.0000000000000D+00  0.0000000000000D+00
349  3.4800000000000D+00  0.0000000000000D+00  0.0000000000000D+00
350  3.4900000000000D+00  0.0000000000000D+00  0.0000000000000D+00
351  3.5000000000000D+00  0.0000000000000D+00  0.0000000000000D+00
352  3.5100000000000D+00  0.0000000000000D+00  0.0000000000000D+00
353  3.5200000000000D+00  0.0000000000000D+00  0.0000000000000D+00
354  3.5300000000000D+00  0.0000000000000D+00  0.0000000000000D+00
355  3.5400000000000D+00  0.0000000000000D+00  0.0000000000000D+00
356  3.5500000000000D+00  0.0000000000000D+00  0.0000000000000D+00
357  3.5600000000000D+00  0.0000000000000D+00  0.0000000000000D+00
358  3.5700000000000D+00  0.0000000000000D+00  0.0000000000000D+00
359  3.5800000000000D+00  0.0000000000000D+00  0.0000000000000D+00
360  3.5900000000000D+00  0.0000000000000D+00  0.0000000000000D+00
361  3.6000000000000D+00  0.0000000000000D+00  0.0000000000000D+00
362  3.6100000000000D+00  0.0000000000000D+00  0.0000000000000D+00
363  3.6200000000000D+00  0.0000000000000D+00  0.0000000000000D+00
364  3.6300000000000D+00  0.0000000000000D+00  0.0000000000000D+00
365  3.6400000000000D+00  0.0000000000000D+00  0.0000000000000D+00
366  3.6500000000000D+00  0.0000000000000D+00  0.0000000000000D+00
367  3.6600000000000D+00  0.0000000000000D+00  0.0000000000000D+00
368  3.6700000000000D+00  0.0000000000000D+00  0.0000000000000D+00
369  3.6800000000000D+00  0.0000000000000D+00  0.0000000000000D+00
370  3.6900000000000D+00  0.0000000000000D+00  0.0000000000000D+00
371  3.7000000000000D+00  0.0000000000000D+00  0.0000000000000D+00
372  3.7100000000000D+00  0.0000000000000D+00  0.0000000000000D+00
373  3.7200000000000D+00  0.0000000000000D+00  0.0000000000000D+00
374  3.7300000000000D+00  0.0000000000000D+00  0.0000000000000D+00
375  3.7400000000000D+00  0.0000000000000D+00  0.0000000000000D+00
376  3.7500000000000D+00  0.0000000000000D+00  0.0000000000000D+00
377  3.7600000000000D+00  0.0000000000000D+00  0.0000000000000D+00
378  3.7700000000000D+00  0.0000000000000D+00  0.0000000000000D+00
379  3.7800000000000D+00  0.0000000000000D+00  0.0000000000000D+00
380  3.7900000000000D+00  0.0000000000000D+00  0.0000000000000D+00
381  3.8000000000000D+00  0.0000000000000D+00  0.0000000000000D+00
382  3.8100000000000D+00  0.0000000000000D+00  0.0000000000000D+00
383  3.8200000000000D+00  0.0000000000000D+00  0.0000000000000D+00
384  3.8300000000000D+00  0.0000000000000D+00  0.0000000000000D+00
385  3.8400000000000D+00  0.0000000000000D+00  0.0000000000000D+00
386  3.8500000000000D+00  0.0000000000000D+00  0.0000000000000D+00
387  3.8600000000000D+00  0.0000000000000D+00  0.0000000000000D+00
388  3.8700000000000D+00  0.0000000000000D+00  0.0000000000000D+00
389  3.8800000000000D+00  0.0000000000000D+00  0.0000000000000D+00
390  3.8900000000000D+00  0.0000000000000D+00  0.0000000000000D+00
391  3.9000000000000D+00  0.0000000000000D+00  0.0000000000000D+00
392  3.9100000000000D+00  0.0000000000000D+00  0.0000000000000D+00
393  3.9200000000000D+00  0.0000000000000D+00  0.0000000000000D+00
394  3.9300000000000D+00  0.0000000000000D+00  0.0000000000000D+00
395  3.9400000000000D+00  0.0000000000000D+00  0.0000000000000D+00
396  3.9500000000000D+00  0.0000000000000D+00  0.0000000000000D+00
397  3.9600000000000D+00  0.0000000000000D+00  0.0000000000000D+00
398  3.9700000000000D+00  0.0000000000000D+00  0.0000000000000D+00
399  3.9800000000000D+00  0.0000000000000D+00  0.0000000000000D+00
400  3.9900000000000D+00  0.0000000000000D+00  0.0000000000000D+00
1                         2.1902473658710D+00  2.4829009541222D-01
1  0.0000000000000D+00  3.5919866525624D-09 -1.2845221095126D-08
2  1.0000000000000D-02  1.5060693476733D-03 -1.2538354691571D-03
3  2.0000000000000D-02  6.0131331515193D-03 -4.9877435369730D-03
4  3.0000000000000D-02  1.3487898293022D-02 -1.1119396306422D-02
5  4.0000000000000D-02  2.3875339541987D-02 -1.9513130416383D-02
6  5.0000000000000D-02  3.7099387433958D-02 -2.9982246394768D-02
7  6.0000000000000D-02  5.3063877258179D-02 -4.2292177446481D-02
8  7.0000000000000D-02  7.1653745362907D-02 -5.6164478269765D-02
9  8.0000000000000D-02  9.2736455392867D-02 -7.1281571649288D-02
10  9.0000000000000D-02  1.1616363373706D-01 -8.7292178658758D-02
11  1.0000000000000D-01  1.4177289043181D-01 -1.0381734749446D-01
12  1.1000000000000D-01  1.6938979907986D-01 -1.2045698642095D-01
13  1.2000000000000D-01  1.9883000704984D-01 -1.3679679818156D-01
14  1.3000000000000D-01  2.2990144534686D-01 -1.5241550663473D-01
15  1.4000000000000D-01  2.6240660612080D-01 -1.6689226142336D-01
16  1.5000000000000D-01  2.9614485482681D-01 -1.7981410324512D-01
17  1.6000000000000D-01  3.3091474358611D-01 -1.9078337081970D-01
18  1.7000000000000D-01  3.6651629232247D-01 -1.9942493097100D-01
19  1.8000000000000D-01  4.0275320477091D-01 -2.0539311535870D-01
20  1.9000000000000D-01  4.3943498746307D-01 -2.0837825127666D-01
21  2.0000000000000D-01  4.7637894127482D-01 -2.0811267953725D-01
22  2.1000000000000D-01  5.1341199705489D-01 -2.0437615969896D-01
23  2.2000000000000D-01  5.5037236921060D-01 -1.9700057167177D-01
24  2.3000000000000D-01  5.8711100387562D-01 -1.8587383292511D-01
25  2.4000000000000D-01  6.2349280138391D-01 -1.7094296198104D-01
26  2.5000000000000D-01  6.5939759618041D-01 -1.5221623143697D-01
27  2.6000000000000D-01  6.9472088096180D-01 -1.2976436724726D-01
28  2.7000000000000D-01  7.2937426570816D-01 -1.0372076520403D-01
29  2.8000000000000D-01  7.6328566628051D-01 -7.4280710290929D-02
30  2.9000000000000D-01  7.9639922136281D-01 -4.1699599621957D-02
31  3.0000000000000D-01  8.2867494065901D-01 -6.2901848015333D-03
32  3.1000000000000D-01  8.6008809135575D-01  3.1581135470327D-02
33  3.2000000000000D-01  8.9062833386888D-01  7.1498927095235D-02
34  3.3000000000000D-01  9.2029862174722D-01  1.1300417706965D-01
35  3.4000000000000D-01  9.4911388425350D-01  1.5560052199987D-01
36  3.5000000000000D-01  9.7709951352472D-01  1.9876116358073D-01
37  3.6000000000000D-01  1.0042896812818D+00  2.4193637486738D-01
38  3.7000000000000D-01  1.0307255127649D+00  2.8456149139665D-01
39  3.8000000000000D-01  1.0564531478753D+00  3.2606527293393D-01
40  3.9000000000000D-01  1.0815217213689D+00  3.6587851496243D-01
41  4.0000000000000D-01  1.1059812953452D+00  4.0344278410195D-01
42  4.1000000000000D-01  1.1298807781827D+00  4.3821914852655D-01
43  4.2000000000000D-01  1.1532658644705D+00  4.6969677320194D-01