V     ONCVPSP  r_core=  1.31  1.31  1.67
23.0000     13.0000      151027    zatom,zion,pspd
8   -1013   2     4   600     0    pspcod,pspxc,lmax,lloc,mmax,r2well
5.99000000  5.00000000  0.00000000    rchrg fchrg qchrg
2     2     2     0     0    nproj
1                 extension_switch
0                         1.1155287749898D+01  1.2317920995549D+00
1  0.0000000000000D+00 -2.7700912674788D-09  9.8826136718522D-09
2  1.0000000000000D-02  9.0123135945999D-02 -4.7902915696493D-02
3  2.0000000000000D-02  1.7991551821366D-01 -9.5208625479440D-02
4  3.0000000000000D-02  2.6904923256576D-01 -1.4132857922208D-01
5  4.0000000000000D-02  3.5720200140741D-01 -1.8569139070270D-01
6  5.0000000000000D-02  4.4405989723082D-01 -2.2775105296603D-01
7  6.0000000000000D-02  5.2931993222094D-01 -2.6699472095531D-01
8  7.0000000000000D-02  6.1269248605963D-01 -3.0294992900679D-01
9  8.0000000000000D-02  6.9390353673602D-01 -3.3519112068094D-01
10  9.0000000000000D-02  7.7269666254304D-01 -3.6334538043587D-01
11  1.0000000000000D-01  8.4883478735630D-01 -3.8709727062172D-01
12  1.1000000000000D-01  9.2210164568522D-01 -4.0619269294957D-01
13  1.2000000000000D-01  9.9230294878002D-01 -4.2044171069519D-01
14  1.3000000000000D-01  1.0592672381916D+00 -4.2972028614085D-01
15  1.4000000000000D-01  1.1228464185237D+00 -4.3397090682292D-01
16  1.5000000000000D-01  1.1829159665959D+00 -4.3320209370858D-01
17  1.6000000000000D-01  1.2393748197617D+00 -4.2748680413236D-01
18  1.7000000000000D-01  1.2921449515894D+00 -4.1695976183845D-01
19  1.8000000000000D-01  1.3411706484377D+00 -4.0181376545879D-01
20  1.9000000000000D-01  1.3864175055332D+00 -3.8229504487425D-01
21  2.0000000000000D-01  1.4278711659004D+00 -3.5869775184029D-01
22  2.1000000000000D-01  1.4655358298277D+00 -3.3135768670696D-01
23  2.2000000000000D-01  1.4994325663875D+00 -3.0064537675172D-01
24  2.3000000000000D-01  1.5295974618048D+00 -2.6695863332553D-01
25  2.4000000000000D-01  1.5560796421248D+00 -2.3071472447425D-01
26  2.5000000000000D-01  1.5789392096130D+00 -1.9234230676443D-01
27  2.6000000000000D-01  1.5982451336030D+00 -1.5227326457852D-01
28  2.7000000000000D-01  1.6140731370506D+00 -1.1093460705895D-01
29  2.8000000000000D-01  1.6265036198576D+00 -6.8740572124779D-02
30  2.9000000000000D-01  1.6356196590827D+00 -2.6085083560004D-02
31  3.0000000000000D-01  1.6415051244870D+00  1.6665298877267D-02
32  3.1000000000000D-01  1.6442429454798D+00  5.9177804958840D-02
33  3.2000000000000D-01  1.6439135624874D+00  1.0115913471674D-01
34  3.3000000000000D-01  1.6405935921079D+00  1.4236028721101D-01
35  3.4000000000000D-01  1.6343547312001D+00  1.8258044534404D-01
36  3.5000000000000D-01  1.6252629203621D+00  2.2166984167107D-01
37  3.6000000000000D-01  1.6133777821569D+00  2.5953154855501D-01
38  3.7000000000000D-01  1.5987523440385D+00  2.9612215555397D-01
39  3.8000000000000D-01  1.5814330503064D+00  3.3145131727169D-01
40  3.9000000000000D-01  1.5614600616775D+00  3.6558017569559D-01
41  4.0000000000000D-01  1.5388678353078D+00  3.9861868192258D-01
42  4.1000000000000D-01  1.5136859724328D+00  4.3072186276424D-01
43  4.2000000000000D-01  1.4859403153190D+00  4.6208509766029D-01
44  4.3000000000000D-01  1.4556542700417D+00  4.9293849025293D-01
45  4.4000000000000D-01  1.4228503268106D+00  5.2354043653918D-01
46  4.5000000000000D-01  1.3875517452529D+00  5.5417050740024D-01
47  4.6000000000000D-01  1.3497843683162D+00  5.8512177720674D-01
48  4.7000000000000D-01  1.3095785253385D+00  6.1669274185179D-01
49  4.8000000000000D-01  1.2669709824217D+00  6.4917897874066D-01
50  4.9000000000000D-01  1.2220068965776D+00  6.8286470777794D-01
51  5.0000000000000D-01  1.1747417292494D+00  7.1801441610087D-01
52  5.1000000000000D-01  1.1252430747441D+00  7.5486471011286D-01
53  5.2000000000000D-01  1.0735923598871D+00  7.9361655623003D-01
54  5.3000000000000D-01  1.0198863727902D+00  8.3442806668236D-01
55  5.4000000000000D-01  9.6423858102316D-01  8.7740797874822D-01
56  5.5000000000000D-01  9.0678020263560D-01  9.2260996508176D-01
57  5.6000000000000D-01  8.4766099736379D-01  9.7002789946968D-01
58  5.7000000000000D-01  7.8704974990958D-01  1.0195921865999D+00
59  5.8000000000000D-01  7.2513442230605D-01  1.0711672465983D+00
60  5.9000000000000D-01  6.6212195804864D-01  1.1245502252954D+00
61  6.0000000000000D-01  5.9823772670291D-01  1.1794709800226D+00
62  6.1000000000000D-01  5.3372460409080D-01  1.2355933682434D+00
63  6.2000000000000D-01  4.6884168970165D-01  1.2925178432101D+00
64  6.3000000000000D-01  4.0386266963178D-01  1.3497853372547D+00
65  6.4000000000000D-01  3.3907383998469D-01  1.4068823897650D+00
66  6.5000000000000D-01  2.7477181210075D-01  1.4632474539452D+00
67  6.6000000000000D-01  2.1126092721587D-01  1.5182782941584D+00
68  6.7000000000000D-01  1.4885041394976D-01  1.5713403647991D+00
69  6.8000000000000D-01  8.7851327341330D-02  1.6217760424266D+00
70  6.9000000000000D-01  2.8573312902439D-02  1.6689145656024D+00
71  7.0000000000000D-01 -2.8678756800010D-02  1.7120825220435D+00
72  7.1000000000000D-01 -8.3608222233271D-02  1.7506147104622D+00
73  7.2000000000000D-01 -1.3593010040935D-01  1.7838651951325D+00
74  7.3000000000000D-01 -1.8537451699342D-01  1.8112183649416D+00
75  7.4000000000000D-01 -2.3169005155293D-01  1.8320998056794D+00
76  7.5000000000000D-01 -2.7464694080003D-01  1.8459867946106D+00
77  7.6000000000000D-01 -3.1404008594804D-01  1.8524182300228D+00
78  7.7000000000000D-01 -3.4969181252331D-01  1.8510038154326D+00
79  7.8000000000000D-01 -3.8145433410757D-01  1.8414323283369D+00
80  7.9000000000000D-01 -4.0921187550174D-01  1.8234788167054D+00
81  8.0000000000000D-01 -4.3288241564653D-01  1.7970105826557D+00
82  8.1000000000000D-01 -4.5241901620683D-01  1.7619918315660D+00
83  8.2000000000000D-01 -4.6781070796778D-01  1.7184868860889D+00
84  8.3000000000000D-01 -4.7908291398230D-01  1.6666618876977D+00
85  8.4000000000000D-01 -4.8629739564682D-01  1.6067849331802D+00
86  8.5000000000000D-01 -4.8955171544096D-01  1.5392246194489D+00
87  8.6000000000000D-01 -4.8897821782213D-01  1.4644469967375D+00
88  8.7000000000000D-01 -4.8474253758338D-01  1.3830109572220D+00
89  8.8000000000000D-01 -4.7704165272802D-01  1.2955621128839D+00
90  8.9000000000000D-01 -4.6610150645199D-01  1.2028252425364D+00
91  9.0000000000000D-01 -4.5217423002241D-01  1.1055954129126D+00
92  9.1000000000000D-01 -4.3553500506905D-01  1.0047279021038D+00
93  9.2000000000000D-01 -4.1647860994468D-01  9.0112707502337D-01
94  9.3000000000000D-01 -3.9531570024647D-01  7.9573437955007D-01
95  9.4000000000000D-01 -3.7236887823061D-01  6.8951564825487D-01
96  9.5000000000000D-01 -3.4796860958919D-01  5.8344790374916D-01
97  9.6000000000000D-01 -3.2244904883797D-01  4.7850587552656D-01
98  9.7000000000000D-01 -2.9614383635366D-01  3.7564844258679D-01
99  9.8000000000000D-01 -2.6938193077753D-01  2.7580521869269D-01
100  9.9000000000000D-01 -2.4248354014648D-01  1.7986349609480D-01
101  1.0000000000000D+00 -2.1575621366019D-01  8.8655758734372D-02
102  1.0100000000000D+00 -1.8949115350232D-01  2.9479675062418D-03
103  1.0200000000000D+00 -1.6395980248464D-01 -7.6571192287378D-02
104  1.0300000000000D+00 -1.3941075897326D-01 -1.4929992592540D-01
105  1.0400000000000D+00 -1.1606706500823D-01 -2.1473165038778D-01
106  1.0500000000000D+00 -9.4123907281094D-02 -2.7246188679777D-01
107  1.0600000000000D+00 -7.3746763813048D-02 -3.2219361289062D-01
108  1.0700000000000D+00 -5.5070021522600D-02 -3.6374099062014D-01
109  1.0800000000000D+00 -3.8196081837963D-02 -3.9703141175753D-01
110  1.0900000000000D+00 -2.3194963751865D-02 -4.2210583114006D-01
111  1.1000000000000D+00 -1.0104404215413D-02 -4.3911739007483D-01
112  1.1100000000000D+00  1.0695519052104D-03 -4.4832835894110D-01
113  1.1200000000000D+00  1.0351489407102D-02 -4.5010546028055D-01
114  1.1300000000000D+00  1.7795111700933D-02 -4.4491365698104D-01
115  1.1400000000000D+00  2.3481314453779D-02 -4.3330852297385D-01
116  1.1500000000000D+00  2.7515883493588D-02 -4.1592733548208D-01
117  1.1600000000000D+00  3.0026863779856D-02 -3.9347905287636D-01
118  1.1700000000000D+00  3.1161652242631D-02 -3.6673336410003D-01
119  1.1800000000000D+00  3.1083862881468D-02 -3.3650897151349D-01
120  1.1900000000000D+00  2.9970067354476D-02 -3.0366149768277D-01
121  1.2000000000000D+00  2.8006266300381D-02 -2.6907036574370D-01
122  1.2100000000000D+00  2.5384951058677D-02 -2.3362821856723D-01
123  1.2200000000000D+00  2.2300645967639D-02 -1.9822391737209D-01
124  1.2300000000000D+00  1.8943947876162D-02 -1.6371920499762D-01
125  1.2400000000000D+00  1.5495375873072D-02 -1.3092509896378D-01
126  1.2500000000000D+00  1.2120987365182D-02 -1.0058582186254D-01
127  1.2600000000000D+00  8.9695020898411D-03 -7.3369088455700D-02
128  1.2700000000000D+00  6.1696830246938D-03 -4.9858811356243D-02
129  1.2800000000000D+00  3.8267854738986D-03 -3.0538492630878D-02
130  1.2900000000000D+00  2.0070323693574D-03 -1.5686737517065D-02
131  1.3000000000000D+00  8.0662286904623D-04 -5.8797586206934D-03
132  1.3100000000000D+00  2.4639572417975D-04 -1.2354117314556D-03
133  1.3200000000000D+00  5.3616389534655D-05  6.5739669289163D-05
134  1.3300000000000D+00  1.0141273007921D-06  1.2756748223423D-05
135  1.3400000000000D+00 -1.5593345676975D-06 -5.5366835039410D-05
136  1.3500000000000D+00  7.6026506289035D-07  6.0993268509289D-06
137  1.3600000000000D+00  4.0775538915067D-07  4.4944033917724D-06
138  1.3700000000000D+00 -3.6735609371111D-07  9.6186624890386D-07
139  1.3800000000000D+00  0.0000000000000D+00  0.0000000000000D+00
140  1.3900000000000D+00  0.0000000000000D+00  0.0000000000000D+00
141  1.4000000000000D+00  0.0000000000000D+00  0.0000000000000D+00
142  1.4100000000000D+00  0.0000000000000D+00  0.0000000000000D+00
143  1.4200000000000D+00  0.0000000000000D+00  0.0000000000000D+00
144  1.4300000000000D+00  0.0000000000000D+00  0.0000000000000D+00
145  1.4400000000000D+00  0.0000000000000D+00  0.0000000000000D+00
146  1.4500000000000D+00  0.0000000000000D+00  0.0000000000000D+00
147  1.4600000000000D+00  0.0000000000000D+00  0.0000000000000D+00
148  1.4700000000000D+00  0.0000000000000D+00  0.0000000000000D+00
149  1.4800000000000D+00  0.0000000000000D+00  0.0000000000000D+00
150  1.4900000000000D+00  0.0000000000000D+00  0.0000000000000D+00
151  1.5000000000000D+00  0.0000000000000D+00  0.0000000000000D+00
152  1.5100000000000D+00  0.0000000000000D+00  0.0000000000000D+00
153  1.5200000000000D+00  0.0000000000000D+00  0.0000000000000D+00
154  1.5300000000000D+00  0.0000000000000D+00  0.0000000000000D+00
155  1.5400000000000D+00  0.0000000000000D+00  0.0000000000000D+00
156  1.5500000000000D+00  0.0000000000000D+00  0.0000000000000D+00
157  1.5600000000000D+00  0.0000000000000D+00  0.0000000000000D+00
158  1.5700000000000D+00  0.0000000000000D+00  0.0000000000000D+00
159  1.5800000000000D+00  0.0000000000000D+00  0.0000000000000D+00
160  1.5900000000000D+00  0.0000000000000D+00  0.0000000000000D+00
161  1.6000000000000D+00  0.0000000000000D+00  0.0000000000000D+00
162  1.6100000000000D+00  0.0000000000000D+00  0.0000000000000D+00
163  1.6200000000000D+00  0.0000000000000D+00  0.0000000000000D+00
164  1.6300000000000D+00  0.0000000000000D+00  0.0000000000000D+00
165  1.6400000000000D+00  0.0000000000000D+00  0.0000000000000D+00
166  1.6500000000000D+00  0.0000000000000D+00  0.0000000000000D+00
167  1.6600000000000D+00  0.0000000000000D+00  0.0000000000000D+00
168  1.6700000000000D+00  0.0000000000000D+00  0.0000000000000D+00
169  1.6800000000000D+00  0.0000000000000D+00  0.0000000000000D+00
170  1.6900000000000D+00  0.0000000000000D+00  0.0000000000000D+00
171  1.7000000000000D+00  0.0000000000000D+00  0.0000000000000D+00
172  1.7100000000000D+00  0.0000000000000D+00  0.0000000000000D+00
173  1.7200000000000D+00  0.0000000000000D+00  0.0000000000000D+00
174  1.7300000000000D+00  0.0000000000000D+00  0.0000000000000D+00
175  1.7400000000000D+00  0.0000000000000D+00  0.0000000000000D+00
176  1.7500000000000D+00  0.0000000000000D+00  0.0000000000000D+00
177  1.7600000000000D+00  0.0000000000000D+00  0.0000000000000D+00
178  1.7700000000000D+00  0.0000000000000D+00  0.0000000000000D+00
179  1.7800000000000D+00  0.0000000000000D+00  0.0000000000000D+00
180  1.7900000000000D+00  0.0000000000000D+00  0.0000000000000D+00
181  1.8000000000000D+00  0.0000000000000D+00  0.0000000000000D+00
182  1.8100000000000D+00  0.0000000000000D+00  0.0000000000000D+00
183  1.8200000000000D+00  0.0000000000000D+00  0.0000000000000D+00
184  1.8300000000000D+00  0.0000000000000D+00  0.0000000000000D+00
185  1.8400000000000D+00  0.0000000000000D+00  0.0000000000000D+00
186  1.8500000000000D+00  0.0000000000000D+00  0.0000000000000D+00
187  1.8600000000000D+00  0.0000000000000D+00  0.0000000000000D+00
188  1.8700000000000D+00  0.0000000000000D+00  0.0000000000000D+00
189  1.8800000000000D+00  0.0000000000000D+00  0.0000000000000D+00
190  1.8900000000000D+00  0.0000000000000D+00  0.0000000000000D+00
191  1.9000000000000D+00  0.0000000000000D+00  0.0000000000000D+00
192  1.9100000000000D+00  0.0000000000000D+00  0.0000000000000D+00
193  1.9200000000000D+00  0.0000000000000D+00  0.0000000000000D+00
194  1.9300000000000D+00  0.0000000000000D+00  0.0000000000000D+00
195  1.9400000000000D+00  0.0000000000000D+00  0.0000000000000D+00
196  1.9500000000000D+00  0.0000000000000D+00  0.0000000000000D+00
197  1.9600000000000D+00  0.0000000000000D+00  0.0000000000000D+00
198  1.9700000000000D+00  0.0000000000000D+00  0.0000000000000D+00
199  1.9800000000000D+00  0.0000000000000D+00  0.0000000000000D+00
200  1.9900000000000D+00  0.0000000000000D+00  0.0000000000000D+00
201  2.0000000000000D+00  0.0000000000000D+00  0.0000000000000D+00
202  2.0100000000000D+00  0.0000000000000D+00  0.0000000000000D+00
203  2.0200000000000D+00  0.0000000000000D+00  0.0000000000000D+00
204  2.0300000000000D+00  0.0000000000000D+00  0.0000000000000D+00
205  2.0400000000000D+00  0.0000000000000D+00  0.0000000000000D+00
206  2.0500000000000D+00  0.0000000000000D+00  0.0000000000000D+00
207  2.0600000000000D+00  0.0000000000000D+00  0.0000000000000D+00
208  2.0700000000000D+00  0.0000000000000D+00  0.0000000000000D+00
209  2.0800000000000D+00  0.0000000000000D+00  0.0000000000000D+00
210  2.0900000000000D+00  0.0000000000000D+00  0.0000000000000D+00
211  2.1000000000000D+00  0.0000000000000D+00  0.0000000000000D+00
212  2.1100000000000D+00  0.0000000000000D+00  0.0000000000000D+00
213  2.1200000000000D+00  0.0000000000000D+00  0.0000000000000D+00
214  2.1300000000000D+00  0.0000000000000D+00  0.0000000000000D+00
215  2.1400000000000D+00  0.0000000000000D+00  0.0000000000000D+00
216  2.1500000000000D+00  0.0000000000000D+00  0.0000000000000D+00
217  2.1600000000000D+00  0.0000000000000D+00  0.0000000000000D+00
218  2.1700000000000D+00  0.0000000000000D+00  0.0000000000000D+00
219  2.1800000000000D+00  0.0000000000000D+00  0.0000000000000D+00
220  2.1900000000000D+00  0.0000000000000D+00  0.0000000000000D+00
221  2.2000000000000D+00  0.0000000000000D+00  0.0000000000000D+00
222  2.2100000000000D+00  0.0000000000000D+00  0.0000000000000D+00
223  2.2200000000000D+00  0.0000000000000D+00  0.0000000000000D+00
224  2.2300000000000D+00  0.0000000000000D+00  0.0000000000000D+00
225  2.2400000000000D+00  0.0000000000000D+00  0.0000000000000D+00
226  2.2500000000000D+00  0.0000000000000D+00  0.0000000000000D+00
227  2.2600000000000D+00  0.0000000000000D+00  0.0000000000000D+00
228  2.2700000000000D+00  0.0000000000000D+00  0.0000000000000D+00
229  2.2800000000000D+00  0.0000000000000D+00  0.0000000000000D+00
230  2.2900000000000D+00  0.0000000000000D+00  0.0000000000000D+00
231  2.3000000000000D+00  0.0000000000000D+00  0.0000000000000D+00
232  2.3100000000000D+00  0.0000000000000D+00  0.0000000000000D+00
233  2.3200000000000D+00  0.0000000000000D+00  0.0000000000000D+00
234  2.3300000000000D+00  0.0000000000000D+00  0.0000000000000D+00
235  2.3400000000000D+00  0.0000000000000D+00  0.0000000000000D+00
236  2.3500000000000D+00  0.0000000000000D+00  0.0000000000000D+00
237  2.3600000000000D+00  0.0000000000000D+00  0.0000000000000D+00
238  2.3700000000000D+00  0.0000000000000D+00  0.0000000000000D+00
239  2.3800000000000D+00  0.0000000000000D+00  0.0000000000000D+00
240  2.3900000000000D+00  0.0000000000000D+00  0.0000000000000D+00
241  2.4000000000000D+00  0.0000000000000D+00  0.0000000000000D+00
242  2.4100000000000D+00  0.0000000000000D+00  0.0000000000000D+00
243  2.4200000000000D+00  0.0000000000000D+00  0.0000000000000D+00
244  2.4300000000000D+00  0.0000000000000D+00  0.0000000000000D+00
245  2.4400000000000D+00  0.0000000000000D+00  0.0000000000000D+00
246  2.4500000000000D+00  0.0000000000000D+00  0.0000000000000D+00
247  2.4600000000000D+00  0.0000000000000D+00  0.0000000000000D+00
248  2.4700000000000D+00  0.0000000000000D+00  0.0000000000000D+00
249  2.4800000000000D+00  0.0000000000000D+00  0.0000000000000D+00
250  2.4900000000000D+00  0.0000000000000D+00  0.0000000000000D+00
251  2.5000000000000D+00  0.0000000000000D+00  0.0000000000000D+00
252  2.5100000000000D+00  0.0000000000000D+00  0.0000000000000D+00
253  2.5200000000000D+00  0.0000000000000D+00  0.0000000000000D+00
254  2.5300000000000D+00  0.0000000000000D+00  0.0000000000000D+00
255  2.5400000000000D+00  0.0000000000000D+00  0.0000000000000D+00
256  2.5500000000000D+00  0.0000000000000D+00  0.0000000000000D+00
257  2.5600000000000D+00  0.0000000000000D+00  0.0000000000000D+00
258  2.5700000000000D+00  0.0000000000000D+00  0.0000000000000D+00
259  2.5800000000000D+00  0.0000000000000D+00  0.0000000000000D+00
260  2.5900000000000D+00  0.0000000000000D+00  0.0000000000000D+00
261  2.6000000000000D+00  0.0000000000000D+00  0.0000000000000D+00
262  2.6100000000000D+00  0.0000000000000D+00  0.0000000000000D+00
263  2.6200000000000D+00  0.0000000000000D+00  0.0000000000000D+00
264  2.6300000000000D+00  0.0000000000000D+00  0.0000000000000D+00
265  2.6400000000000D+00  0.0000000000000D+00  0.0000000000000D+00
266  2.6500000000000D+00  0.0000000000000D+00  0.0000000000000D+00
267  2.6600000000000D+00  0.0000000000000D+00  0.0000000000000D+00
268  2.6700000000000D+00  0.0000000000000D+00  0.0000000000000D+00
269  2.6800000000000D+00  0.0000000000000D+00  0.0000000000000D+00
270  2.6900000000000D+00  0.0000000000000D+00  0.0000000000000D+00
271  2.7000000000000D+00  0.0000000000000D+00  0.0000000000000D+00
272  2.7100000000000D+00  0.0000000000000D+00  0.0000000000000D+00
273  2.7200000000000D+00  0.0000000000000D+00  0.0000000000000D+00
274  2.7300000000000D+00  0.0000000000000D+00  0.0000000000000D+00
275  2.7400000000000D+00  0.0000000000000D+00  0.0000000000000D+00
276  2.7500000000000D+00  0.0000000000000D+00  0.0000000000000D+00
277  2.7600000000000D+00  0.0000000000000D+00  0.0000000000000D+00
278  2.7700000000000D+00  0.0000000000000D+00  0.0000000000000D+00
279  2.7800000000000D+00  0.0000000000000D+00  0.0000000000000D+00
280  2.7900000000000D+00  0.0000000000000D+00  0.0000000000000D+00
281  2.8000000000000D+00  0.0000000000000D+00  0.0000000000000D+00
282  2.8100000000000D+00  0.0000000000000D+00  0.0000000000000D+00
283  2.8200000000000D+00  0.0000000000000D+00  0.0000000000000D+00
284  2.8300000000000D+00  0.0000000000000D+00  0.0000000000000D+00
285  2.8400000000000D+00  0.0000000000000D+00  0.0000000000000D+00
286  2.8500000000000D+00  0.0000000000000D+00  0.0000000000000D+00
287  2.8600000000000D+00  0.0000000000000D+00  0.0000000000000D+00
288  2.8700000000000D+00  0.0000000000000D+00  0.0000000000000D+00
289  2.8800000000000D+00  0.0000000000000D+00  0.0000000000000D+00
290  2.8900000000000D+00  0.0000000000000D+00  0.0000000000000D+00
291  2.9000000000000D+00  0.0000000000000D+00  0.0000000000000D+00
292  2.9100000000000D+00  0.0000000000000D+00  0.0000000000000D+00
293  2.9200000000000D+00  0.0000000000000D+00  0.0000000000000D+00
294  2.9300000000000D+00  0.0000000000000D+00  0.0000000000000D+00
295  2.9400000000000D+00  0.0000000000000D+00  0.0000000000000D+00
296  2.9500000000000D+00  0.0000000000000D+00  0.0000000000000D+00
297  2.9600000000000D+00  0.0000000000000D+00  0.0000000000000D+00
298  2.9700000000000D+00  0.0000000000000D+00  0.0000000000000D+00
299  2.9800000000000D+00  0.0000000000000D+00  0.0000000000000D+00
300  2.9900000000000D+00  0.0000000000000D+00  0.0000000000000D+00
301  3.0000000000000D+00  0.0000000000000D+00  0.0000000000000D+00
302  3.0100000000000D+00  0.0000000000000D+00  0.0000000000000D+00
303  3.0200000000000D+00  0.0000000000000D+00  0.0000000000000D+00
304  3.0300000000000D+00  0.0000000000000D+00  0.0000000000000D+00
305  3.0400000000000D+00  0.0000000000000D+00  0.0000000000000D+00
306  3.0500000000000D+00  0.0000000000000D+00  0.0000000000000D+00
307  3.0600000000000D+00  0.0000000000000D+00  0.0000000000000D+00
308  3.0700000000000D+00  0.0000000000000D+00  0.0000000000000D+00
309  3.0800000000000D+00  0.0000000000000D+00  0.0000000000000D+00
310  3.0900000000000D+00  0.0000000000000D+00  0.0000000000000D+00
311  3.1000000000000D+00  0.0000000000000D+00  0.0000000000000D+00
312  3.1100000000000D+00  0.0000000000000D+00  0.0000000000000D+00
313  3.1200000000000D+00  0.0000000000000D+00  0.0000000000000D+00
314  3.1300000000000D+00  0.0000000000000D+00  0.0000000000000D+00
315  3.1400000000000D+00  0.0000000000000D+00  0.0000000000000D+00
316  3.1500000000000D+00  0.0000000000000D+00  0.0000000000000D+00
317  3.1600000000000D+00  0.0000000000000D+00  0.0000000000000D+00
318  3.1700000000000D+00  0.0000000000000D+00  0.0000000000000D+00
319  3.1800000000000D+00  0.0000000000000D+00  0.0000000000000D+00
320  3.1900000000000D+00  0.0000000000000D+00  0.0000000000000D+00
321  3.2000000000000D+00  0.0000000000000D+00  0.0000000000000D+00
322  3.2100000000000D+00  0.0000000000000D+00  0.0000000000000D+00
323  3.2200000000000D+00  0.0000000000000D+00  0.0000000000000D+00
324  3.2300000000000D+00  0.0000000000000D+00  0.0000000000000D+00
325  3.2400000000000D+00  0.0000000000000D+00  0.0000000000000D+00
326  3.2500000000000D+00  0.0000000000000D+00  0.0000000000000D+00
327  3.2600000000000D+00  0.0000000000000D+00  0.0000000000000D+00
328  3.2700000000000D+00  0.0000000000000D+00  0.0000000000000D+00
329  3.2800000000000D+00  0.0000000000000D+00  0.0000000000000D+00
330  3.2900000000000D+00  0.0000000000000D+00  0.0000000000000D+00
331  3.3000000000000D+00  0.0000000000000D+00  0.0000000000000D+00
332  3.3100000000000D+00  0.0000000000000D+00  0.0000000000000D+00
333  3.3200000000000D+00  0.0000000000000D+00  0.0000000000000D+00
334  3.3300000000000D+00  0.0000000000000D+00  0.0000000000000D+00
335  3.3400000000000D+00  0.0000000000000D+00  0.0000000000000D+00
336  3.3500000000000D+00  0.0000000000000D+00  0.0000000000000D+00
337  3.3600000000000D+00  0.0000000000000D+00  0.0000000000000D+00
338  3.3700000000000D+00  0.0000000000000D+00  0.0000000000000D+00
339  3.3800000000000D+00  0.0000000000000D+00  0.0000000000000D+00
340  3.3900000000000D+00  0.0000000000000D+00  0.0000000000000D+00
341  3.4000000000000D+00  0.0000000000000D+00  0.0000000000000D+00
342  3.4100000000000D+00  0.0000000000000D+00  0.0000000000000D+00
343  3.4200000000000D+00  0.0000000000000D+00  0.0000000000000D+00
344  3.4300000000000D+00  0.0000000000000D+00  0.0000000000000D+00
345  3.4400000000000D+00  0.0000000000000D+00  0.0000000000000D+00
346  3.4500000000000D+00  0.0000000000000D+00  0.0000000000000D+00
347  3.4600000000000D+00  0.0000000000000D+00  0.0000000000000D+00
348  3.4700000000000D+00  0.0000000000000D+00  0.0000000000000D+00
349  3.4800000000000D+00  0.0000000000000D+00  0.0000000000000D+00
350  3.4900000000000D+00  0.0000000000000D+00  0.0000000000000D+00
351  3.5000000000000D+00  0.0000000000000D+00  0.0000000000000D+00
352  3.5100000000000D+00  0.0000000000000D+00  0.0000000000000D+00
353  3.5200000000000D+00  0.0000000000000D+00  0.0000000000000D+00
354  3.5300000000000D+00  0.0000000000000D+00  0.0000000000000D+00
355  3.5400000000000D+00  0.0000000000000D+00  0.0000000000000D+00
356  3.5500000000000D+00  0.0000000000000D+00  0.0000000000000D+00
357  3.5600000000000D+00  0.0000000000000D+00  0.0000000000000D+00
358  3.5700000000000D+00  0.0000000000000D+00  0.0000000000000D+00
359  3.5800000000000D+00  0.0000000000000D+00  0.0000000000000D+00
360  3.5900000000000D+00  0.0000000000000D+00  0.0000000000000D+00
361  3.6000000000000D+00  0.0000000000000D+00  0.0000000000000D+00
362  3.6100000000000D+00  0.0000000000000D+00  0.0000000000000D+00
363  3.6200000000000D+00  0.0000000000000D+00  0.0000000000000D+00
364  3.6300000000000D+00  0.0000000000000D+00  0.0000000000000D+00
365  3.6400000000000D+00  0.0000000000000D+00  0.0000000000000D+00
366  3.6500000000000D+00  0.0000000000000D+00  0.0000000000000D+00
367  3.6600000000000D+00  0.0000000000000D+00  0.0000000000000D+00
368  3.6700000000000D+00  0.0000000000000D+00  0.0000000000000D+00
369  3.6800000000000D+00  0.0000000000000D+00  0.0000000000000D+00
370  3.6900000000000D+00  0.0000000000000D+00  0.0000000000000D+00
371  3.7000000000000D+00  0.0000000000000D+00  0.0000000000000D+00
372  3.7100000000000D+00  0.0000000000000D+00  0.0000000000000D+00
373  3.7200000000000D+00  0.0000000000000D+00  0.0000000000000D+00
374  3.7300000000000D+00  0.0000000000000D+00  0.0000000000000D+00
375  3.7400000000000D+00  0.0000000000000D+00  0.0000000000000D+00
376  3.7500000000000D+00  0.0000000000000D+00  0.0000000000000D+00
377  3.7600000000000D+00  0.0000000000000D+00  0.0000000000000D+00
378  3.7700000000000D+00  0.0000000000000D+00  0.0000000000000D+00
379  3.7800000000000D+00  0.0000000000000D+00  0.0000000000000D+00
380  3.7900000000000D+00  0.0000000000000D+00  0.0000000000000D+00
381  3.8000000000000D+00  0.0000000000000D+00  0.0000000000000D+00
382  3.8100000000000D+00  0.0000000000000D+00  0.0000000000000D+00
383  3.8200000000000D+00  0.0000000000000D+00  0.0000000000000D+00
384  3.8300000000000D+00  0.0000000000000D+00  0.0000000000000D+00
385  3.8400000000000D+00  0.0000000000000D+00  0.0000000000000D+00
386  3.8500000000000D+00  0.0000000000000D+00  0.0000000000000D+00
387  3.8600000000000D+00  0.0000000000000D+00  0.0000000000000D+00
388  3.8700000000000D+00  0.0000000000000D+00  0.0000000000000D+00
389  3.8800000000000D+00  0.0000000000000D+00  0.0000000000000D+00
390  3.8900000000000D+00  0.0000000000000D+00  0.0000000000000D+00
391  3.9000000000000D+00  0.0000000000000D+00  0.0000000000000D+00
392  3.9100000000000D+00  0.0000000000000D+00  0.0000000000000D+00
393  3.9200000000000D+00  0.0000000000000D+00  0.0000000000000D+00
394  3.9300000000000D+00  0.0000000000000D+00  0.0000000000000D+00
395  3.9400000000000D+00  0.0000000000000D+00  0.0000000000000D+00
396  3.9500000000000D+00  0.0000000000000D+00  0.0000000000000D+00
397  3.9600000000000D+00  0.0000000000000D+00  0.0000000000000D+00
398  3.9700000000000D+00  0.0000000000000D+00  0.0000000000000D+00
399  3.9800000000000D+00  0.0000000000000D+00  0.0000000000000D+00
400  3.9900000000000D+00  0.0000000000000D+00  0.0000000000000D+00
401  4.0000000000000D+00  0.0000000000000D+00  0.0000000000000D+00
402  4.0100000000000D+00  0.0000000000000D+00  0.0000000000000D+00
403  4.0200000000000D+00  0.0000000000000D+00  0.0000000000000D+00
404  4.0300000000000D+00  0.0000000000000D+00  0.0000000000000D+00
405  4.0400000000000D+00  0.0000000000000D+00  0.0000000000000D+00
406  4.0500000000000D+00  0.0000000000000D+00  0.0000000000000D+00
407  4.0600000000000D+00  0.0000000000000D+00  0.0000000000000D+00
408  4.0700000000000D+00  0.0000000000000D+00  0.0000000000000D+00
409  4.0800000000000D+00  0.0000000000000D+00  0.0000000000000D+00
410  4.0900000000000D+00  0.0000000000000D+00  0.0000000000000D+00
411  4.1000000000000D+00  0.0000000000000D+00  0.0000000000000D+00
412  4.1100000000000D+00  0.0000000000000D+00  0.0000000000000D+00
413  4.1200000000000D+00  0.0000000000000D+00  0.0000000000000D+00
414  4.1300000000000D+00  0.0000000000000D+00  0.0000000000000D+00
415  4.1400000000000D+00  0.0000000000000D+00  0.0000000000000D+00
416  4.1500000000000D+00  0.0000000000000D+00  0.0000000000000D+00
417  4.1600000000000D+00  0.0000000000000D+00  0.0000000000000D+00
418  4.1700000000000D+00  0.0000000000000D+00  0.0000000000000D+00
419  4.1800000000000D+00  0.0000000000000D+00  0.0000000000000D+00
420  4.1900000000000D+00  0.0000000000000D+00  0.0000000000000D+00
421  4.2000000000000D+00  0.0000000000000D+00  0.0000000000000D+00
422  4.2100000000000D+00  0.0000000000000D+00  0.0000000000000D+00
423  4.2200000000000D+00  0.0000000000000D+00  0.0000000000000D+00
424  4.2300000000000D+00  0.0000000000000D+00  0.0000000000000D+00
425  4.2400000000000D+00  0.0000000000000D+00  0.0000000000000D+00
426  4.2500000000000D+00  0.0000000000000D+00  0.0000000000000D+00
427  4.2600000000000D+00  0.0000000000000D+00  0.0000000000000D+00
428  4.2700000000000D+00  0.0000000000000D+00  0.0000000000000D+00
429  4.2800000000000D+00  0.0000000000000D+00  0.0000000000000D+00
430  4.2900000000000D+00  0.0000000000000D+00  0.0000000000000D+00
431  4.3000000000000D+00  0.0000000000000D+00  0.0000000000000D+00
432  4.3100000000000D+00  0.0000000000000D+00  0.0000000000000D+00
433  4.3200000000000D+00  0.0000000000000D+00  0.0000000000000D+00
434  4.3300000000000D+00  0.0000000000000D+00  0.0000000000000D+00
435  4.3400000000000D+00  0.0000000000000D+00  0.0000000000000D+00
436  4.3500000000000D+00  0.0000000000000D+00  0.0000000000000D+00
437  4.3600000000000D+00  0.0000000000000D+00  0.0000000000000D+00
438  4.3700000000000D+00  0.0000000000000D+00  0.0000000000000D+00
439  4.3800000000000D+00  0.0000000000000D+00  0.0000000000000D+00
440  4.3900000000000D+00  0.0000000000000D+00  0.0000000000000D+00
441  4.4000000000000D+00  0.0000000000000D+00  0.0000000000000D+00
442  4.4100000000000D+00  0.0000000000000D+00  0.0000000000000D+00
443  4.4200000000000D+00  0.0000000000000D+00  0.0000000000000D+00
444  4.4300000000000D+00  0.0000000000000D+00  0.0000000000000D+00