Ge    ONCVPSP  r_core=  1.82  1.62  2.10
32.0000      4.0000      150121    zatom,zion,pspd
8      11   2     4   600     0    pspcod,pspxc,lmax,lloc,mmax,r2well
5.99000000  0.50000000  0.00000000    rchrg fchrg qchrg
2     2     2     0     0    nproj
0                 extension_switch
0                         6.3239873098470D+00  5.9802080336377D-01
1  0.0000000000000D+00  0.0000000000000D+00 -0.0000000000000D+00
2  1.0000000000000D-02  2.8848753143614D-02 -1.7035313550106D-02
3  2.0000000000000D-02  5.7685068891984D-02 -3.4032588616375D-02
4  3.0000000000000D-02  8.6496510634058D-02 -5.0953939065682D-02
5  4.0000000000000D-02  1.1527064325173D-01 -6.7761782441584D-02
6  5.0000000000000D-02  1.4399503367863D-01 -8.4418989247574D-02
7  6.0000000000000D-02  1.7265725123632D-01 -1.0088902918324D-01
8  7.0000000000000D-02  2.0124486767776D-01 -1.1713611334834D-01
9  8.0000000000000D-02  2.2974545687188D-01 -1.3312533145838D-01
10  9.0000000000000D-02  2.5814659406712D-01 -1.4882278314393D-01
11  1.0000000000000D-01  2.8643585467738D-01 -1.6419570245286D-01
12  1.1000000000000D-01  3.1460081253974D-01 -1.7921257471048D-01
13  1.2000000000000D-01  3.4262903760009D-01 -1.9384324495047D-01
14  1.3000000000000D-01  3.7050809299069D-01 -2.0805901717274D-01
15  1.4000000000000D-01  3.9822553147031D-01 -2.2183274379610D-01
16  1.5000000000000D-01  4.2576889120999D-01 -2.3513890461620D-01
17  1.6000000000000D-01  4.5312569091000D-01 -2.4795367485436D-01
18  1.7000000000000D-01  4.8028342425355D-01 -2.6025498169168D-01
19  1.8000000000000D-01  5.0722955369861D-01 -2.7202254906141D-01
20  1.9000000000000D-01  5.3395150364020D-01 -2.8323793022501D-01
21  2.0000000000000D-01  5.6043665295139D-01 -2.9388452813293D-01
22  2.1000000000000D-01  5.8667232698007D-01 -3.0394760314514D-01
23  2.2000000000000D-01  6.1264578901557D-01 -3.1341426836841D-01
24  2.3000000000000D-01  6.3834423130887D-01 -3.2227347245519D-01
25  2.4000000000000D-01  6.6375476571390D-01 -3.3051597003442D-01
26  2.5000000000000D-01  6.8886441406840D-01 -3.3813428006140D-01
27  2.6000000000000D-01  7.1366009829888D-01 -3.4512263224755D-01
28  2.7000000000000D-01  7.3812863053648D-01 -3.5147690219604D-01
29  2.8000000000000D-01  7.6225670318103D-01 -3.5719453551186D-01
30  2.9000000000000D-01  7.8603087911301D-01 -3.6227446142809D-01
31  3.0000000000000D-01  8.0943758222317D-01 -3.6671699690940D-01
32  3.1000000000000D-01  8.3246308829421D-01 -3.7052374137534D-01
33  3.2000000000000D-01  8.5509351648188D-01 -3.7369746335956D-01
34  3.3000000000000D-01  8.7731482154759D-01 -3.7624198027760D-01
35  3.4000000000000D-01  8.9911278684395D-01 -3.7816203079108D-01
36  3.5000000000000D-01  9.2047301838602D-01 -3.7946314193602D-01
37  3.6000000000000D-01  9.4138094014381D-01 -3.8015149241483D-01
38  3.7000000000000D-01  9.6182179070062D-01 -3.8023377299390D-01
39  3.8000000000000D-01  9.8178062120250D-01 -3.7971704067714D-01
40  3.9000000000000D-01  1.0012422953626D+00 -3.7860857799119D-01
41  4.0000000000000D-01  1.0201914910330D+00 -3.7691574801388D-01
42  4.1000000000000D-01  1.0386127038500D+00 -3.7464585164431D-01
43  4.2000000000000D-01  1.0564902530407D+00 -3.7180598757233D-01
44  4.3000000000000D-01  1.0738082895316D+00 -3.6840291475201D-01
45  4.4000000000000D-01  1.0905508064997D+00 -3.6444292258022D-01
46  4.5000000000000D-01  1.1067016524996D+00 -3.5993170315873D-01
47  4.6000000000000D-01  1.1222445472928D+00 -3.5487423356110D-01
48  4.7000000000000D-01  1.1371631004946D+00 -3.4927466523081D-01
49  4.8000000000000D-01  1.1514408331261D+00 -3.4313622307576D-01
50  4.9000000000000D-01  1.1650612019814D+00 -3.3646111651663D-01
51  5.0000000000000D-01  1.1780076267623D+00 -3.2925046192392D-01
52  5.1000000000000D-01  1.1902635224355D+00 -3.2150420286916D-01
53  5.2000000000000D-01  1.2018123312362D+00 -3.1322107282906D-01
54  5.3000000000000D-01  1.2126375588817D+00 -3.0439855308416D-01
55  5.4000000000000D-01  1.2227228193712D+00 -2.9503282796679D-01
56  5.5000000000000D-01  1.2320518701988D+00 -2.8511880749192D-01
57  5.6000000000000D-01  1.2406086684209D+00 -2.7465009702993D-01
58  5.7000000000000D-01  1.2483774094429D+00 -2.6361905116366D-01
59  5.8000000000000D-01  1.2553425906886D+00 -2.5201678314862D-01
60  5.9000000000000D-01  1.2614890521754D+00 -2.3983324539074D-01
61  6.0000000000000D-01  1.2668020536391D+00 -2.2705727398929D-01
62  6.1000000000000D-01  1.2712673102954D+00 -2.1367669932789D-01
63  6.2000000000000D-01  1.2748710804407D+00 -1.9967843244975D-01
64  6.3000000000000D-01  1.2776002152741D+00 -1.8504859413889D-01
65  6.4000000000000D-01  1.2794422158556D+00 -1.6977264146514D-01
66  6.5000000000000D-01  1.2803853341482D+00 -1.5383552942446D-01
67  6.6000000000000D-01  1.2804186124589D+00 -1.3722186620902D-01
68  6.7000000000000D-01  1.2795319544391D+00 -1.1991608179013D-01
69  6.8000000000000D-01  1.2777162171751D+00 -1.0190263848797D-01
70  6.9000000000000D-01  1.2749632730105D+00 -8.3166226476752D-02
71  7.0000000000000D-01  1.2712660748555D+00 -6.3691966289993D-02
72  7.1000000000000D-01  1.2666187297223D+00 -4.3465629659051D-02
73  7.2000000000000D-01  1.2610165659407D+00 -2.2473859449573D-02
74  7.3000000000000D-01  1.2544562292485D+00 -7.0445500000401D-04
75  7.4000000000000D-01  1.2469357211923D+00  2.1853441611257D-02
76  7.5000000000000D-01  1.2384544755001D+00  4.5209085960994D-02
77  7.6000000000000D-01  1.2290134224830D+00  6.9369886478524D-02
78  7.7000000000000D-01  1.2186150507104D+00  9.4341159787563D-02
79  7.8000000000000D-01  1.2072634655322D+00  1.2012588800896D-01
80  7.9000000000000D-01  1.1949644440248D+00  1.4672447986866D-01
81  8.0000000000000D-01  1.1817254815683D+00  1.7413455014777D-01
82  8.1000000000000D-01  1.1675558504506D+00  2.0235066008960D-01
83  8.2000000000000D-01  1.1524666330851D+00  2.3136412359116D-01
84  8.3000000000000D-01  1.1364707571093D+00  2.6116280720690D-01
85  8.4000000000000D-01  1.1195830286466D+00  2.9173093174621D-01
86  8.5000000000000D-01  1.1018201573860D+00  3.2304889496030D-01
87  8.6000000000000D-01  1.0832007753649D+00  3.5509311084071D-01
88  8.7000000000000D-01  1.0637454491265D+00  3.8783586723573D-01
89  8.8000000000000D-01  1.0434766849444D+00  4.2124520342185D-01
90  8.9000000000000D-01  1.0224189231238D+00  4.5528482439251D-01
91  9.0000000000000D-01  1.0005985353913D+00  4.8991399764348D-01
92  9.1000000000000D-01  9.7804380982917D-01  5.2508748776685D-01
93  9.2000000000000D-01  9.5478491750182D-01  5.6075556244303D-01
94  9.3000000000000D-01  9.3085388306573D-01  5.9686397656926D-01
95  9.4000000000000D-01  9.0628454359540D-01  6.3335399819245D-01
96  9.5000000000000D-01  8.8111249917063D-01  6.7016246297451D-01
97  9.6000000000000D-01  8.5537505522378D-01  7.0722185778234D-01
98  9.7000000000000D-01  8.2911115672121D-01  7.4446043372750D-01
99  9.8000000000000D-01  8.0236131433962D-01  7.8180234866667D-01
100  9.9000000000000D-01  7.7516752659013D-01  8.1916786470235D-01
101  1.0000000000000D+00  7.4757319143431D-01  8.5647345582214D-01
102  1.0100000000000D+00  7.1962299626644D-01  8.9363211810795D-01
103  1.0200000000000D+00  6.9136281826651D-01  9.3055363978955D-01
104  1.0300000000000D+00  6.6283961233685D-01  9.6714487339700D-01
105  1.0400000000000D+00  6.3410129319694D-01  1.0033100495645D+00
106  1.0500000000000D+00  6.0519666362804D-01  1.0389510330529D+00
107  1.0600000000000D+00  5.7617515666532D-01  1.0739678481741D+00
108  1.0700000000000D+00  5.4708677432045D-01  1.1082590229113D+00
109  1.0800000000000D+00  5.1798194592955D-01  1.1417219784832D+00
110  1.0900000000000D+00  4.8891139799448D-01  1.1742534164988D+00
111  1.1000000000000D+00  4.5992608296005D-01  1.2057495680787D+00
112  1.1100000000000D+00  4.3107668922482D-01  1.2361074274617D+00
113  1.1200000000000D+00  4.0241380274494D-01  1.2652245552500D+00
114  1.1300000000000D+00  3.7398767998964D-01  1.2929996954660D+00
115  1.1400000000000D+00  3.4584830723612D-01  1.3193326934579D+00
116  1.1500000000000D+00  3.1804452083378D-01  1.3441268467321D+00
117  1.1600000000000D+00  2.9062450722539D-01  1.3672877709964D+00
118  1.1700000000000D+00  2.6363560736610D-01  1.3887239490428D+00
119  1.1800000000000D+00  2.3712403908746D-01  1.4083475315860D+00
120  1.1900000000000D+00  2.1113425663757D-01  1.4260762130211D+00
121  1.2000000000000D+00  1.8570948783932D-01  1.4418318424052D+00
122  1.2100000000000D+00  1.6089185445350D-01  1.4555400868540D+00
123  1.2200000000000D+00  1.3672079108820D-01  1.4671349804432D+00
124  1.2300000000000D+00  1.1323412921517D-01  1.4765559494479D+00
125  1.2400000000000D+00  9.0468228186119D-02  1.4837474258660D+00
126  1.2500000000000D+00  6.8456545987334D-02  1.4886630272807D+00
127  1.2600000000000D+00  4.7230212206817D-02  1.4912639756468D+00
128  1.2700000000000D+00  2.6818748507679D-02  1.4915169893063D+00
129  1.2800000000000D+00  7.2483899334887D-03  1.4893992307944D+00
130  1.2900000000000D+00 -1.1457355300718D-02  1.4848967043944D+00
131  1.3000000000000D+00 -2.9276617167422D-02  1.4780010417819D+00
132  1.3100000000000D+00 -4.6191463256983D-02  1.4687162958827D+00
133  1.3200000000000D+00 -6.2186606531356D-02  1.4570551150638D+00
134  1.3300000000000D+00 -7.7248374382636D-02  1.4430357167804D+00
135  1.3400000000000D+00 -9.1367937324311D-02  1.4266913476802D+00
136  1.3500000000000D+00 -1.0453822164088D-01  1.4080611661873D+00
137  1.3600000000000D+00 -1.1675481774814D-01  1.3871929438839D+00
138  1.3700000000000D+00 -1.2801760030545D-01  1.3641476100311D+00
139  1.3800000000000D+00 -1.3832778236867D-01  1.3389907611447D+00
140  1.3900000000000D+00 -1.4769060734874D-01  1.3118003007953D+00
141  1.4000000000000D+00 -1.5611398334136D-01  1.2826623275582D+00
142  1.4100000000000D+00 -1.6360764980649D-01  1.2516690144389D+00
143  1.4200000000000D+00 -1.7018571452005D-01  1.2189250745710D+00
144  1.4300000000000D+00 -1.7586332113588D-01  1.1845389314499D+00
145  1.4400000000000D+00 -1.8065919721135D-01  1.1486291781714D+00
146  1.4500000000000D+00 -1.8459409299355D-01  1.1113201624047D+00
147  1.4600000000000D+00 -1.8769076240532D-01  1.0727423914093D+00
148  1.4700000000000D+00 -1.8997482761751D-01  1.0330331772596D+00
149  1.4800000000000D+00 -1.9147297513098D-01  9.9233395324387D-01
150  1.4900000000000D+00 -1.9221458346120D-01  9.5079139439762D-01
151  1.5000000000000D+00 -1.9223003051172D-01  9.0855558001476D-01
152  1.5100000000000D+00 -1.9155153040579D-01  8.6577992913318D-01
153  1.5200000000000D+00 -1.9021225572275D-01  8.2261924330841D-01
154  1.5300000000000D+00 -1.8824678052396D-01  7.7923171466824D-01
155  1.5400000000000D+00 -1.8568990340623D-01  7.3577232306867D-01
156  1.5500000000000D+00 -1.8257801595607D-01  6.9240175073580D-01
157  1.5600000000000D+00 -1.7894637690560D-01  6.4927076603934D-01
158  1.5700000000000D+00 -1.7483239311857D-01  6.0653901608027D-01
159  1.5800000000000D+00 -1.7027092293065D-01  5.6435019997335D-01
160  1.5900000000000D+00 -1.6529897952636D-01  5.2285672885354D-01
161  1.6000000000000D+00 -1.5995049745955D-01  4.8219372279865D-01
162  1.6100000000000D+00 -1.5426081851644D-01  4.4250125294390D-01
163  1.6200000000000D+00 -1.4826202266663D-01  4.0390202725163D-01
164  1.6300000000000D+00 -1.4198681240408D-01  3.6652080507442D-01
165  1.6400000000000D+00 -1.3546509149325D-01  3.3046930233613D-01
166  1.6500000000000D+00 -1.2872664258718D-01  2.9585873648517D-01
167  1.6600000000000D+00 -1.2179908560960D-01  2.6279199584947D-01
168  1.6700000000000D+00 -1.1470911794073D-01  2.3136790509092D-01
169  1.6800000000000D+00 -1.0748136306927D-01  2.0167732185632D-01
170  1.6900000000000D+00 -1.0013906476408D-01  1.7380526889823D-01
171  1.7000000000000D+00 -9.2703185632972D-02  1.4782792094504D-01
172  1.7100000000000D+00 -8.5193214176625D-02  1.2381517504564D-01
173  1.7200000000000D+00 -7.7625795206904D-02  1.0182591058544D-01
174  1.7300000000000D+00 -7.0016452354978D-02  8.1913913618095D-02
175  1.7400000000000D+00 -6.2376866385273D-02  6.4118151062267D-02
176  1.7500000000000D+00 -5.4718472973490D-02  4.8475650881772D-02
177  1.7600000000000D+00 -4.7047376714554D-02  3.5002949312830D-02
178  1.7700000000000D+00 -3.9370873991419D-02  2.3719964783042D-02
179  1.7800000000000D+00 -3.1688949375766D-02  1.4618532993357D-02
180  1.7900000000000D+00 -2.4004753024333D-02  7.7013079183211D-03
181  1.8000000000000D+00 -1.6264208768302D-02  2.9505426429256D-03
182  1.8100000000000D+00 -7.6020534832429D-03  6.5960532683482D-04
183  1.8200000000000D+00 -6.0003723805138D-04 -1.5683789450927D-04
184  1.8300000000000D+00  1.1476482902413D-03 -3.3166818746554D-04
185  1.8400000000000D+00  4.0951392303281D-04 -1.0260892887697D-04
186  1.8500000000000D+00 -3.6220739626590D-06  1.1761731936509D-05
187  1.8600000000000D+00 -2.2295822695708D-06  7.2399816390923D-06
188  1.8700000000000D+00  0.0000000000000D+00  0.0000000000000D+00
189  1.8800000000000D+00  0.0000000000000D+00  0.0000000000000D+00
190  1.8900000000000D+00  0.0000000000000D+00  0.0000000000000D+00
191  1.9000000000000D+00  0.0000000000000D+00  0.0000000000000D+00
192  1.9100000000000D+00  0.0000000000000D+00  0.0000000000000D+00
193  1.9200000000000D+00  0.0000000000000D+00  0.0000000000000D+00
194  1.9300000000000D+00  0.0000000000000D+00  0.0000000000000D+00
195  1.9400000000000D+00  0.0000000000000D+00  0.0000000000000D+00
196  1.9500000000000D+00  0.0000000000000D+00  0.0000000000000D+00
197  1.9600000000000D+00  0.0000000000000D+00  0.0000000000000D+00
198  1.9700000000000D+00  0.0000000000000D+00  0.0000000000000D+00
199  1.9800000000000D+00  0.0000000000000D+00  0.0000000000000D+00
200  1.9900000000000D+00  0.0000000000000D+00  0.0000000000000D+00
201  2.0000000000000D+00  0.0000000000000D+00  0.0000000000000D+00
202  2.0100000000000D+00  0.0000000000000D+00  0.0000000000000D+00
203  2.0200000000000D+00  0.0000000000000D+00  0.0000000000000D+00
204  2.0300000000000D+00  0.0000000000000D+00  0.0000000000000D+00
205  2.0400000000000D+00  0.0000000000000D+00  0.0000000000000D+00
206  2.0500000000000D+00  0.0000000000000D+00  0.0000000000000D+00
207  2.0600000000000D+00  0.0000000000000D+00  0.0000000000000D+00
208  2.0700000000000D+00  0.0000000000000D+00  0.0000000000000D+00
209  2.0800000000000D+00  0.0000000000000D+00  0.0000000000000D+00
210  2.0900000000000D+00  0.0000000000000D+00  0.0000000000000D+00
211  2.1000000000000D+00  0.0000000000000D+00  0.0000000000000D+00
212  2.1100000000000D+00  0.0000000000000D+00  0.0000000000000D+00
213  2.1200000000000D+00  0.0000000000000D+00  0.0000000000000D+00
214  2.1300000000000D+00  0.0000000000000D+00  0.0000000000000D+00
215  2.1400000000000D+00  0.0000000000000D+00  0.0000000000000D+00
216  2.1500000000000D+00  0.0000000000000D+00  0.0000000000000D+00
217  2.1600000000000D+00  0.0000000000000D+00  0.0000000000000D+00
218  2.1700000000000D+00  0.0000000000000D+00  0.0000000000000D+00
219  2.1800000000000D+00  0.0000000000000D+00  0.0000000000000D+00
220  2.1900000000000D+00  0.0000000000000D+00  0.0000000000000D+00
221  2.2000000000000D+00  0.0000000000000D+00  0.0000000000000D+00
222  2.2100000000000D+00  0.0000000000000D+00  0.0000000000000D+00
223  2.2200000000000D+00  0.0000000000000D+00  0.0000000000000D+00
224  2.2300000000000D+00  0.0000000000000D+00  0.0000000000000D+00
225  2.2400000000000D+00  0.0000000000000D+00  0.0000000000000D+00
226  2.2500000000000D+00  0.0000000000000D+00  0.0000000000000D+00
227  2.2600000000000D+00  0.0000000000000D+00  0.0000000000000D+00
228  2.2700000000000D+00  0.0000000000000D+00  0.0000000000000D+00
229  2.2800000000000D+00  0.0000000000000D+00  0.0000000000000D+00
230  2.2900000000000D+00  0.0000000000000D+00  0.0000000000000D+00
231  2.3000000000000D+00  0.0000000000000D+00  0.0000000000000D+00
232  2.3100000000000D+00  0.0000000000000D+00  0.0000000000000D+00
233  2.3200000000000D+00  0.0000000000000D+00  0.0000000000000D+00
234  2.3300000000000D+00  0.0000000000000D+00  0.0000000000000D+00
235  2.3400000000000D+00  0.0000000000000D+00  0.0000000000000D+00
236  2.3500000000000D+00  0.0000000000000D+00  0.0000000000000D+00
237  2.3600000000000D+00  0.0000000000000D+00  0.0000000000000D+00
238  2.3700000000000D+00  0.0000000000000D+00  0.0000000000000D+00
239  2.3800000000000D+00  0.0000000000000D+00  0.0000000000000D+00
240  2.3900000000000D+00  0.0000000000000D+00  0.0000000000000D+00
241  2.4000000000000D+00  0.0000000000000D+00  0.0000000000000D+00
242  2.4100000000000D+00  0.0000000000000D+00  0.0000000000000D+00
243  2.4200000000000D+00  0.0000000000000D+00  0.0000000000000D+00
244  2.4300000000000D+00  0.0000000000000D+00  0.0000000000000D+00
245  2.4400000000000D+00  0.0000000000000D+00  0.0000000000000D+00
246  2.4500000000000D+00  0.0000000000000D+00  0.0000000000000D+00
247  2.4600000000000D+00  0.0000000000000D+00  0.0000000000000D+00
248  2.4700000000000D+00  0.0000000000000D+00  0.0000000000000D+00
249  2.4800000000000D+00  0.0000000000000D+00  0.0000000000000D+00
250  2.4900000000000D+00  0.0000000000000D+00  0.0000000000000D+00
251  2.5000000000000D+00  0.0000000000000D+00  0.0000000000000D+00
252  2.5100000000000D+00  0.0000000000000D+00  0.0000000000000D+00
253  2.5200000000000D+00  0.0000000000000D+00  0.0000000000000D+00
254  2.5300000000000D+00  0.0000000000000D+00  0.0000000000000D+00
255  2.5400000000000D+00  0.0000000000000D+00  0.0000000000000D+00
256  2.5500000000000D+00  0.0000000000000D+00  0.0000000000000D+00
257  2.5600000000000D+00  0.0000000000000D+00  0.0000000000000D+00
258  2.5700000000000D+00  0.0000000000000D+00  0.0000000000000D+00
259  2.5800000000000D+00  0.0000000000000D+00  0.0000000000000D+00
260  2.5900000000000D+00  0.0000000000000D+00  0.0000000000000D+00
261  2.6000000000000D+00  0.0000000000000D+00  0.0000000000000D+00
262  2.6100000000000D+00  0.0000000000000D+00  0.0000000000000D+00
263  2.6200000000000D+00  0.0000000000000D+00  0.0000000000000D+00
264  2.6300000000000D+00  0.0000000000000D+00  0.0000000000000D+00
265  2.6400000000000D+00  0.0000000000000D+00  0.0000000000000D+00
266  2.6500000000000D+00  0.0000000000000D+00  0.0000000000000D+00
267  2.6600000000000D+00  0.0000000000000D+00  0.0000000000000D+00
268  2.6700000000000D+00  0.0000000000000D+00  0.0000000000000D+00
269  2.6800000000000D+00  0.0000000000000D+00  0.0000000000000D+00
270  2.6900000000000D+00  0.0000000000000D+00  0.0000000000000D+00
271  2.7000000000000D+00  0.0000000000000D+00  0.0000000000000D+00
272  2.7100000000000D+00  0.0000000000000D+00  0.0000000000000D+00
273  2.7200000000000D+00  0.0000000000000D+00  0.0000000000000D+00
274  2.7300000000000D+00  0.0000000000000D+00  0.0000000000000D+00
275  2.7400000000000D+00  0.0000000000000D+00  0.0000000000000D+00
276  2.7500000000000D+00  0.0000000000000D+00  0.0000000000000D+00
277  2.7600000000000D+00  0.0000000000000D+00  0.0000000000000D+00
278  2.7700000000000D+00  0.0000000000000D+00  0.0000000000000D+00
279  2.7800000000000D+00  0.0000000000000D+00  0.0000000000000D+00
280  2.7900000000000D+00  0.0000000000000D+00  0.0000000000000D+00
281  2.8000000000000D+00  0.0000000000000D+00  0.0000000000000D+00
282  2.8100000000000D+00  0.0000000000000D+00  0.0000000000000D+00
283  2.8200000000000D+00  0.0000000000000D+00  0.0000000000000D+00
284  2.8300000000000D+00  0.0000000000000D+00  0.0000000000000D+00
285  2.8400000000000D+00  0.0000000000000D+00  0.0000000000000D+00
286  2.8500000000000D+00  0.0000000000000D+00  0.0000000000000D+00
287  2.8600000000000D+00  0.0000000000000D+00  0.0000000000000D+00
288  2.8700000000000D+00  0.0000000000000D+00  0.0000000000000D+00
289  2.8800000000000D+00  0.0000000000000D+00  0.0000000000000D+00
290  2.8900000000000D+00  0.0000000000000D+00  0.0000000000000D+00
291  2.9000000000000D+00  0.0000000000000D+00  0.0000000000000D+00
292  2.9100000000000D+00  0.0000000000000D+00  0.0000000000000D+00
293  2.9200000000000D+00  0.0000000000000D+00  0.0000000000000D+00
294  2.9300000000000D+00  0.0000000000000D+00  0.0000000000000D+00
295  2.9400000000000D+00  0.0000000000000D+00  0.0000000000000D+00
296  2.9500000000000D+00  0.0000000000000D+00  0.0000000000000D+00
297  2.9600000000000D+00  0.0000000000000D+00  0.0000000000000D+00
298  2.9700000000000D+00  0.0000000000000D+00  0.0000000000000D+00
299  2.9800000000000D+00  0.0000000000000D+00  0.0000000000000D+00
300  2.9900000000000D+00  0.0000000000000D+00  0.0000000000000D+00
301  3.0000000000000D+00  0.0000000000000D+00  0.0000000000000D+00
302  3.0100000000000D+00  0.0000000000000D+00  0.0000000000000D+00
303  3.0200000000000D+00  0.0000000000000D+00  0.0000000000000D+00
304  3.0300000000000D+00  0.0000000000000D+00  0.0000000000000D+00
305  3.0400000000000D+00  0.0000000000000D+00  0.0000000000000D+00
306  3.0500000000000D+00  0.0000000000000D+00  0.0000000000000D+00
307  3.0600000000000D+00  0.0000000000000D+00  0.0000000000000D+00
308  3.0700000000000D+00  0.0000000000000D+00  0.0000000000000D+00
309  3.0800000000000D+00  0.0000000000000D+00  0.0000000000000D+00
310  3.0900000000000D+00  0.0000000000000D+00  0.0000000000000D+00
311  3.1000000000000D+00  0.0000000000000D+00  0.0000000000000D+00
312  3.1100000000000D+00  0.0000000000000D+00  0.0000000000000D+00
313  3.1200000000000D+00  0.0000000000000D+00  0.0000000000000D+00
314  3.1300000000000D+00  0.0000000000000D+00  0.0000000000000D+00
315  3.1400000000000D+00  0.0000000000000D+00  0.0000000000000D+00
316  3.1500000000000D+00  0.0000000000000D+00  0.0000000000000D+00
317  3.1600000000000D+00  0.0000000000000D+00  0.0000000000000D+00
318  3.1700000000000D+00  0.0000000000000D+00  0.0000000000000D+00
319  3.1800000000000D+00  0.0000000000000D+00  0.0000000000000D+00
320  3.1900000000000D+00  0.0000000000000D+00  0.0000000000000D+00
321  3.2000000000000D+00  0.0000000000000D+00  0.0000000000000D+00
322  3.2100000000000D+00  0.0000000000000D+00  0.0000000000000D+00
323  3.2200000000000D+00  0.0000000000000D+00  0.0000000000000D+00
324  3.2300000000000D+00  0.0000000000000D+00  0.0000000000000D+00
325  3.2400000000000D+00  0.0000000000000D+00  0.0000000000000D+00
326  3.2500000000000D+00  0.0000000000000D+00  0.0000000000000D+00
327  3.2600000000000D+00  0.0000000000000D+00  0.0000000000000D+00
328  3.2700000000000D+00  0.0000000000000D+00  0.0000000000000D+00
329  3.2800000000000D+00  0.0000000000000D+00  0.0000000000000D+00
330  3.2900000000000D+00  0.0000000000000D+00  0.0000000000000D+00
331  3.3000000000000D+00  0.0000000000000D+00  0.0000000000000D+00
332  3.3100000000000D+00  0.0000000000000D+00  0.0000000000000D+00
333  3.3200000000000D+00  0.0000000000000D+00  0.0000000000000D+00
334  3.3300000000000D+00  0.0000000000000D+00  0.0000000000000D+00
335  3.3400000000000D+00  0.0000000000000D+00  0.0000000000000D+00
336  3.3500000000000D+00  0.0000000000000D+00  0.0000000000000D+00
337  3.3600000000000D+00  0.0000000000000D+00  0.0000000000000D+00
338  3.3700000000000D+00  0.0000000000000D+00  0.0000000000000D+00
339  3.3800000000000D+00  0.0000000000000D+00  0.0000000000000D+00
340  3.3900000000000D+00  0.0000000000000D+00  0.0000000000000D+00
341  3.4000000000000D+00  0.0000000000000D+00  0.0000000000000D+00
342  3.4100000000000D+00  0.0000000000000D+00  0.0000000000000D+00
343  3.4200000000000D+00  0.0000000000000D+00  0.0000000000000D+00
344  3.4300000000000D+00  0.0000000000000D+00  0.0000000000000D+00
345  3.4400000000000D+00  0.0000000000000D+00  0.0000000000000D+00
346  3.4500000000000D+00  0.0000000000000D+00  0.0000000000000D+00
347  3.4600000000000D+00  0.0000000000000D+00  0.0000000000000D+00
348  3.4700000000000D+00  0.0000000000000D+00  0.0000000000000D+00
349  3.4800000000000D+00  0.0000000000000D+00  0.0000000000000D+00
350  3.4900000000000D+00  0.0000000000000D+00  0.0000000000000D+00
351  3.5000000000000D+00  0.0000000000000D+00  0.0000000000000D+00
352  3.5100000000000D+00  0.0000000000000D+00  0.0000000000000D+00
353  3.5200000000000D+00  0.0000000000000D+00  0.0000000000000D+00
354  3.5300000000000D+00  0.0000000000000D+00  0.0000000000000D+00
355  3.5400000000000D+00  0.0000000000000D+00  0.0000000000000D+00
356  3.5500000000000D+00  0.0000000000000D+00  0.0000000000000D+00
357  3.5600000000000D+00  0.0000000000000D+00  0.0000000000000D+00
358  3.5700000000000D+00  0.0000000000000D+00  0.0000000000000D+00
359  3.5800000000000D+00  0.0000000000000D+00  0.0000000000000D+00
360  3.5900000000000D+00  0.0000000000000D+00  0.0000000000000D+00
361  3.6000000000000D+00  0.0000000000000D+00  0.0000000000000D+00
362  3.6100000000000D+00  0.0000000000000D+00  0.0000000000000D+00
363  3.6200000000000D+00  0.0000000000000D+00  0.0000000000000D+00
364  3.6300000000000D+00  0.0000000000000D+00  0.0000000000000D+00
365  3.6400000000000D+00  0.0000000000000D+00  0.0000000000000D+00
366  3.6500000000000D+00  0.0000000000000D+00  0.0000000000000D+00
367  3.6600000000000D+00  0.0000000000000D+00  0.0000000000000D+00
368  3.6700000000000D+00  0.0000000000000D+00  0.0000000000000D+00
369  3.6800000000000D+00  0.0000000000000D+00  0.0000000000000D+00
370  3.6900000000000D+00  0.0000000000000D+00  0.0000000000000D+00
371  3.7000000000000D+00  0.0000000000000D+00  0.0000000000000D+00
372  3.7100000000000D+00  0.0000000000000D+00  0.0000000000000D+00
373  3.7200000000000D+00  0.0000000000000D+00  0.0000000000000D+00
374  3.7300000000000D+00  0.0000000000000D+00  0.0000000000000D+00
375  3.7400000000000D+00  0.0000000000000D+00  0.0000000000000D+00
376  3.7500000000000D+00  0.0000000000000D+00  0.0000000000000D+00
377  3.7600000000000D+00  0.0000000000000D+00  0.0000000000000D+00
378  3.7700000000000D+00  0.0000000000000D+00  0.0000000000000D+00
379  3.7800000000000D+00  0.0000000000000D+00  0.0000000000000D+00
380  3.7900000000000D+00  0.0000000000000D+00  0.0000000000000D+00
381  3.8000000000000D+00  0.0000000000000D+00  0.0000000000000D+00
382  3.8100000000000D+00  0.0000000000000D+00  0.0000000000000D+00
383  3.8200000000000D+00  0.0000000000000D+00  0.0000000000000D+00
384  3.8300000000000D+00  0.0000000000000D+00  0.0000000000000D+00
385  3.8400000000000D+00  0.0000000000000D+00  0.0000000000000D+00
386  3.8500000000000D+00  0.0000000000000D+00  0.0000000000000D+00
387  3.8600000000000D+00  0.0000000000000D+00  0.0000000000000D+00
388  3.8700000000000D+00  0.0000000000000D+00  0.0000000000000D+00
389  3.8800000000000D+00  0.0000000000000D+00  0.0000000000000D+00
390  3.8900000000000D+00  0.0000000000000D+00  0.0000000000000D+00
391  3.9000000000000D+00  0.0000000000000D+00  0.0000000000000D+00
392  3.9100000000000D+00  0.0000000000000D+00  0.0000000000000D+00
393  3.9200000000000D+00  0.0000000000000D+00  0.0000000000000D+00
394  3.9300000000000D+00  0.0000000000000D+00  0.0000000000000D+00
395  3.9400000000000D+00  0.0000000000000D+00  0.0000000000000D+00
396  3.9500000000000D+00  0.0000000000000D+00  0.0000000000000D+00
397  3.9600000000000D+00  0.0000000000000D+00  0.0000000000000D+00
398  3.9700000000000D+00  0.0000000000000D+00  0.0000000000000D+00
399  3.9800000000000D+00  0.0000000000000D+00  0.0000000000000D+00
400  3.9900000000000D+00  0.0000000000000D+00  0.0000000000000D+00
401  4.0000000000000D+00  0.0000000000000D+00  0.0000000000000D+00
402  4.0100000000000D+00  0.0000000000000D+00  0.0000000000000D+00
403  4.0200000000000D+00  0.0000000000000D+00  0.0000000000000D+00
404  4.0300000000000D+00  0.0000000000000D+00  0.0000000000000D+00
405  4.0400000000000D+00  0.0000000000000D+00  0.0000000000000D+00
406  4.0500000000000D+00  0.0000000000000D+00  0.0000000000000D+00
407  4.0600000000000D+00  0.0000000000000D+00  0.0000000000000D+00
408  4.0700000000000D+00  0.0000000000000D+00  0.0000000000000D+00
409  4.0800000000000D+00  0.0000000000000D+00  0.0000000000000D+00
410  4.0900000000000D+00  0.0000000000000D+00  0.0000000000000D+00
411  4.1000000000000D+00  0.0000000000000D+00  0.0000000000000D+00
412  4.1100000000000D+00  0.0000000000000D+00  0.0000000000000D+00
413  4.1200000000000D+00  0.0000000000000D+00  0.0000000000000D+00
414  4.1300000000000D+00  0.0000000000000D+00  0.0000000000000D+00
415  4.1400000000000D+00  0.0000000000000D+00  0.0000000000000D+00
416  4.1500000000000D+00  0.0000000000000D+00  0.0000000000000D+00
417  4.1600000000000D+00  0.0000000000000D+00  0.0000000000000D+00
418  4.1700000000000D+00  0.0000000000000D+00  0.0000000000000D+00
419  4.1800000000000D+00  0.0000000000000D+00  0.0000000000000D+00
420  4.1900000000000D+00  0.0000000000000D+00  0.0000000000000D+00
421  4.2000000000000D+00  0.0000000000000D+00  0.0000000000000D+00
422  4.2100000000000D+00  0.0000000000000D+00  0.0000000000000D+00
423  4.2200000000000D+00  0.0000000000000D+00  0.0000000000000D+00
424  4.2300000000000D+00  0.0000000000000D+00  0.0000000000000D+00
425  4.2400000000000D+00  0.0000000000000D+00  0.0000000000000D+00
426  4.2500000000000D+00  0.0000000000000D+00  0.0000000000000D+00
427  4.2600000000000D+00  0.0000000000000D+00  0.0000000000000D+00
428  4.2700000000000D+00  0.0000000000000D+00  0.0000000000000D+00
429  4.2800000000000D+00  0.0000000000000D+00  0.0000000000000D+00
430  4.2900000000000D+00  0.0000000000000D+00  0.0000000000000D+00
431  4.3000000000000D+00  0.0000000000000D+00  0.0000000000000D+00
432  4.3100000000000D+00  0.0000000000000D+00  0.0000000000000D+00
433  4.3200000000000D+00  0.0000000000000D+00  0.0000000000000D+00
434  4.3300000000000D+00  0.0000000000000D+00  0.0000000000000D+00
435  4.3400000000000D+00  0.0000000000000D+00  0.0000000000000D+00
436  4.3500000000000D+00  0.0000000000000D+00  0.0000000000000D+00
437  4.3600000000000D+00  0.0000000000000D+00  0.0000000000000D+00
438  4.3700000000000D+00  0.0000000000000D+00  0.0000000000000D+00
439  4.3800000000000D+00  0.0000000000000D+00  0.0000000000000D+00
440  4.3900000000000D+00  0.0000000000000D+00  0.0000000000000D+00
441  4.4000000000000D+00  0.0000000000000D+00  0.0000000000000D+00
442  4.4100000000000D+00  0.0000000000000D+00  0.0000000000000D+00
443  4.4200000000000D+00  0.0000000000000D+00  0.0000000000000D+00
444  4.4300000000000D+00  0.0000000000000D+00  0.0000000000000D+00