Sr    ONCVPSP  r_core=  1.61  1.31  1.52
38.0000     10.0000      151029    zatom,zion,pspd
8   -1013   2     4   600     0    pspcod,pspxc,lmax,lloc,mmax,r2well
5.99000000  5.00000000  0.00000000    rchrg fchrg qchrg
2     2     2     0     0    nproj
0                 extension_switch
0                         9.9584138637475D+00  8.5325836956462D-01
1  0.0000000000000D+00  7.0598427104329D-10 -3.4662040460098D-09
2  1.0000000000000D-02  3.8095517381236D-02 -4.6204046616732D-03
3  2.0000000000000D-02  7.6214110729792D-02 -9.4261144149838D-03
4  3.0000000000000D-02  1.1437804842277D-01 -1.4598911682099D-02
5  4.0000000000000D-02  1.5260799573261D-01 -2.0313590169166D-02
6  5.0000000000000D-02  1.9092224328065D-01 -2.6734601163963D-02
7  6.0000000000000D-02  2.2933597098686D-01 -3.4012866109810D-02
8  7.0000000000000D-02  2.6786055850455D-01 -4.2282806739544D-02
9  8.0000000000000D-02  3.0650295242310D-01 -5.1659640587126D-02
10  9.0000000000000D-02  3.4526509965975D-01 -6.2236985465800D-02
11  1.0000000000000D-01  3.8414345545736D-01 -7.4084811576454D-02
12  1.1000000000000D-01  4.2312857327359D-01 -8.7247774366201D-02
13  1.2000000000000D-01  4.6220478260607D-01 -1.0174395518278D-01
14  1.3000000000000D-01  5.0134995946677D-01 -1.1756403026086D-01
15  1.4000000000000D-01  5.4053539281787D-01 -1.3467088173532D-01
16  1.5000000000000D-01  5.7972574883189D-01 -1.5299965731162D-01
17  1.6000000000000D-01  6.1887913336442D-01 -1.7245827804831D-01
18  1.7000000000000D-01  6.5794725154950D-01 -1.9292838653303D-01
19  1.8000000000000D-01  6.9687566197041D-01 -2.1426672067857D-01
20  1.9000000000000D-01  7.3560412144359D-01 -2.3630689153942D-01
21  2.0000000000000D-01  7.7406701510286D-01 -2.5886153706302D-01
22  2.1000000000000D-01  8.1219386520657D-01 -2.8172481764719D-01
23  2.2000000000000D-01  8.4990991093086D-01 -3.0467521387305D-01
24  2.3000000000000D-01  8.8713675037610D-01 -3.2747858191118D-01
25  2.4000000000000D-01  9.2379303511687D-01 -3.4989141793629D-01
26  2.5000000000000D-01  9.5979520688294D-01 -3.7166427950136D-01
27  2.6000000000000D-01  9.9505826538012D-01 -3.9254530927162D-01
28  2.7000000000000D-01  1.0294965558561D+00 -4.1228380484569D-01
29  2.8000000000000D-01  1.0630245647925D+00 -4.3063377762454D-01
30  2.9000000000000D-01  1.0955577120632D+00 -4.4735744384287D-01
31  3.0000000000000D-01  1.1270131280455D+00 -4.6222859195472D-01
32  3.1000000000000D-01  1.1573104044936D+00 -4.7503577254708D-01
33  3.2000000000000D-01  1.1863723084888D+00 -4.8558525981760D-01
34  3.3000000000000D-01  1.2141254494505D+00 -4.9370373734767D-01
35  3.4000000000000D-01  1.2405008900228D+00 -4.9924066537612D-01
36  3.5000000000000D-01  1.2654346926214D+00 -5.0207029196042D-01
37  3.6000000000000D-01  1.2888683945313D+00 -5.0209327622118D-01
38  3.7000000000000D-01  1.3107494056555D+00 -4.9923789820839D-01
39  3.8000000000000D-01  1.3310313243216D+00 -4.9346083670585D-01
40  3.9000000000000D-01  1.3496741679246D+00 -4.8474750339192D-01
41  4.0000000000000D-01  1.3666445166104D+00 -4.7311192908877D-01
42  4.1000000000000D-01  1.3819155696459D+00 -4.5859620523730D-01
43  4.2000000000000D-01  1.3954671155763D+00 -4.4126949111297D-01
44  4.3000000000000D-01  1.4072854186871D+00 -4.2122660452581D-01
45  4.4000000000000D-01  1.4173630256754D+00 -3.9858622070825D-01
46  4.5000000000000D-01  1.4256984977366D+00 -3.7348871066928D-01
47  4.6000000000000D-01  1.4322960744981D+00 -3.4609365637680D-01
48  4.7000000000000D-01  1.4371652773341D+00 -3.1657708561360D-01
49  4.8000000000000D-01  1.4403204605756D+00 -2.8512847414728D-01
50  4.9000000000000D-01  1.4417803199581D+00 -2.5194756687445D-01
51  5.0000000000000D-01  1.4415673683211D+00 -2.1724107277539D-01
52  5.1000000000000D-01  1.4397073890696D+00 -1.8121929078820D-01
53  5.2000000000000D-01  1.4362288782217D+00 -1.4409272503790D-01
54  5.3000000000000D-01  1.4311624859961D+00 -1.0606874820927D-01
55  5.4000000000000D-01  1.4245404688271D+00 -6.7348371218136D-02
56  5.5000000000000D-01  1.4163961624457D+00 -2.8123175717190D-02
57  5.6000000000000D-01  1.4067634862186D+00  1.1427536603150D-02
58  5.7000000000000D-01  1.3956764883217D+00  5.1139327474634D-02
59  5.8000000000000D-01  1.3831689405279D+00  9.0864892195838D-02
60  5.9000000000000D-01  1.3692739904408D+00  1.3047597560101D-01
61  6.0000000000000D-01  1.3540238779125D+00  1.6986489888408D-01
62  6.1000000000000D-01  1.3374497211592D+00  2.0894566890358D-01
63  6.2000000000000D-01  1.3195813767707D+00  2.4765464864775D-01
64  6.3000000000000D-01  1.3004473763949D+00  2.8595077507652D-01
65  6.4000000000000D-01  1.2800749414086D+00  3.2381531835335D-01
66  6.5000000000000D-01  1.2584900753899D+00  3.6125118443637D-01
67  6.6000000000000D-01  1.2357177326783D+00  3.9828177103820D-01
68  6.7000000000000D-01  1.2117820598224D+00  4.3494939485966D-01
69  6.8000000000000D-01  1.1867067052514D+00  4.7131331566959D-01
70  6.9000000000000D-01  1.1605151911162D+00  5.0744739015784D-01
71  7.0000000000000D-01  1.1332313399483D+00  5.4343739529484D-01
72  7.1000000000000D-01  1.1048797476007D+00  5.7937806716913D-01
73  7.2000000000000D-01  1.0754862928881D+00  6.1536990677214D-01
74  7.3000000000000D-01  1.0450786734489D+00  6.5151580891227D-01
75  7.4000000000000D-01  1.0136869566357D+00  6.8791757421356D-01
76  7.5000000000000D-01  9.8134413370731D-01  7.2467236697503D-01
77  7.6000000000000D-01  9.4808666526288D-01  7.6186918344761D-01
78  7.7000000000000D-01  9.1395500573118D-01  7.9958539578953D-01
79  7.8000000000000D-01  8.7899409481255D-01  8.3788343657759D-01
80  7.9000000000000D-01  8.4325380406884D-01  8.7680768725190D-01
81  8.0000000000000D-01  8.0678932736320D-01  9.1638163129347D-01
82  8.1000000000000D-01  7.6966150456402D-01  9.5660532929291D-01
83  8.2000000000000D-01  7.3193706883362D-01  9.9745326841820D-01
84  8.3000000000000D-01  6.9368880891188D-01  1.0388726331970D+00
85  8.4000000000000D-01  6.5499563906107D-01  1.0807820380756D+00
86  8.5000000000000D-01  6.1594257074129D-01  1.1230707549990D+00
87  8.6000000000000D-01  5.7662058161619D-01  1.1655984613920D+00
88  8.7000000000000D-01  5.3712637912081D-01  1.2081955255196D+00
89  8.8000000000000D-01  4.9756205753231D-01  1.2506638374197D+00
90  8.9000000000000D-01  4.5803464924252D-01  1.2927781845498D+00
91  9.0000000000000D-01  4.1865557271062D-01  1.3342881621405D+00
92  9.1000000000000D-01  3.7953998134461D-01  1.3749205991350D+00
93  9.2000000000000D-01  3.4080601929387D-01  1.4143824716760D+00
94  9.3000000000000D-01  3.0257399180161D-01  1.4523642675266D+00
95  9.4000000000000D-01  2.6496545933746D-01  1.4885437567229D+00
96  9.5000000000000D-01  2.2810226618410D-01  1.5225901162737D+00
97  9.6000000000000D-01  1.9210551545091D-01  1.5541683500345D+00
98  9.7000000000000D-01  1.5709450361915D-01  1.5829439390511D+00
99  9.8000000000000D-01  1.2318562867959D-01  1.6085876527355D+00
100  9.9000000000000D-01  9.0491286645849D-02  1.6307804475050D+00
101  1.0000000000000D+00  5.9118771747113D-02  1.6492183768146D+00
102  1.0100000000000D+00  2.9169195884609D-02  1.6636174350401D+00
103  1.0200000000000D+00  7.3644298085900D-04  1.6737182574057D+00
104  1.0300000000000D+00 -2.6093826374825D-02  1.6792905992611D+00
105  1.0400000000000D+00 -5.1245104967331D-02  1.6801375199563D+00
106  1.0500000000000D+00 -7.4650889411164D-02  1.6760992003212D+00
107  1.0600000000000D+00 -9.6255437617486D-02  1.6670563271630D+00
108  1.0700000000000D+00 -1.1601442099244D-01  1.6529329838800D+00
109  1.0800000000000D+00 -1.3389546050317D-01  1.6336989934744D+00
110  1.0900000000000D+00 -1.4987853704142D-01  1.6093716668048D+00
111  1.1000000000000D+00 -1.6395626841044D-01  1.5800169185298D+00
112  1.1100000000000D+00 -1.7613404691846D-01  1.5457497215919D+00
113  1.1200000000000D+00 -1.8643003355259D-01  1.5067338811734D+00
114  1.1300000000000D+00 -1.9487500659455D-01  1.4631811186017D+00
115  1.1400000000000D+00 -2.0151206450732D-01  1.4153494656355D+00
116  1.1500000000000D+00 -2.0639618517326D-01  1.3635409809282D+00
117  1.1600000000000D+00 -2.0959364545744D-01  1.3080988100057D+00
118  1.1700000000000D+00 -2.1118130689543D-01  1.2494036192816D+00
119  1.1800000000000D+00 -2.1124577529098D-01  1.1878694446220D+00
120  1.1900000000000D+00 -2.0988244389460D-01  1.1239390044052D+00
121  1.2000000000000D+00 -2.0719443140699D-01  1.0580785348537D+00
122  1.2100000000000D+00 -2.0329142705088D-01  9.9077221040873D-01
123  1.2200000000000D+00 -1.9828845699395D-01  9.2251622200168D-01
124  1.2300000000000D+00 -1.9230458692809D-01  8.5381258855773D-01
125  1.2400000000000D+00 -1.8546157638521D-01  7.8516278083809D-01
126  1.2500000000000D+00 -1.7788250128822D-01  7.1706124113190D-01
127  1.2600000000000D+00 -1.6969036130151D-01  6.4998888232820D-01
128  1.2700000000000D+00 -1.6100668805698D-01  5.8440664585280D-01
129  1.2800000000000D+00 -1.5195017378059D-01  5.2074922497925D-01
130  1.2900000000000D+00 -1.4263532308504D-01  4.5941893109938D-01
131  1.3000000000000D+00 -1.3317120600373D-01  4.0078025980540D-01
132  1.3100000000000D+00 -1.2366013423181D-01  3.4515374575992D-01
133  1.3200000000000D+00 -1.1419657688828D-01  2.9281149874497D-01
134  1.3300000000000D+00 -1.0486673863679D-01  2.4397800447513D-01
135  1.3400000000000D+00 -9.5748357460343D-02  1.9883160330381D-01
136  1.3500000000000D+00 -8.6910730009170D-02  1.5750699050548D-01
137  1.3600000000000D+00 -7.8414252580996D-02  1.2009314407480D-01
138  1.3700000000000D+00 -7.0310196257556D-02  8.6632748867730D-02
139  1.3800000000000D+00 -6.2640631738480D-02  5.7122520861367D-02
140  1.3900000000000D+00 -5.5438471939201D-02  3.1514052922004D-02
141  1.4000000000000D+00 -4.8727644542066D-02  9.7153373946520D-03
142  1.4100000000000D+00 -4.2523390661717D-02 -8.4070706105493D-03
143  1.4200000000000D+00 -3.6832683169755D-02 -2.3025282331445D-02
144  1.4300000000000D+00 -3.1654755303090D-02 -3.4346748100109D-02
145  1.4400000000000D+00 -2.6981733308544D-02 -4.2610408159643D-02
146  1.4500000000000D+00 -2.2799357899725D-02 -4.8082402066974D-02
147  1.4600000000000D+00 -1.9087785573675D-02 -5.1051384994957D-02
148  1.4700000000000D+00 -1.5822453799915D-02 -5.1823535371013D-02
149  1.4800000000000D+00 -1.2974996349829D-02 -5.0717326530569D-02
150  1.4900000000000D+00 -1.0514193359333D-02 -4.8058143936388D-02
151  1.5000000000000D+00 -8.4069398793928D-03 -4.4172833151977D-02
152  1.5100000000000D+00 -6.6192169163130D-03 -3.9384263250405D-02
153  1.5200000000000D+00 -5.1170490325524D-03 -3.4005988884613D-02
154  1.5300000000000D+00 -3.8674322547762D-03 -2.8337096724457D-02
155  1.5400000000000D+00 -2.8392169673717D-03 -2.2657316372101D-02
156  1.5500000000000D+00 -2.0039322032085D-03 -1.7222467090894D-02
157  1.5600000000000D+00 -1.3369104370611D-03 -1.2264597610292D-02
158  1.5700000000000D+00 -8.1613332732115D-04 -7.9675906074562D-03
159  1.5800000000000D+00 -4.2430499148660D-04 -4.4744212632323D-03
160  1.5900000000000D+00 -1.5620153037430D-04 -1.9996651821207D-03
161  1.6000000000000D+00 -5.0921269146470D-06 -6.3139652778518D-04
162  1.6100000000000D+00  4.5681923531507D-05 -7.8926261518566D-05
163  1.6200000000000D+00  2.6766522193929D-05  3.3244381359710D-05
164  1.6300000000000D+00 -3.5131770769100D-06 -6.8128897565356D-06
165  1.6400000000000D+00 -6.8235479443627D-06 -1.6311414525799D-05
166  1.6500000000000D+00  7.6988770095244D-07  1.1190806472866D-06
167  1.6600000000000D+00  1.4383824417712D-06  2.3739703083585D-06
168  1.6700000000000D+00 -6.0333551418664D-08  1.6754382111943D-07
169  1.6800000000000D+00 -1.0979609227987D-07  3.0489928757717D-07
170  1.6900000000000D+00  0.0000000000000D+00  0.0000000000000D+00
171  1.7000000000000D+00  0.0000000000000D+00  0.0000000000000D+00
172  1.7100000000000D+00  0.0000000000000D+00  0.0000000000000D+00
173  1.7200000000000D+00  0.0000000000000D+00  0.0000000000000D+00
174  1.7300000000000D+00  0.0000000000000D+00  0.0000000000000D+00
175  1.7400000000000D+00  0.0000000000000D+00  0.0000000000000D+00
176  1.7500000000000D+00  0.0000000000000D+00  0.0000000000000D+00
177  1.7600000000000D+00  0.0000000000000D+00  0.0000000000000D+00
178  1.7700000000000D+00  0.0000000000000D+00  0.0000000000000D+00
179  1.7800000000000D+00  0.0000000000000D+00  0.0000000000000D+00
180  1.7900000000000D+00  0.0000000000000D+00  0.0000000000000D+00
181  1.8000000000000D+00  0.0000000000000D+00  0.0000000000000D+00
182  1.8100000000000D+00  0.0000000000000D+00  0.0000000000000D+00
183  1.8200000000000D+00  0.0000000000000D+00  0.0000000000000D+00
184  1.8300000000000D+00  0.0000000000000D+00  0.0000000000000D+00
185  1.8400000000000D+00  0.0000000000000D+00  0.0000000000000D+00
186  1.8500000000000D+00  0.0000000000000D+00  0.0000000000000D+00
187  1.8600000000000D+00  0.0000000000000D+00  0.0000000000000D+00
188  1.8700000000000D+00  0.0000000000000D+00  0.0000000000000D+00
189  1.8800000000000D+00  0.0000000000000D+00  0.0000000000000D+00
190  1.8900000000000D+00  0.0000000000000D+00  0.0000000000000D+00
191  1.9000000000000D+00  0.0000000000000D+00  0.0000000000000D+00
192  1.9100000000000D+00  0.0000000000000D+00  0.0000000000000D+00
193  1.9200000000000D+00  0.0000000000000D+00  0.0000000000000D+00
194  1.9300000000000D+00  0.0000000000000D+00  0.0000000000000D+00
195  1.9400000000000D+00  0.0000000000000D+00  0.0000000000000D+00
196  1.9500000000000D+00  0.0000000000000D+00  0.0000000000000D+00
197  1.9600000000000D+00  0.0000000000000D+00  0.0000000000000D+00
198  1.9700000000000D+00  0.0000000000000D+00  0.0000000000000D+00
199  1.9800000000000D+00  0.0000000000000D+00  0.0000000000000D+00
200  1.9900000000000D+00  0.0000000000000D+00  0.0000000000000D+00
201  2.0000000000000D+00  0.0000000000000D+00  0.0000000000000D+00
202  2.0100000000000D+00  0.0000000000000D+00  0.0000000000000D+00
203  2.0200000000000D+00  0.0000000000000D+00  0.0000000000000D+00
204  2.0300000000000D+00  0.0000000000000D+00  0.0000000000000D+00
205  2.0400000000000D+00  0.0000000000000D+00  0.0000000000000D+00
206  2.0500000000000D+00  0.0000000000000D+00  0.0000000000000D+00
207  2.0600000000000D+00  0.0000000000000D+00  0.0000000000000D+00
208  2.0700000000000D+00  0.0000000000000D+00  0.0000000000000D+00
209  2.0800000000000D+00  0.0000000000000D+00  0.0000000000000D+00
210  2.0900000000000D+00  0.0000000000000D+00  0.0000000000000D+00
211  2.1000000000000D+00  0.0000000000000D+00  0.0000000000000D+00
212  2.1100000000000D+00  0.0000000000000D+00  0.0000000000000D+00
213  2.1200000000000D+00  0.0000000000000D+00  0.0000000000000D+00
214  2.1300000000000D+00  0.0000000000000D+00  0.0000000000000D+00
215  2.1400000000000D+00  0.0000000000000D+00  0.0000000000000D+00
216  2.1500000000000D+00  0.0000000000000D+00  0.0000000000000D+00
217  2.1600000000000D+00  0.0000000000000D+00  0.0000000000000D+00
218  2.1700000000000D+00  0.0000000000000D+00  0.0000000000000D+00
219  2.1800000000000D+00  0.0000000000000D+00  0.0000000000000D+00
220  2.1900000000000D+00  0.0000000000000D+00  0.0000000000000D+00
221  2.2000000000000D+00  0.0000000000000D+00  0.0000000000000D+00
222  2.2100000000000D+00  0.0000000000000D+00  0.0000000000000D+00
223  2.2200000000000D+00  0.0000000000000D+00  0.0000000000000D+00
224  2.2300000000000D+00  0.0000000000000D+00  0.0000000000000D+00
225  2.2400000000000D+00  0.0000000000000D+00  0.0000000000000D+00
226  2.2500000000000D+00  0.0000000000000D+00  0.0000000000000D+00
227  2.2600000000000D+00  0.0000000000000D+00  0.0000000000000D+00
228  2.2700000000000D+00  0.0000000000000D+00  0.0000000000000D+00
229  2.2800000000000D+00  0.0000000000000D+00  0.0000000000000D+00
230  2.2900000000000D+00  0.0000000000000D+00  0.0000000000000D+00
231  2.3000000000000D+00  0.0000000000000D+00  0.0000000000000D+00
232  2.3100000000000D+00  0.0000000000000D+00  0.0000000000000D+00
233  2.3200000000000D+00  0.0000000000000D+00  0.0000000000000D+00
234  2.3300000000000D+00  0.0000000000000D+00  0.0000000000000D+00
235  2.3400000000000D+00  0.0000000000000D+00  0.0000000000000D+00
236  2.3500000000000D+00  0.0000000000000D+00  0.0000000000000D+00
237  2.3600000000000D+00  0.0000000000000D+00  0.0000000000000D+00
238  2.3700000000000D+00  0.0000000000000D+00  0.0000000000000D+00
239  2.3800000000000D+00  0.0000000000000D+00  0.0000000000000D+00
240  2.3900000000000D+00  0.0000000000000D+00  0.0000000000000D+00
241  2.4000000000000D+00  0.0000000000000D+00  0.0000000000000D+00
242  2.4100000000000D+00  0.0000000000000D+00  0.0000000000000D+00
243  2.4200000000000D+00  0.0000000000000D+00  0.0000000000000D+00
244  2.4300000000000D+00  0.0000000000000D+00  0.0000000000000D+00
245  2.4400000000000D+00  0.0000000000000D+00  0.0000000000000D+00
246  2.4500000000000D+00  0.0000000000000D+00  0.0000000000000D+00
247  2.4600000000000D+00  0.0000000000000D+00  0.0000000000000D+00
248  2.4700000000000D+00  0.0000000000000D+00  0.0000000000000D+00
249  2.4800000000000D+00  0.0000000000000D+00  0.0000000000000D+00
250  2.4900000000000D+00  0.0000000000000D+00  0.0000000000000D+00
251  2.5000000000000D+00  0.0000000000000D+00  0.0000000000000D+00
252  2.5100000000000D+00  0.0000000000000D+00  0.0000000000000D+00
253  2.5200000000000D+00  0.0000000000000D+00  0.0000000000000D+00
254  2.5300000000000D+00  0.0000000000000D+00  0.0000000000000D+00
255  2.5400000000000D+00  0.0000000000000D+00  0.0000000000000D+00
256  2.5500000000000D+00  0.0000000000000D+00  0.0000000000000D+00
257  2.5600000000000D+00  0.0000000000000D+00  0.0000000000000D+00
258  2.5700000000000D+00  0.0000000000000D+00  0.0000000000000D+00
259  2.5800000000000D+00  0.0000000000000D+00  0.0000000000000D+00
260  2.5900000000000D+00  0.0000000000000D+00  0.0000000000000D+00
261  2.6000000000000D+00  0.0000000000000D+00  0.0000000000000D+00
262  2.6100000000000D+00  0.0000000000000D+00  0.0000000000000D+00
263  2.6200000000000D+00  0.0000000000000D+00  0.0000000000000D+00
264  2.6300000000000D+00  0.0000000000000D+00  0.0000000000000D+00
265  2.6400000000000D+00  0.0000000000000D+00  0.0000000000000D+00
266  2.6500000000000D+00  0.0000000000000D+00  0.0000000000000D+00
267  2.6600000000000D+00  0.0000000000000D+00  0.0000000000000D+00
268  2.6700000000000D+00  0.0000000000000D+00  0.0000000000000D+00
269  2.6800000000000D+00  0.0000000000000D+00  0.0000000000000D+00
270  2.6900000000000D+00  0.0000000000000D+00  0.0000000000000D+00
271  2.7000000000000D+00  0.0000000000000D+00  0.0000000000000D+00
272  2.7100000000000D+00  0.0000000000000D+00  0.0000000000000D+00
273  2.7200000000000D+00  0.0000000000000D+00  0.0000000000000D+00
274  2.7300000000000D+00  0.0000000000000D+00  0.0000000000000D+00
275  2.7400000000000D+00  0.0000000000000D+00  0.0000000000000D+00
276  2.7500000000000D+00  0.0000000000000D+00  0.0000000000000D+00
277  2.7600000000000D+00  0.0000000000000D+00  0.0000000000000D+00
278  2.7700000000000D+00  0.0000000000000D+00  0.0000000000000D+00
279  2.7800000000000D+00  0.0000000000000D+00  0.0000000000000D+00
280  2.7900000000000D+00  0.0000000000000D+00  0.0000000000000D+00
281  2.8000000000000D+00  0.0000000000000D+00  0.0000000000000D+00
282  2.8100000000000D+00  0.0000000000000D+00  0.0000000000000D+00
283  2.8200000000000D+00  0.0000000000000D+00  0.0000000000000D+00
284  2.8300000000000D+00  0.0000000000000D+00  0.0000000000000D+00
285  2.8400000000000D+00  0.0000000000000D+00  0.0000000000000D+00
286  2.8500000000000D+00  0.0000000000000D+00  0.0000000000000D+00
287  2.8600000000000D+00  0.0000000000000D+00  0.0000000000000D+00
288  2.8700000000000D+00  0.0000000000000D+00  0.0000000000000D+00
289  2.8800000000000D+00  0.0000000000000D+00  0.0000000000000D+00
290  2.8900000000000D+00  0.0000000000000D+00  0.0000000000000D+00
291  2.9000000000000D+00  0.0000000000000D+00  0.0000000000000D+00
292  2.9100000000000D+00  0.0000000000000D+00  0.0000000000000D+00
293  2.9200000000000D+00  0.0000000000000D+00  0.0000000000000D+00
294  2.9300000000000D+00  0.0000000000000D+00  0.0000000000000D+00
295  2.9400000000000D+00  0.0000000000000D+00  0.0000000000000D+00
296  2.9500000000000D+00  0.0000000000000D+00  0.0000000000000D+00
297  2.9600000000000D+00  0.0000000000000D+00  0.0000000000000D+00
298  2.9700000000000D+00  0.0000000000000D+00  0.0000000000000D+00
299  2.9800000000000D+00  0.0000000000000D+00  0.0000000000000D+00
300  2.9900000000000D+00  0.0000000000000D+00  0.0000000000000D+00
301  3.0000000000000D+00  0.0000000000000D+00  0.0000000000000D+00
302  3.0100000000000D+00  0.0000000000000D+00  0.0000000000000D+00
303  3.0200000000000D+00  0.0000000000000D+00  0.0000000000000D+00
304  3.0300000000000D+00  0.0000000000000D+00  0.0000000000000D+00
305  3.0400000000000D+00  0.0000000000000D+00  0.0000000000000D+00
306  3.0500000000000D+00  0.0000000000000D+00  0.0000000000000D+00
307  3.0600000000000D+00  0.0000000000000D+00  0.0000000000000D+00
308  3.0700000000000D+00  0.0000000000000D+00  0.0000000000000D+00
309  3.0800000000000D+00  0.0000000000000D+00  0.0000000000000D+00
310  3.0900000000000D+00  0.0000000000000D+00  0.0000000000000D+00
311  3.1000000000000D+00  0.0000000000000D+00  0.0000000000000D+00
312  3.1100000000000D+00  0.0000000000000D+00  0.0000000000000D+00
313  3.1200000000000D+00  0.0000000000000D+00  0.0000000000000D+00
314  3.1300000000000D+00  0.0000000000000D+00  0.0000000000000D+00
315  3.1400000000000D+00  0.0000000000000D+00  0.0000000000000D+00
316  3.1500000000000D+00  0.0000000000000D+00  0.0000000000000D+00
317  3.1600000000000D+00  0.0000000000000D+00  0.0000000000000D+00
318  3.1700000000000D+00  0.0000000000000D+00  0.0000000000000D+00
319  3.1800000000000D+00  0.0000000000000D+00  0.0000000000000D+00
320  3.1900000000000D+00  0.0000000000000D+00  0.0000000000000D+00
321  3.2000000000000D+00  0.0000000000000D+00  0.0000000000000D+00
322  3.2100000000000D+00  0.0000000000000D+00  0.0000000000000D+00
323  3.2200000000000D+00  0.0000000000000D+00  0.0000000000000D+00
324  3.2300000000000D+00  0.0000000000000D+00  0.0000000000000D+00
325  3.2400000000000D+00  0.0000000000000D+00  0.0000000000000D+00
326  3.2500000000000D+00  0.0000000000000D+00  0.0000000000000D+00
327  3.2600000000000D+00  0.0000000000000D+00  0.0000000000000D+00
328  3.2700000000000D+00  0.0000000000000D+00  0.0000000000000D+00
329  3.2800000000000D+00  0.0000000000000D+00  0.0000000000000D+00
330  3.2900000000000D+00  0.0000000000000D+00  0.0000000000000D+00
331  3.3000000000000D+00  0.0000000000000D+00  0.0000000000000D+00
332  3.3100000000000D+00  0.0000000000000D+00  0.0000000000000D+00
333  3.3200000000000D+00  0.0000000000000D+00  0.0000000000000D+00
334  3.3300000000000D+00  0.0000000000000D+00  0.0000000000000D+00
335  3.3400000000000D+00  0.0000000000000D+00  0.0000000000000D+00
336  3.3500000000000D+00  0.0000000000000D+00  0.0000000000000D+00
337  3.3600000000000D+00  0.0000000000000D+00  0.0000000000000D+00
338  3.3700000000000D+00  0.0000000000000D+00  0.0000000000000D+00
339  3.3800000000000D+00  0.0000000000000D+00  0.0000000000000D+00
340  3.3900000000000D+00  0.0000000000000D+00  0.0000000000000D+00
341  3.4000000000000D+00  0.0000000000000D+00  0.0000000000000D+00
342  3.4100000000000D+00  0.0000000000000D+00  0.0000000000000D+00
343  3.4200000000000D+00  0.0000000000000D+00  0.0000000000000D+00
344  3.4300000000000D+00  0.0000000000000D+00  0.0000000000000D+00
345  3.4400000000000D+00  0.0000000000000D+00  0.0000000000000D+00
346  3.4500000000000D+00  0.0000000000000D+00  0.0000000000000D+00
347  3.4600000000000D+00  0.0000000000000D+00  0.0000000000000D+00
348  3.4700000000000D+00  0.0000000000000D+00  0.0000000000000D+00
349  3.4800000000000D+00  0.0000000000000D+00  0.0000000000000D+00
350  3.4900000000000D+00  0.0000000000000D+00  0.0000000000000D+00
351  3.5000000000000D+00  0.0000000000000D+00  0.0000000000000D+00
352  3.5100000000000D+00  0.0000000000000D+00  0.0000000000000D+00
353  3.5200000000000D+00  0.0000000000000D+00  0.0000000000000D+00
354  3.5300000000000D+00  0.0000000000000D+00  0.0000000000000D+00
355  3.5400000000000D+00  0.0000000000000D+00  0.0000000000000D+00
356  3.5500000000000D+00  0.0000000000000D+00  0.0000000000000D+00
357  3.5600000000000D+00  0.0000000000000D+00  0.0000000000000D+00
358  3.5700000000000D+00  0.0000000000000D+00  0.0000000000000D+00
359  3.5800000000000D+00  0.0000000000000D+00  0.0000000000000D+00
360  3.5900000000000D+00  0.0000000000000D+00  0.0000000000000D+00
361  3.6000000000000D+00  0.0000000000000D+00  0.0000000000000D+00
362  3.6100000000000D+00  0.0000000000000D+00  0.0000000000000D+00
363  3.6200000000000D+00  0.0000000000000D+00  0.0000000000000D+00
364  3.6300000000000D+00  0.0000000000000D+00  0.0000000000000D+00
365  3.6400000000000D+00  0.0000000000000D+00  0.0000000000000D+00
366  3.6500000000000D+00  0.0000000000000D+00  0.0000000000000D+00
367  3.6600000000000D+00  0.0000000000000D+00  0.0000000000000D+00
368  3.6700000000000D+00  0.0000000000000D+00  0.0000000000000D+00
369  3.6800000000000D+00  0.0000000000000D+00  0.0000000000000D+00
370  3.6900000000000D+00  0.0000000000000D+00  0.0000000000000D+00
371  3.7000000000000D+00  0.0000000000000D+00  0.0000000000000D+00
372  3.7100000000000D+00  0.0000000000000D+00  0.0000000000000D+00
373  3.7200000000000D+00  0.0000000000000D+00  0.0000000000000D+00
374  3.7300000000000D+00  0.0000000000000D+00  0.0000000000000D+00
375  3.7400000000000D+00  0.0000000000000D+00  0.0000000000000D+00
376  3.7500000000000D+00  0.0000000000000D+00  0.0000000000000D+00
377  3.7600000000000D+00  0.0000000000000D+00  0.0000000000000D+00
378  3.7700000000000D+00  0.0000000000000D+00  0.0000000000000D+00
379  3.7800000000000D+00  0.0000000000000D+00  0.0000000000000D+00
380  3.7900000000000D+00  0.0000000000000D+00  0.0000000000000D+00
381  3.8000000000000D+00  0.0000000000000D+00  0.0000000000000D+00
382  3.8100000000000D+00  0.0000000000000D+00  0.0000000000000D+00
383  3.8200000000000D+00  0.0000000000000D+00  0.0000000000000D+00
384  3.8300000000000D+00  0.0000000000000D+00  0.0000000000000D+00
385  3.8400000000000D+00  0.0000000000000D+00  0.0000000000000D+00
386  3.8500000000000D+00  0.0000000000000D+00  0.0000000000000D+00
387  3.8600000000000D+00  0.0000000000000D+00  0.0000000000000D+00
388  3.8700000000000D+00  0.0000000000000D+00  0.0000000000000D+00
389  3.8800000000000D+00  0.0000000000000D+00  0.0000000000000D+00
390  3.8900000000000D+00  0.0000000000000D+00  0.0000000000000D+00
391  3.9000000000000D+00  0.0000000000000D+00  0.0000000000000D+00
392  3.9100000000000D+00  0.0000000000000D+00  0.0000000000000D+00
393  3.9200000000000D+00  0.0000000000000D+00  0.0000000000000D+00
394  3.9300000000000D+00  0.0000000000000D+00  0.0000000000000D+00
395  3.9400000000000D+00  0.0000000000000D+00  0.0000000000000D+00
396  3.9500000000000D+00  0.0000000000000D+00  0.0000000000000D+00
397  3.9600000000000D+00  0.0000000000000D+00  0.0000000000000D+00
398  3.9700000000000D+00  0.0000000000000D+00  0.0000000000000D+00
399  3.9800000000000D+00  0.0000000000000D+00  0.0000000000000D+00
400  3.9900000000000D+00  0.0000000000000D+00  0.0000000000000D+00
401  4.0000000000000D+00  0.0000000000000D+00  0.0000000000000D+00
402  4.0100000000000D+00  0.0000000000000D+00  0.0000000000000D+00
403  4.0200000000000D+00  0.0000000000000D+00  0.0000000000000D+00
404  4.0300000000000D+00  0.0000000000000D+00  0.0000000000000D+00
405  4.0400000000000D+00  0.0000000000000D+00  0.0000000000000D+00
406  4.0500000000000D+00  0.0000000000000D+00  0.0000000000000D+00
407  4.0600000000000D+00  0.0000000000000D+00  0.0000000000000D+00
408  4.0700000000000D+00  0.0000000000000D+00  0.0000000000000D+00
409  4.0800000000000D+00  0.0000000000000D+00  0.0000000000000D+00
410  4.0900000000000D+00  0.0000000000000D+00  0.0000000000000D+00
411  4.1000000000000D+00  0.0000000000000D+00  0.0000000000000D+00
412  4.1100000000000D+00  0.0000000000000D+00  0.0000000000000D+00
413  4.1200000000000D+00  0.0000000000000D+00  0.0000000000000D+00
414  4.1300000000000D+00  0.0000000000000D+00  0.0000000000000D+00
415  4.1400000000000D+00  0.0000000000000D+00  0.0000000000000D+00
416  4.1500000000000D+00  0.0000000000000D+00  0.0000000000000D+00
417  4.1600000000000D+00  0.0000000000000D+00  0.0000000000000D+00
418  4.1700000000000D+00  0.0000000000000D+00  0.0000000000000D+00
419  4.1800000000000D+00  0.0000000000000D+00  0.0000000000000D+00
420  4.1900000000000D+00  0.0000000000000D+00  0.0000000000000D+00
421  4.2000000000000D+00  0.0000000000000D+00  0.0000000000000D+00
422  4.2100000000000D+00  0.0000000000000D+00  0.0000000000000D+00
423  4.2200000000000D+00  0.0000000000000D+00  0.0000000000000D+00
424  4.2300000000000D+00  0.0000000000000D+00  0.0000000000000D+00
425  4.2400000000000D+00  0.0000000000000D+00  0.0000000000000D+00
426  4.2500000000000D+00  0.0000000000000D+00  0.0000000000000D+00
427  4.2600000000000D+00  0.0000000000000D+00  0.0000000000000D+00
428  4.2700000000000D+00  0.0000000000000D+00  0.0000000000000D+00
429  4.2800000000000D+00  0.0000000000000D+00  0.0000000000000D+00
430  4.2900000000000D+00  0.0000000000000D+00  0.0000000000000D+00
431  4.3000000000000D+00  0.0000000000000D+00  0.0000000000000D+00
432  4.3100000000000D+00  0.0000000000000D+00  0.0000000000000D+00
433  4.3200000000000D+00  0.0000000000000D+00  0.0000000000000D+00
434  4.3300000000000D+00  0.0000000000000D+00  0.0000000000000D+00
435  4.3400000000000D+00  0.0000000000000D+00  0.0000000000000D+00
436  4.3500000000000D+00  0.0000000000000D+00  0.0000000000000D+00
437  4.3600000000000D+00  0.0000000000000D+00  0.0000000000000D+00
438  4.3700000000000D+00  0.0000000000000D+00  0.0000000000000D+00
439  4.3800000000000D+00  0.0000000000000D+00  0.0000000000000D+00
440  4.3900000000000D+00  0.0000000000000D+00  0.0000000000000D+00
441  4.4000000000000D+00  0.0000000000000D+00  0.0000000000000D+00
442  4.4100000000000D+00  0.0000000000000D+00  0.0000000000000D+00
443  4.4200000000000D+00  0.0000000000000D+00  0.0000000000000D+00
444  4.4300000000000D+00  0.0000000000000D+00  0.0000000000000D+00