Ho    ONCVPSP-3.3.0  r_core=   1.80073   1.50571   1.65647   1.71682
67.0000     21.0000      180112    zatom,zion,pspd
8 -116133   3     4   600     0    pspcod,pspxc,lmax,lloc,mmax,r2well
5.99000000  0.25000000  0.00000000    rchrg fchrg qchrg
2     2     2     2     0    nproj
1     1           extension_switch
0                         8.8994037014328D+00  6.3644680950036D-01
1  0.0000000000000D+00 -6.2493898944638D-11  3.8712047456535D-10
2  1.0000000000000D-02  5.1561954902376D-02 -2.5554609809395D-02
3  2.0000000000000D-02  1.0304888882972D-01 -5.0949907765538D-02
4  3.0000000000000D-02  1.5438600322674D-01 -7.6027776906283D-02
5  4.0000000000000D-02  2.0549894275565D-01 -1.0063247924939D-01
6  5.0000000000000D-02  2.5631401286565D-01 -1.2461181837563D-01
7  6.0000000000000D-02  3.0675839256025D-01 -1.4781826999957D-01
8  7.0000000000000D-02  3.5676034083522D-01 -1.7011007031483D-01
9  8.0000000000000D-02  4.0624939532300D-01 -1.9135225228748D-01
10  9.0000000000000D-02  4.5515656175613D-01 -2.1141762054888D-01
11  1.0000000000000D-01  5.0341449295308D-01 -2.3018765610327D-01
12  1.1000000000000D-01  5.5095765613361D-01 -2.4755334271074D-01
13  1.2000000000000D-01  5.9772248748650D-01 -2.6341590752787D-01
14  1.3000000000000D-01  6.4364753303899D-01 -2.7768746937933D-01
15  1.4000000000000D-01  6.8867357501355D-01 -2.9029158888777D-01
16  1.5000000000000D-01  7.3274374300205D-01 -3.0116371559850D-01
17  1.6000000000000D-01  7.7580360943905D-01 -3.1025152819246D-01
18  1.7000000000000D-01  8.1780126901281D-01 -3.1751516487609D-01
19  1.8000000000000D-01  8.5868740181355D-01 -3.2292734206276D-01
20  1.9000000000000D-01  8.9841532018201D-01 -3.2647336050673D-01
21  2.0000000000000D-01  9.3694099938504D-01 -3.2815099910871D-01
22  2.1000000000000D-01  9.7422309240835D-01 -3.2797029767177D-01
23  2.2000000000000D-01  1.0102229293168D+00 -3.2595323093875D-01
24  2.3000000000000D-01  1.0449045017893D+00 -3.2213327727634D-01
25  2.4000000000000D-01  1.0782344335849D+00 -3.1655488637863D-01
26  2.5000000000000D-01  1.1101819378409D+00 -3.0927285133332D-01
27  2.6000000000000D-01  1.1407187622361D+00 -3.0035159131814D-01
28  2.7000000000000D-01  1.1698191231770D+00 -2.8986435206527D-01
29  2.8000000000000D-01  1.1974596302744D+00 -2.7789233203667D-01
30  2.9000000000000D-01  1.2236192024790D+00 -2.6452374298875D-01
31  3.0000000000000D-01  1.2482789773236D+00 -2.4985281425906D-01
32  3.1000000000000D-01  1.2714222147936D+00 -2.3397875067829D-01
33  3.2000000000000D-01  1.2930341973925D+00 -2.1700465448646D-01
34  3.3000000000000D-01  1.3131021280095D+00 -1.9903642201302D-01
35  3.4000000000000D-01  1.3316150272092D+00 -1.8018162615706D-01
36  3.5000000000000D-01  1.3485636315628D+00 -1.6054839587520D-01
37  3.6000000000000D-01  1.3639402946194D+00 -1.4024430394808D-01
38  3.7000000000000D-01  1.3777388920772D+00 -1.1937527424780D-01
39  3.8000000000000D-01  1.3899547326564D+00 -9.8044519571222D-02
40  3.9000000000000D-01  1.4005844761000D+00 -7.6351520833061D-02
41  4.0000000000000D-01  1.4096260596327D+00 -5.4391058035305D-02
42  4.1000000000000D-01  1.4170786341003D+00 -3.2252302943329D-02
43  4.2000000000000D-01  1.4229425108815D+00 -1.0017982809733D-02
44  4.3000000000000D-01  1.4272191205236D+00  1.2236376199534D-02
45  4.4000000000000D-01  1.4299109838960D+00  3.4443118003504D-02
46  4.5000000000000D-01  1.4310216964860D+00  5.6543031021420D-02
47  4.6000000000000D-01  1.4305559262841D+00  7.8485821943109D-02
48  4.7000000000000D-01  1.4285194255140D+00  1.0023048380670D-01
49  4.8000000000000D-01  1.4249190562689D+00  1.2174555441172D-01
50  4.9000000000000D-01  1.4197628299147D+00  1.4300926221998D-01
51  5.0000000000000D-01  1.4130599599147D+00  1.6400955806152D-01
52  5.1000000000000D-01  1.4048209275295D+00  1.8474403215435D-01
53  5.2000000000000D-01  1.3950575596404D+00  2.0521971715277D-01
54  5.3000000000000D-01  1.3837831177471D+00  2.2545277915044D-01
55  5.4000000000000D-01  1.3710123969995D+00  2.4546809976267D-01
56  5.5000000000000D-01  1.3567618339392D+00  2.6529875359024D-01
57  5.6000000000000D-01  1.3410496214549D+00  2.8498538650860D-01
58  5.7000000000000D-01  1.3238958293001D+00  3.0457550131706D-01
59  5.8000000000000D-01  1.3053225283762D+00  3.2412265831788D-01
60  5.9000000000000D-01  1.2853539168640D+00  3.4368559934856D-01
61  6.0000000000000D-01  1.2640164461809D+00  3.6332730466974D-01
62  6.1000000000000D-01  1.2413389446596D+00  3.8311399288377D-01
63  6.2000000000000D-01  1.2173527367867D+00  4.0311407473615D-01
64  6.3000000000000D-01  1.1920917558071D+00  4.2339707220606D-01
65  6.4000000000000D-01  1.1655926474909D+00  4.4403251472959D-01
66  6.5000000000000D-01  1.1378948628827D+00  4.6508882470374D-01
67  6.6000000000000D-01  1.1090407378996D+00  4.8663220459108D-01
68  6.7000000000000D-01  1.0790755577196D+00  5.0872553797697D-01
69  6.8000000000000D-01  1.0480476040080D+00  5.3142731682275D-01
70  6.9000000000000D-01  1.0160081831588D+00  5.5479060690812D-01
71  7.0000000000000D-01  9.8301163388941D-01  5.7886206306524D-01
72  7.1000000000000D-01  9.4911531270741D-01  6.0368100527642D-01
73  7.2000000000000D-01  9.1437955598239D-01  6.2927856604567D-01
74  7.3000000000000D-01  8.7886761758315D-01  6.5567691866028D-01
75  7.4000000000000D-01  8.4264558129474D-01  6.8288859505253D-01
76  7.5000000000000D-01  8.0578224750093D-01  7.1091590094421D-01
77  7.6000000000000D-01  7.6834899390283D-01  7.3975043483867D-01
78  7.7000000000000D-01  7.3041961034320D-01  7.6937271621669D-01
79  7.8000000000000D-01  6.9207010811367D-01  7.9975192701075D-01
80  7.9000000000000D-01  6.5337850443505D-01  8.3084576909515D-01
81  8.0000000000000D-01  6.1442458311560D-01  8.6260043914943D-01
82  8.1000000000000D-01  5.7528963270510D-01  8.9495072085089D-01
83  8.2000000000000D-01  5.3605616376839D-01  9.2782019294349D-01
84  8.3000000000000D-01  4.9680760719816D-01  9.6112155033851D-01
85  8.4000000000000D-01  4.5762799576764D-01  9.9475703403999D-01
86  8.5000000000000D-01  4.1860163138632D-01  1.0286189643804D+00
87  8.6000000000000D-01  3.7981274076065D-01  1.0625903708165D+00
88  8.7000000000000D-01  3.4134512237402D-01  1.0965457103882D+00
89  8.8000000000000D-01  3.0328178788126D-01  1.1303516659080D+00
90  8.9000000000000D-01  2.6570460115983D-01  1.1638680140361D+00
91  9.0000000000000D-01  2.2869391836843D-01  1.1969485526300D+00
92  9.1000000000000D-01  1.9232823243212D-01  1.2294420761440D+00
93  9.2000000000000D-01  1.5668382539741D-01  1.2611933874142D+00
94  9.3000000000000D-01  1.2183443208024D-01  1.2920443339036D+00
95  9.4000000000000D-01  8.7850918361492D-02  1.3218348564104D+00
96  9.5000000000000D-01  5.4800977368974D-02  1.3504040383713D+00
97  9.6000000000000D-01  2.2748846619527D-02  1.3775911442135D+00
98  9.7000000000000D-01 -8.2449510179658D-03  1.4032366357380D+00
99  9.8000000000000D-01 -3.8123839939217D-02  1.4271831562417D+00
100  9.9000000000000D-01 -6.6835395707075D-02  1.4492764730014D+00
101  1.0000000000000D+00 -9.4331518307611D-02  1.4693663698778D+00
102  1.0100000000000D+00 -1.2056857319585D-01  1.4873074830024D+00
103  1.0200000000000D+00 -1.4550749902774D-01  1.5029600740431D+00
104  1.0300000000000D+00 -1.6911388141761D-01  1.5161907370610D+00
105  1.0400000000000D+00 -1.9135799255943D-01  1.5268730366930D+00
106  1.0500000000000D+00 -2.1221479706251D-01  1.5348880771862D+00
107  1.0600000000000D+00 -2.3166392490033D-01  1.5401250037350D+00
108  1.0700000000000D+00 -2.4968961285887D-01  1.5424814392923D+00
109  1.0800000000000D+00 -2.6628061648523D-01  1.5418638621944D+00
110  1.0900000000000D+00 -2.8143009501711D-01  1.5381879316184D+00
111  1.1000000000000D+00 -2.9513547232472D-01  1.5313787698153D+00
112  1.1100000000000D+00 -3.0739827737427D-01  1.5213712116899D+00
113  1.1200000000000D+00 -3.1822396817544D-01  1.5081100338370D+00
114  1.1300000000000D+00 -3.2762174363849D-01  1.4915501766402D+00
115  1.1400000000000D+00 -3.3560434809126D-01  1.4716569740263D+00
116  1.1500000000000D+00 -3.4218787351344D-01  1.4484064062912D+00
117  1.1600000000000D+00 -3.4739156477217D-01  1.4217853920035D+00
118  1.1700000000000D+00 -3.5123763331972D-01  1.3917921351391D+00
119  1.1800000000000D+00 -3.5375108480060D-01  1.3584365431008D+00
120  1.1900000000000D+00 -3.5495956597730D-01  1.3217407306326D+00
121  1.2000000000000D+00 -3.5489323626421D-01  1.2817396235636D+00
122  1.2100000000000D+00 -3.5358466878669D-01  1.2384816741061D+00
123  1.2200000000000D+00 -3.5106878529739D-01  1.1920296962853D+00
124  1.2300000000000D+00 -3.4738282914916D-01  1.1424618292203D+00
125  1.2400000000000D+00 -3.4256637928465D-01  1.0898726295700D+00
126  1.2500000000000D+00 -3.3666140719489D-01  1.0343742895653D+00
127  1.2600000000000D+00 -3.2971237851817D-01  9.7609797553489D-01
128  1.2700000000000D+00 -3.2176639881988D-01  9.1519527139531D-01
129  1.2800000000000D+00 -3.1287340132130D-01  8.5183970317261D-01
130  1.2900000000000D+00 -3.0308637419000D-01  7.8622831978420D-01
131  1.3000000000000D+00 -2.9246162164362D-01  7.1858328925598D-01
132  1.3100000000000D+00 -2.8105905019867D-01  6.4915345585912D-01
133  1.3200000000000D+00 -2.6894247238122D-01  5.7821580820306D-01
134  1.3300000000000D+00 -2.5617991381040D-01  5.0607677815254D-01
135  1.3400000000000D+00 -2.4284390682849D-01  4.3307327769483D-01
136  1.3500000000000D+00 -2.2901175581802D-01  3.5957339000683D-01
137  1.3600000000000D+00 -2.1476574757174D-01  2.8597657587324D-01
138  1.3700000000000D+00 -2.0019328206191D-01  2.1271326589305D-01
139  1.3800000000000D+00 -1.8538689615715D-01  1.4024369581080D-01
140  1.3900000000000D+00 -1.7044413844320D-01  6.9055775002527D-02
141  1.4000000000000D+00 -1.5546726353348D-01 -3.3817400986334D-04
142  1.4100000000000D+00 -1.4056269577127D-01 -6.7406053567616D-02
143  1.4200000000000D+00 -1.2584020936517D-01 -1.3160226851645D-01
144  1.4300000000000D+00 -1.1141177873613D-01 -1.9237587380047D-01
145  1.4400000000000D+00 -9.7390018863848D-02 -2.4918098195033D-01
146  1.4500000000000D+00 -8.3886163031116D-02 -3.0148969072849D-01
147  1.4600000000000D+00 -7.1007454264534D-02 -3.4880817445801D-01
148  1.4700000000000D+00 -5.8854096617516D-02 -3.9069492314593D-01
149  1.4800000000000D+00 -4.7514719442233D-02 -4.2678744127671D-01
150  1.4900000000000D+00 -3.7063634197563D-02 -4.5681729219195D-01
151  1.5000000000000D+00 -2.7551433080526D-02 -4.8066466528146D-01
152  1.5100000000000D+00 -1.8999239238698D-02 -4.9839019541826D-01
153  1.5200000000000D+00 -1.1403809265820D-02 -5.1019679559153D-01
154  1.5300000000000D+00 -4.7427051631853D-03 -5.1639369279459D-01
155  1.5400000000000D+00  1.0135730115333D-03 -5.1732036362783D-01
156  1.5500000000000D+00  5.8985290436535D-03 -5.1332722531026D-01
157  1.5600000000000D+00  9.9522535687980D-03 -5.0479290184170D-01
158  1.5700000000000D+00  1.3219839327489D-02 -4.9211473866246D-01
159  1.5800000000000D+00  1.5750974351067D-02 -4.7570689455374D-01
160  1.5900000000000D+00  1.7599234626329D-02 -4.5599663189170D-01
161  1.6000000000000D+00  1.8821461270469D-02 -4.3342117377049D-01
162  1.6100000000000D+00  1.9477099724240D-02 -4.0842436034619D-01
163  1.6200000000000D+00  1.9627522072727D-02 -3.8145322786526D-01
164  1.6300000000000D+00  1.9335340508953D-02 -3.5295455421783D-01
165  1.6400000000000D+00  1.8663717966002D-02 -3.2337139983167D-01
166  1.6500000000000D+00  1.7675681610067D-02 -2.9313967166914D-01
167  1.6600000000000D+00  1.6433444733477D-02 -2.6268473702667D-01
168  1.6700000000000D+00  1.4997742656328D-02 -2.3241811407145D-01
169  1.6800000000000D+00  1.3427188234365D-02 -2.0273426666161D-01
170  1.6900000000000D+00  1.1777652850064D-02 -1.7400753190640D-01
171  1.7000000000000D+00  1.0101677206668D-02 -1.4658920129601D-01
172  1.7100000000000D+00  8.4479178381863D-03 -1.2080478409850D-01
173  1.7200000000000D+00  6.8606327425207D-03 -9.6951469602219D-02
174  1.7300000000000D+00  5.3792121315314D-03 -7.5295817262406D-02
175  1.7400000000000D+00  4.0381543238986D-03 -5.6077087552294D-02
176  1.7500000000000D+00  2.8658230083842D-03 -3.9493583202906D-02
177  1.7600000000000D+00  1.8807733457887D-03 -2.5657557541619D-02
178  1.7700000000000D+00  1.0993920312643D-03 -1.4699674240573D-02
179  1.7800000000000D+00  5.5125297559327D-04 -6.9518162003568D-03
180  1.7900000000000D+00  2.4128783945398D-04 -2.4663702892851D-03
181  1.8000000000000D+00  9.5587764869977D-05 -4.3616342996866D-04
182  1.8100000000000D+00  2.8495113897596D-05  1.3540758093901D-04
183  1.8200000000000D+00  2.7650778761062D-06  4.6337919045984D-05
184  1.8300000000000D+00 -2.0713524019049D-06 -6.6155414184171D-05
185  1.8400000000000D+00 -6.2412666403456D-07 -3.6998144266928D-05
186  1.8500000000000D+00  6.4180545113394D-07  8.6263509307061D-06
187  1.8600000000000D+00  5.1446546094935D-07  8.5465978549324D-06
188  1.8700000000000D+00 -1.3975840691722D-07  5.6195181967219D-07
189  1.8800000000000D+00 -2.3125154730976D-07  9.2983478188687D-07
190  1.8900000000000D+00  0.0000000000000D+00  0.0000000000000D+00
191  1.9000000000000D+00  0.0000000000000D+00  0.0000000000000D+00
192  1.9100000000000D+00  0.0000000000000D+00  0.0000000000000D+00
193  1.9200000000000D+00  0.0000000000000D+00  0.0000000000000D+00
194  1.9300000000000D+00  0.0000000000000D+00  0.0000000000000D+00
195  1.9400000000000D+00  0.0000000000000D+00  0.0000000000000D+00
196  1.9500000000000D+00  0.0000000000000D+00  0.0000000000000D+00
197  1.9600000000000D+00  0.0000000000000D+00  0.0000000000000D+00
198  1.9700000000000D+00  0.0000000000000D+00  0.0000000000000D+00
199  1.9800000000000D+00  0.0000000000000D+00  0.0000000000000D+00
200  1.9900000000000D+00  0.0000000000000D+00  0.0000000000000D+00
201  2.0000000000000D+00  0.0000000000000D+00  0.0000000000000D+00
202  2.0100000000000D+00  0.0000000000000D+00  0.0000000000000D+00
203  2.0200000000000D+00  0.0000000000000D+00  0.0000000000000D+00
204  2.0300000000000D+00  0.0000000000000D+00  0.0000000000000D+00
205  2.0400000000000D+00  0.0000000000000D+00  0.0000000000000D+00
206  2.0500000000000D+00  0.0000000000000D+00  0.0000000000000D+00
207  2.0600000000000D+00  0.0000000000000D+00  0.0000000000000D+00
208  2.0700000000000D+00  0.0000000000000D+00  0.0000000000000D+00
209  2.0800000000000D+00  0.0000000000000D+00  0.0000000000000D+00
210  2.0900000000000D+00  0.0000000000000D+00  0.0000000000000D+00
211  2.1000000000000D+00  0.0000000000000D+00  0.0000000000000D+00
212  2.1100000000000D+00  0.0000000000000D+00  0.0000000000000D+00
213  2.1200000000000D+00  0.0000000000000D+00  0.0000000000000D+00
214  2.1300000000000D+00  0.0000000000000D+00  0.0000000000000D+00
215  2.1400000000000D+00  0.0000000000000D+00  0.0000000000000D+00
216  2.1500000000000D+00  0.0000000000000D+00  0.0000000000000D+00
217  2.1600000000000D+00  0.0000000000000D+00  0.0000000000000D+00
218  2.1700000000000D+00  0.0000000000000D+00  0.0000000000000D+00
219  2.1800000000000D+00  0.0000000000000D+00  0.0000000000000D+00
220  2.1900000000000D+00  0.0000000000000D+00  0.0000000000000D+00
221  2.2000000000000D+00  0.0000000000000D+00  0.0000000000000D+00
222  2.2100000000000D+00  0.0000000000000D+00  0.0000000000000D+00
223  2.2200000000000D+00  0.0000000000000D+00  0.0000000000000D+00
224  2.2300000000000D+00  0.0000000000000D+00  0.0000000000000D+00
225  2.2400000000000D+00  0.0000000000000D+00  0.0000000000000D+00
226  2.2500000000000D+00  0.0000000000000D+00  0.0000000000000D+00
227  2.2600000000000D+00  0.0000000000000D+00  0.0000000000000D+00
228  2.2700000000000D+00  0.0000000000000D+00  0.0000000000000D+00
229  2.2800000000000D+00  0.0000000000000D+00  0.0000000000000D+00
230  2.2900000000000D+00  0.0000000000000D+00  0.0000000000000D+00
231  2.3000000000000D+00  0.0000000000000D+00  0.0000000000000D+00
232  2.3100000000000D+00  0.0000000000000D+00  0.0000000000000D+00
233  2.3200000000000D+00  0.0000000000000D+00  0.0000000000000D+00
234  2.3300000000000D+00  0.0000000000000D+00  0.0000000000000D+00
235  2.3400000000000D+00  0.0000000000000D+00  0.0000000000000D+00
236  2.3500000000000D+00  0.0000000000000D+00  0.0000000000000D+00
237  2.3600000000000D+00  0.0000000000000D+00  0.0000000000000D+00
238  2.3700000000000D+00  0.0000000000000D+00  0.0000000000000D+00
239  2.3800000000000D+00  0.0000000000000D+00  0.0000000000000D+00
240  2.3900000000000D+00  0.0000000000000D+00  0.0000000000000D+00
241  2.4000000000000D+00  0.0000000000000D+00  0.0000000000000D+00
242  2.4100000000000D+00  0.0000000000000D+00  0.0000000000000D+00
243  2.4200000000000D+00  0.0000000000000D+00  0.0000000000000D+00
244  2.4300000000000D+00  0.0000000000000D+00  0.0000000000000D+00
245  2.4400000000000D+00  0.0000000000000D+00  0.0000000000000D+00
246  2.4500000000000D+00  0.0000000000000D+00  0.0000000000000D+00
247  2.4600000000000D+00  0.0000000000000D+00  0.0000000000000D+00
248  2.4700000000000D+00  0.0000000000000D+00  0.0000000000000D+00
249  2.4800000000000D+00  0.0000000000000D+00  0.0000000000000D+00
250  2.4900000000000D+00  0.0000000000000D+00  0.0000000000000D+00
251  2.5000000000000D+00  0.0000000000000D+00  0.0000000000000D+00
252  2.5100000000000D+00  0.0000000000000D+00  0.0000000000000D+00
253  2.5200000000000D+00  0.0000000000000D+00  0.0000000000000D+00
254  2.5300000000000D+00  0.0000000000000D+00  0.0000000000000D+00
255  2.5400000000000D+00  0.0000000000000D+00  0.0000000000000D+00
256  2.5500000000000D+00  0.0000000000000D+00  0.0000000000000D+00
257  2.5600000000000D+00  0.0000000000000D+00  0.0000000000000D+00
258  2.5700000000000D+00  0.0000000000000D+00  0.0000000000000D+00
259  2.5800000000000D+00  0.0000000000000D+00  0.0000000000000D+00
260  2.5900000000000D+00  0.0000000000000D+00  0.0000000000000D+00
261  2.6000000000000D+00  0.0000000000000D+00  0.0000000000000D+00
262  2.6100000000000D+00  0.0000000000000D+00  0.0000000000000D+00
263  2.6200000000000D+00  0.0000000000000D+00  0.0000000000000D+00
264  2.6300000000000D+00  0.0000000000000D+00  0.0000000000000D+00
265  2.6400000000000D+00  0.0000000000000D+00  0.0000000000000D+00
266  2.6500000000000D+00  0.0000000000000D+00  0.0000000000000D+00
267  2.6600000000000D+00  0.0000000000000D+00  0.0000000000000D+00
268  2.6700000000000D+00  0.0000000000000D+00  0.0000000000000D+00
269  2.6800000000000D+00  0.0000000000000D+00  0.0000000000000D+00
270  2.6900000000000D+00  0.0000000000000D+00  0.0000000000000D+00
271  2.7000000000000D+00  0.0000000000000D+00  0.0000000000000D+00
272  2.7100000000000D+00  0.0000000000000D+00  0.0000000000000D+00
273  2.7200000000000D+00  0.0000000000000D+00  0.0000000000000D+00
274  2.7300000000000D+00  0.0000000000000D+00  0.0000000000000D+00
275  2.7400000000000D+00  0.0000000000000D+00  0.0000000000000D+00
276  2.7500000000000D+00  0.0000000000000D+00  0.0000000000000D+00
277  2.7600000000000D+00  0.0000000000000D+00  0.0000000000000D+00
278  2.7700000000000D+00  0.0000000000000D+00  0.0000000000000D+00
279  2.7800000000000D+00  0.0000000000000D+00  0.0000000000000D+00
280  2.7900000000000D+00  0.0000000000000D+00  0.0000000000000D+00
281  2.8000000000000D+00  0.0000000000000D+00  0.0000000000000D+00
282  2.8100000000000D+00  0.0000000000000D+00  0.0000000000000D+00
283  2.8200000000000D+00  0.0000000000000D+00  0.0000000000000D+00
284  2.8300000000000D+00  0.0000000000000D+00  0.0000000000000D+00
285  2.8400000000000D+00  0.0000000000000D+00  0.0000000000000D+00
286  2.8500000000000D+00  0.0000000000000D+00  0.0000000000000D+00
287  2.8600000000000D+00  0.0000000000000D+00  0.0000000000000D+00
288  2.8700000000000D+00  0.0000000000000D+00  0.0000000000000D+00
289  2.8800000000000D+00  0.0000000000000D+00  0.0000000000000D+00
290  2.8900000000000D+00  0.0000000000000D+00  0.0000000000000D+00
291  2.9000000000000D+00  0.0000000000000D+00  0.0000000000000D+00
292  2.9100000000000D+00  0.0000000000000D+00  0.0000000000000D+00
293  2.9200000000000D+00  0.0000000000000D+00  0.0000000000000D+00
294  2.9300000000000D+00  0.0000000000000D+00  0.0000000000000D+00
295  2.9400000000000D+00  0.0000000000000D+00  0.0000000000000D+00
296  2.9500000000000D+00  0.0000000000000D+00  0.0000000000000D+00
297  2.9600000000000D+00  0.0000000000000D+00  0.0000000000000D+00
298  2.9700000000000D+00  0.0000000000000D+00  0.0000000000000D+00
299  2.9800000000000D+00  0.0000000000000D+00  0.0000000000000D+00
300  2.9900000000000D+00  0.0000000000000D+00  0.0000000000000D+00
301  3.0000000000000D+00  0.0000000000000D+00  0.0000000000000D+00
302  3.0100000000000D+00  0.0000000000000D+00  0.0000000000000D+00
303  3.0200000000000D+00  0.0000000000000D+00  0.0000000000000D+00
304  3.0300000000000D+00  0.0000000000000D+00  0.0000000000000D+00
305  3.0400000000000D+00  0.0000000000000D+00  0.0000000000000D+00
306  3.0500000000000D+00  0.0000000000000D+00  0.0000000000000D+00
307  3.0600000000000D+00  0.0000000000000D+00  0.0000000000000D+00
308  3.0700000000000D+00  0.0000000000000D+00  0.0000000000000D+00
309  3.0800000000000D+00  0.0000000000000D+00  0.0000000000000D+00
310  3.0900000000000D+00  0.0000000000000D+00  0.0000000000000D+00
311  3.1000000000000D+00  0.0000000000000D+00  0.0000000000000D+00
312  3.1100000000000D+00  0.0000000000000D+00  0.0000000000000D+00
313  3.1200000000000D+00  0.0000000000000D+00  0.0000000000000D+00
314  3.1300000000000D+00  0.0000000000000D+00  0.0000000000000D+00
315  3.1400000000000D+00  0.0000000000000D+00  0.0000000000000D+00
316  3.1500000000000D+00  0.0000000000000D+00  0.0000000000000D+00
317  3.1600000000000D+00  0.0000000000000D+00  0.0000000000000D+00
318  3.1700000000000D+00  0.0000000000000D+00  0.0000000000000D+00
319  3.1800000000000D+00  0.0000000000000D+00  0.0000000000000D+00
320  3.1900000000000D+00  0.0000000000000D+00  0.0000000000000D+00
321  3.2000000000000D+00  0.0000000000000D+00  0.0000000000000D+00
322  3.2100000000000D+00  0.0000000000000D+00  0.0000000000000D+00
323  3.2200000000000D+00  0.0000000000000D+00  0.0000000000000D+00
324  3.2300000000000D+00  0.0000000000000D+00  0.0000000000000D+00
325  3.2400000000000D+00  0.0000000000000D+00  0.0000000000000D+00
326  3.2500000000000D+00  0.0000000000000D+00  0.0000000000000D+00
327  3.2600000000000D+00  0.0000000000000D+00  0.0000000000000D+00
328  3.2700000000000D+00  0.0000000000000D+00  0.0000000000000D+00
329  3.2800000000000D+00  0.0000000000000D+00  0.0000000000000D+00
330  3.2900000000000D+00  0.0000000000000D+00  0.0000000000000D+00
331  3.3000000000000D+00  0.0000000000000D+00  0.0000000000000D+00
332  3.3100000000000D+00  0.0000000000000D+00  0.0000000000000D+00
333  3.3200000000000D+00  0.0000000000000D+00  0.0000000000000D+00
334  3.3300000000000D+00  0.0000000000000D+00  0.0000000000000D+00
335  3.3400000000000D+00  0.0000000000000D+00  0.0000000000000D+00
336  3.3500000000000D+00  0.0000000000000D+00  0.0000000000000D+00
337  3.3600000000000D+00  0.0000000000000D+00  0.0000000000000D+00
338  3.3700000000000D+00  0.0000000000000D+00  0.0000000000000D+00
339  3.3800000000000D+00  0.0000000000000D+00  0.0000000000000D+00
340  3.3900000000000D+00  0.0000000000000D+00  0.0000000000000D+00
341  3.4000000000000D+00  0.0000000000000D+00  0.0000000000000D+00
342  3.4100000000000D+00  0.0000000000000D+00  0.0000000000000D+00
343  3.4200000000000D+00  0.0000000000000D+00  0.0000000000000D+00
344  3.4300000000000D+00  0.0000000000000D+00  0.0000000000000D+00
345  3.4400000000000D+00  0.0000000000000D+00  0.0000000000000D+00
346  3.4500000000000D+00  0.0000000000000D+00  0.0000000000000D+00
347  3.4600000000000D+00  0.0000000000000D+00  0.0000000000000D+00
348  3.4700000000000D+00  0.0000000000000D+00  0.0000000000000D+00
349  3.4800000000000D+00  0.0000000000000D+00  0.0000000000000D+00
350  3.4900000000000D+00  0.0000000000000D+00  0.0000000000000D+00
351  3.5000000000000D+00  0.0000000000000D+00  0.0000000000000D+00
352  3.5100000000000D+00  0.0000000000000D+00  0.0000000000000D+00
353  3.5200000000000D+00  0.0000000000000D+00  0.0000000000000D+00
354  3.5300000000000D+00  0.0000000000000D+00  0.0000000000000D+00
355  3.5400000000000D+00  0.0000000000000D+00  0.0000000000000D+00
356  3.5500000000000D+00  0.0000000000000D+00  0.0000000000000D+00
357  3.5600000000000D+00  0.0000000000000D+00  0.0000000000000D+00
358  3.5700000000000D+00  0.0000000000000D+00  0.0000000000000D+00
359  3.5800000000000D+00  0.0000000000000D+00  0.0000000000000D+00
360  3.5900000000000D+00  0.0000000000000D+00  0.0000000000000D+00
361  3.6000000000000D+00  0.0000000000000D+00  0.0000000000000D+00
362  3.6100000000000D+00  0.0000000000000D+00  0.0000000000000D+00
363  3.6200000000000D+00  0.0000000000000D+00  0.0000000000000D+00
364  3.6300000000000D+00  0.0000000000000D+00  0.0000000000000D+00
365  3.6400000000000D+00  0.0000000000000D+00  0.0000000000000D+00
366  3.6500000000000D+00  0.0000000000000D+00  0.0000000000000D+00
367  3.6600000000000D+00  0.0000000000000D+00  0.0000000000000D+00
368  3.6700000000000D+00  0.0000000000000D+00  0.0000000000000D+00
369  3.6800000000000D+00  0.0000000000000D+00  0.0000000000000D+00
370  3.6900000000000D+00  0.0000000000000D+00  0.0000000000000D+00
371  3.7000000000000D+00  0.0000000000000D+00  0.0000000000000D+00
372  3.7100000000000D+00  0.0000000000000D+00  0.0000000000000D+00
373  3.7200000000000D+00  0.0000000000000D+00  0.0000000000000D+00
374  3.7300000000000D+00  0.0000000000000D+00  0.0000000000000D+00
375  3.7400000000000D+00  0.0000000000000D+00  0.0000000000000D+00
376  3.7500000000000D+00  0.0000000000000D+00  0.0000000000000D+00
377  3.7600000000000D+00  0.0000000000000D+00  0.0000000000000D+00
378  3.7700000000000D+00  0.0000000000000D+00  0.0000000000000D+00
379  3.7800000000000D+00  0.0000000000000D+00  0.0000000000000D+00
380  3.7900000000000D+00  0.0000000000000D+00  0.0000000000000D+00
381  3.8000000000000D+00  0.0000000000000D+00  0.0000000000000D+00
382  3.8100000000000D+00  0.0000000000000D+00  0.0000000000000D+00
383  3.8200000000000D+00  0.0000000000000D+00  0.0000000000000D+00
384  3.8300000000000D+00  0.0000000000000D+00  0.0000000000000D+00
385  3.8400000000000D+00  0.0000000000000D+00  0.0000000000000D+00
386  3.8500000000000D+00  0.0000000000000D+00  0.0000000000000D+00
387  3.8600000000000D+00  0.0000000000000D+00  0.0000000000000D+00
388  3.8700000000000D+00  0.0000000000000D+00  0.0000000000000D+00
389  3.8800000000000D+00  0.0000000000000D+00  0.0000000000000D+00
390  3.8900000000000D+00  0.0000000000000D+00  0.0000000000000D+00
391  3.9000000000000D+00  0.0000000000000D+00  0.0000000000000D+00
392  3.9100000000000D+00  0.0000000000000D+00  0.0000000000000D+00
393  3.9200000000000D+00  0.0000000000000D+00  0.0000000000000D+00
394  3.9300000000000D+00  0.0000000000000D+00  0.0000000000000D+00
395  3.9400000000000D+00  0.0000000000000D+00  0.0000000000000D+00
396  3.9500000000000D+00  0.0000000000000D+00  0.0000000000000D+00
397  3.9600000000000D+00  0.0000000000000D+00  0.0000000000000D+00
398  3.9700000000000D+00  0.0000000000000D+00  0.0000000000000D+00
399  3.9800000000000D+00  0.0000000000000D+00  0.0000000000000D+00
400  3.9900000000000D+00  0.0000000000000D+00  0.0000000000000D+00
401  4.0000000000000D+00  0.0000000000000D+00  0.0000000000000D+00
402  4.0100000000000D+00  0.0000000000000D+00  0.0000000000000D+00
403  4.0200000000000D+00  0.0000000000000D+00  0.0000000000000D+00
404  4.0300000000000D+00  0.0000000000000D+00  0.0000000000000D+00
405  4.0400000000000D+00  0.0000000000000D+00  0.0000000000000D+00
406  4.0500000000000D+00  0.0000000000000D+00  0.0000000000000D+00
407  4.0600000000000D+00  0.0000000000000D+00  0.0000000000000D+00
408  4.0700000000000D+00  0.0000000000000D+00  0.0000000000000D+00
409  4.0800000000000D+00  0.0000000000000D+00  0.0000000000000D+00
410  4.0900000000000D+00  0.0000000000000D+00  0.0000000000000D+00
411  4.1000000000000D+00  0.0000000000000D+00  0.0000000000000D+00
412  4.1100000000000D+00  0.0000000000000D+00  0.0000000000000D+00
413  4.1200000000000D+00  0.0000000000000D+00  0.0000000000000D+00
414  4.1300000000000D+00  0.0000000000000D+00  0.0000000000000D+00
415  4.1400000000000D+00  0.0000000000000D+00  0.0000000000000D+00
416  4.1500000000000D+00  0.0000000000000D+00  0.0000000000000D+00
417  4.1600000000000D+00  0.0000000000000D+00  0.0000000000000D+00
418  4.1700000000000D+00  0.0000000000000D+00  0.0000000000000D+00
419  4.1800000000000D+00  0.0000000000000D+00  0.0000000000000D+00
420  4.1900000000000D+00  0.0000000000000D+00  0.0000000000000D+00
421  4.2000000000000D+00  0.0000000000000D+00  0.0000000000000D+00
422  4.2100000000000D+00  0.0000000000000D+00  0.0000000000000D+00
423  4.2200000000000D+00  0.0000000000000D+00  0.0000000000000D+00
424  4.2300000000000D+00  0.0000000000000D+00  0.0000000000000D+00
425  4.2400000000000D+00  0.0000000000000D+00  0.0000000000000D+00
426  4.2500000000000D+00  0.0000000000000D+00  0.0000000000000D+00
427  4.2600000000000D+00  0.0000000000000D+00  0.0000000000000D+00
428  4.2700000000000D+00  0.0000000000000D+00  0.0000000000000D+00
429  4.2800000000000D+00  0.0000000000000D+00  0.0000000000000D+00
430  4.2900000000000D+00  0.0000000000000D+00  0.0000000000000D+00
431  4.3000000000000D+00  0.0000000000000D+00  0.0000000000000D+00
432  4.3100000000000D+00  0.0000000000000D+00  0.0000000000000D+00
433  4.3200000000000D+00  0.0000000000000D+00  0.0000000000000D+00
434  4.3300000000000D+00  0.0000000000000D+00  0.0000000000000D+00
435  4.3400000000000D+00  0.0000000000000D+00  0.0000000000000D+00
436  4.3500000000000D+00  0.0000000000000D+00  0.0000000000000D+00
437  4.3600000000000D+00  0.0000000000000D+00  0.0000000000000D+00
438  4.3700000000000D+00  0.0000000000000D+00  0.0000000000000D+00
439  4.3800000000000D+00  0.0000000000000D+00  0.0000000000000D+00
440  4.3900000000000D+00  0.0000000000000D+00  0.0000000000000D+00
441  4.4000000000000D+00  0.0000000000000D+00  0.0000000000000D+00
442  4.4100000000000D+00  0.0000000000000D+00  0.0000000000000D+00
443  4.4200000000000D+00  0.0000000000000D+00  0.0000000000000D+00