I     ONCVPSP  r_core=  1.86  1.86  1.75
53.0000     17.0000      140817    zatom,zion,pspd
8    11     2     4   601     0    pspcod,pspxc,lmax,lloc,mmax,r2well
6.00000000  1.45000000  0.00000000    rchrg fchrg qchrg
2     2     2     0     0    nproj
0                 extension_switch
0                         7.4587494087545D+00  9.9645819895783D-01
1  0.0000000000000D+00 -0.0000000000000D+00 -0.0000000000000D+00
2  1.0000000000000D-02 -3.8468238904914D-02 -3.9376058737508D-02
3  2.0000000000000D-02 -7.6844767243074D-02 -7.8627495022063D-02
4  3.0000000000000D-02 -1.1503833203675D-01 -1.1763020043473D-01
5  4.0000000000000D-02 -1.5295859308537D-01 -1.5626109225585D-01
6  5.0000000000000D-02 -1.9051657336322D-01 -1.9439862040255D-01
7  6.0000000000000D-02 -2.2762510225967D-01 -2.3192326729884D-01
8  7.0000000000000D-02 -2.6419924932954D-01 -2.6871803836886D-01
9  8.0000000000000D-02 -3.0015674626340D-01 -3.0466894087927D-01
10  9.0000000000000D-02 -3.3541839485185D-01 -3.3966544891500D-01
11  1.0000000000000D-01 -3.6990845876763D-01 -3.7360095231099D-01
12  1.1000000000000D-01 -4.0355503708419D-01 -4.0637318744983D-01
13  1.2000000000000D-01 -4.3629041753061D-01 -4.3788464790452D-01
14  1.3000000000000D-01 -4.6805140760658D-01 -4.6804297302220D-01
15  1.4000000000000D-01 -4.9877964162835D-01 -4.9676131245160D-01
16  1.5000000000000D-01 -5.2842186231572D-01 -5.2395866521589D-01
17  1.6000000000000D-01 -5.5693017490439D-01 -5.4956019115857D-01
18  1.7000000000000D-01 -5.8426227298358D-01 -5.7349749399587D-01
19  1.8000000000000D-01 -6.1038163405517D-01 -5.9570887372561D-01
20  1.9000000000000D-01 -6.3525768428016D-01 -6.1613954786474D-01
21  2.0000000000000D-01 -6.5886593112349D-01 -6.3474184003388D-01
22  2.1000000000000D-01 -6.8118806312925D-01 -6.5147533498694D-01
23  2.2000000000000D-01 -7.0221201628669D-01 -6.6630699943601D-01
24  2.3000000000000D-01 -7.2193200615188D-01 -6.7921126752330D-01
25  2.4000000000000D-01 -7.4034852597398D-01 -6.9017009124333D-01
26  2.5000000000000D-01 -7.5746831015517D-01 -6.9917295478872D-01
27  2.6000000000000D-01 -7.7330426326081D-01 -7.0621685270720D-01
28  2.7000000000000D-01 -7.8787535505729D-01 -7.1130623253797D-01
29  2.8000000000000D-01 -8.0120648151470D-01 -7.1445290139366D-01
30  2.9000000000000D-01 -8.1332829271097D-01 -7.1567589702341D-01
31  3.0000000000000D-01 -8.2427698821912D-01 -7.1500132414309D-01
32  3.1000000000000D-01 -8.3409408134905D-01 -7.1246215677320D-01
33  3.2000000000000D-01 -8.4282613234256D-01 -7.0809800695323D-01
34  3.3000000000000D-01 -8.5052445160985D-01 -7.0195486040687D-01
35  3.4000000000000D-01 -8.5724478014518D-01 -6.9408478514044D-01
36  3.5000000000000D-01 -8.6304693349225D-01 -6.8454560221191D-01
37  3.6000000000000D-01 -8.6799443798873D-01 -6.7340054207578D-01
38  3.7000000000000D-01 -8.7215412181690D-01 -6.6071785545411D-01
39  3.8000000000000D-01 -8.7559570875112D-01 -6.4657041949958D-01
40  3.9000000000000D-01 -8.7839138251134D-01 -6.3103531220505D-01
41  4.0000000000000D-01 -8.8061533060718D-01 -6.1419336208217D-01
42  4.1000000000000D-01 -8.8234328253601D-01 -5.9612868699207D-01
43  4.2000000000000D-01 -8.8365203667306D-01 -5.7692821732046D-01
44  4.3000000000000D-01 -8.8461897526291D-01 -5.5668120285288D-01
45  4.4000000000000D-01 -8.8532157490515D-01 -5.3547871036147D-01
46  4.5000000000000D-01 -8.8583691404042D-01 -5.1341311348432D-01
47  4.6000000000000D-01 -8.8624118372044D-01 -4.9057758118986D-01
48  4.7000000000000D-01 -8.8660919708590D-01 -4.6706556041552D-01
49  4.8000000000000D-01 -8.8701388896658D-01 -4.4297024385114D-01
50  4.9000000000000D-01 -8.8752585520828D-01 -4.1838407298744D-01
51  5.0000000000000D-01 -8.8821289006469D-01 -3.9339823511552D-01
52  5.1000000000000D-01 -8.8913954341171D-01 -3.6810217632249D-01
53  5.2000000000000D-01 -8.9036661996650D-01 -3.4258304870407D-01
54  5.3000000000000D-01 -8.9195085706250D-01 -3.1692533861671D-01
55  5.4000000000000D-01 -8.9394447272556D-01 -2.9121035594988D-01
56  5.5000000000000D-01 -8.9639477166253D-01 -2.6551577683445D-01
57  5.6000000000000D-01 -8.9934390828892D-01 -2.3991535111837D-01
58  5.7000000000000D-01 -9.0282839353528D-01 -2.1447832756553D-01
59  5.8000000000000D-01 -9.0687902776794D-01 -1.8926933621694D-01
60  5.9000000000000D-01 -9.1152042298619D-01 -1.6434781603108D-01
61  6.0000000000000D-01 -9.1677097878552D-01 -1.3976793682789D-01
62  6.1000000000000D-01 -9.2264258343185D-01 -1.1557821035391D-01
63  6.2000000000000D-01 -9.2914047170726D-01 -9.1821268612432D-02
64  6.3000000000000D-01 -9.3626325767668D-01 -6.8533840029618D-02
65  6.4000000000000D-01 -9.4400263971620D-01 -4.5746334922043D-02
66  6.5000000000000D-01 -9.5234355363162D-01 -2.3482947383809D-02
67  6.6000000000000D-01 -9.6126418905753D-01 -1.7615959548723D-03
68  6.7000000000000D-01 -9.7073592293802D-01  1.9406255220187D-02
69  6.8000000000000D-01 -9.8072351008401D-01  4.0015466656378D-02
70  6.9000000000000D-01 -9.9118522842963D-01  6.0067155197797D-02
71  7.0000000000000D-01 -1.0020730622898D+00  7.9568583331070D-02
72  7.1000000000000D-01 -1.0133328722631D+00  9.8533093936661D-02
73  7.2000000000000D-01 -1.0249047036609D+00  1.1697986178403D-01
74  7.3000000000000D-01 -1.0367230930382D+00  1.3493365529972D-01
75  7.4000000000000D-01 -1.0487173983133D+00  1.5242458295017D-01
76  7.5000000000000D-01 -1.0608121742092D+00  1.6948778742501D-01
77  7.6000000000000D-01 -1.0729275783478D+00  1.8616310282011D-01
78  7.7000000000000D-01 -1.0849798111750D+00  2.0249468272593D-01
79  7.8000000000000D-01 -1.0968816100818D+00  2.1853058011723D-01
80  7.9000000000000D-01 -1.1085427277424D+00  2.3432230643897D-01
81  8.0000000000000D-01 -1.1198704603891D+00  2.4992436685115D-01
82  8.1000000000000D-01 -1.1307701929618D+00  2.6539376744220D-01
83  8.2000000000000D-01 -1.1411459630493D+00  2.8078950054748D-01
84  8.3000000000000D-01 -1.1509010404506D+00  2.9617201136474D-01
85  8.4000000000000D-01 -1.1599385190623D+00  3.1160264920819D-01
86  8.5000000000000D-01 -1.1681619176918D+00  3.2714310687698D-01
87  8.6000000000000D-01 -1.1754757863051D+00  3.4285485173462D-01
88  8.7000000000000D-01 -1.1817863141369D+00  3.5879855220215D-01
89  8.8000000000000D-01 -1.1870019360198D+00  3.7503350346047D-01
90  8.9000000000000D-01 -1.1910339332375D+00  3.9161705623558D-01
91  9.0000000000000D-01 -1.1937970251651D+00  4.0860405260107D-01
92  9.1000000000000D-01 -1.1952099479395D+00  4.2604627277200D-01
93  9.2000000000000D-01 -1.1951960164043D+00  4.4399189687720D-01
94  9.3000000000000D-01 -1.1936835874464D+00  4.6248505461825D-01
95  9.4000000000000D-01 -1.1906066912248D+00  4.8156522987637D-01
96  9.5000000000000D-01 -1.1859056280058D+00  5.0126669399331D-01
97  9.6000000000000D-01 -1.1795272147595D+00  5.2161825336884D-01
98  9.7000000000000D-01 -1.1714252971757D+00  5.4264276696077D-01
99  9.8000000000000D-01 -1.1615611405142D+00  5.6435677441647D-01
100  9.9000000000000D-01 -1.1499037801050D+00  5.8677016468155D-01
101  1.0000000000000D+00 -1.1364303289767D+00  6.0988588784633D-01
102  1.0100000000000D+00 -1.1211259243593D+00  6.3369999634131D-01
103  1.0200000000000D+00 -1.1039848178679D+00  6.5820066334146D-01
104  1.0300000000000D+00 -1.0850099583202D+00  6.8336856357149D-01
105  1.0400000000000D+00 -1.0642130659713D+00  7.0917681863173D-01
106  1.0500000000000D+00 -1.0416147986024D+00  7.3559086620270D-01
107  1.0600000000000D+00 -1.0172445738560D+00  7.6256864055813D-01
108  1.0700000000000D+00 -9.9114084266471D-01  7.9006035665057D-01
109  1.0800000000000D+00 -9.6335148645800D-01  8.1800821300104D-01
110  1.0900000000000D+00 -9.3393275315750D-01  8.4634737914500D-01
111  1.1000000000000D+00 -9.0294940224863D-01  8.7500592285152D-01
112  1.1100000000000D+00 -8.7047407310469D-01  9.0390539373656D-01
113  1.1200000000000D+00 -8.3658840122891D-01  9.3295999561604D-01
114  1.1300000000000D+00 -8.0138132651691D-01  9.6207811651102D-01
115  1.1400000000000D+00 -7.6494896895321D-01  9.9116252297066D-01
116  1.1500000000000D+00 -7.2739408560123D-01  1.0201108359428D+00
117  1.1600000000000D+00 -6.8882655746591D-01  1.0488154600034D+00
118  1.1700000000000D+00 -6.4936173955509D-01  1.0771649663357D+00
119  1.1800000000000D+00 -6.0912025044817D-01  1.1050443509800D+00
120  1.1900000000000D+00 -5.6822771021496D-01  1.1323353896422D+00
121  1.2000000000000D+00 -5.2681371067993D-01  1.1589179866264D+00
122  1.2100000000000D+00 -4.8501116723784D-01  1.1846705085165D+00
123  1.2200000000000D+00 -4.4295647167611D-01  1.2094695759921D+00
124  1.2300000000000D+00 -4.0078725998593D-01  1.2331930097380D+00
125  1.2400000000000D+00 -3.5864259787863D-01  1.2557190960299D+00
126  1.2500000000000D+00 -3.1666335168649D-01  1.2769261603364D+00
127  1.2600000000000D+00 -2.7498894541221D-01  1.2966965012377D+00
128  1.2700000000000D+00 -2.3375784023323D-01  1.3149154984048D+00
129  1.2800000000000D+00 -1.9310895740487D-01  1.3314699361583D+00
130  1.2900000000000D+00 -1.5317652428826D-01  1.3462539921077D+00
131  1.3000000000000D+00 -1.1409176994264D-01  1.3591670237803D+00
132  1.3100000000000D+00 -7.5985488989285D-02  1.3701106826988D+00
133  1.3200000000000D+00 -3.8979272028771D-02  1.3789987743210D+00
134  1.3300000000000D+00 -3.1915569494873D-03  1.3857502425670D+00
135  1.3400000000000D+00  3.1262112921534D-02  1.3902889782838D+00
136  1.3500000000000D+00  6.4278795024392D-02  1.3925543850043D+00
137  1.3600000000000D+00  9.5757328138113D-02  1.3924893863397D+00
138  1.3700000000000D+00  1.2560567825086D-01  1.3900484886796D+00
139  1.3800000000000D+00  1.5374309451091D-01  1.3851998624706D+00
140  1.3900000000000D+00  1.8008994565078D-01  1.3779144990444D+00
141  1.4000000000000D+00  2.0458452313265D-01  1.3681839756966D+00
142  1.4100000000000D+00  2.2716881528384D-01  1.3560052226813D+00
143  1.4200000000000D+00  2.4779452733925D-01  1.3413869626064D+00
144  1.4300000000000D+00  2.6642869217845D-01  1.3243551659156D+00
145  1.4400000000000D+00  2.8303864553509D-01  1.3049377529020D+00
146  1.4500000000000D+00  2.9761366533171D-01  1.2831863378903D+00
147  1.4600000000000D+00  3.1014445485422D-01  1.2591554065671D+00
148  1.4700000000000D+00  3.2063624928176D-01  1.2329154493535D+00
149  1.4800000000000D+00  3.2910531793774D-01  1.2045489807135D+00
150  1.4900000000000D+00  3.3557309145491D-01  1.1741452568588D+00
151  1.5000000000000D+00  3.4007985095348D-01  1.1418124009397D+00
152  1.5100000000000D+00  3.4266484232267D-01  1.1076594580543D+00
153  1.5200000000000D+00  3.4338821510451D-01  1.0718154053166D+00
154  1.5300000000000D+00  3.4231012611985D-01  1.0344108825906D+00
155  1.5400000000000D+00  3.3950591669027D-01  9.9559078904293D-01
156  1.5500000000000D+00  3.3505569509323D-01  9.5550514919278D-01
157  1.5600000000000D+00  3.2904900942525D-01  9.1431314854313D-01
158  1.5700000000000D+00  3.2158296035393D-01  8.7218003243134D-01
159  1.5800000000000D+00  3.1276014726761D-01  8.2927736072768D-01
160  1.5900000000000D+00  3.0269118331274D-01  7.8578089015506D-01
161  1.6000000000000D+00  2.9149025264925D-01  7.4187221953743D-01
162  1.6100000000000D+00  2.7927769498281D-01  6.9773260115651D-01
163  1.6200000000000D+00  2.6617742333014D-01  6.5355083898580D-01
164  1.6300000000000D+00  2.5231558386919D-01  6.0950854970867D-01
165  1.6400000000000D+00  2.3782354895883D-01  5.6579839555610D-01
166  1.6500000000000D+00  2.2282953253313D-01  5.2259765802855D-01
167  1.6600000000000D+00  2.0746916470538D-01  4.8009784976510D-01
168  1.6700000000000D+00  1.9186950558165D-01  4.3846815127308D-01
169  1.6800000000000D+00  1.7616711220516D-01  3.9789433783524D-01
170  1.6900000000000D+00  1.6048433862555D-01  3.5853256552262D-01
171  1.7000000000000D+00  1.4495557699410D-01  3.2055877782664D-01
172  1.7100000000000D+00  1.2969474211549D-01  2.8411128766786D-01
173  1.7200000000000D+00  1.1483107892523D-01  2.4935133024307D-01
174  1.7300000000000D+00  1.0046738979504D-01  2.1640030488522D-01
175  1.7400000000000D+00  8.6725151598401D-02  1.8540384734358D-01
176  1.7500000000000D+00  7.3694709505537D-02  1.5646796933773D-01
177  1.7600000000000D+00  6.1486045895181D-02  1.2972234948820D-01
178  1.7700000000000D+00  5.0176626548369D-02  1.0525599943193D-01
179  1.7800000000000D+00  3.9860933841764D-02  8.3178210607274D-02
180  1.7900000000000D+00  3.0603001001635D-02  6.3560165128666D-02
181  1.8000000000000D+00  2.2478032899855D-02  4.6486142618808D-02
182  1.8100000000000D+00  1.5536691147913D-02  3.2009547337070D-02
183  1.8200000000000D+00  9.8313386166974D-03  2.0185240056246D-02
184  1.8300000000000D+00  5.3997357647396D-03  1.1049404140203D-02
185  1.8400000000000D+00  2.3475846901875D-03  4.7844964370842D-03
186  1.8500000000000D+00  6.6169957435989D-04  1.3317700149264D-03
187  1.8600000000000D+00 -9.6609461960252D-05 -2.1002396699497D-04
188  1.8700000000000D+00 -2.2575210798231D-04 -4.6836961820894D-04
189  1.8800000000000D+00 -2.3231588159155D-05 -4.7981144227481D-05
190  1.8900000000000D+00  2.2208084635316D-06  5.4154949764677D-06
191  1.9000000000000D+00  8.6700748040040D-07  2.1142186423415D-06
192  1.9100000000000D+00  0.0000000000000D+00  0.0000000000000D+00
193  1.9200000000000D+00  0.0000000000000D+00  0.0000000000000D+00
194  1.9300000000000D+00  0.0000000000000D+00  0.0000000000000D+00
195  1.9400000000000D+00  0.0000000000000D+00  0.0000000000000D+00
196  1.9500000000000D+00  0.0000000000000D+00  0.0000000000000D+00
197  1.9600000000000D+00  0.0000000000000D+00  0.0000000000000D+00
198  1.9700000000000D+00  0.0000000000000D+00  0.0000000000000D+00
199  1.9800000000000D+00  0.0000000000000D+00  0.0000000000000D+00
200  1.9900000000000D+00  0.0000000000000D+00  0.0000000000000D+00
201  2.0000000000000D+00  0.0000000000000D+00  0.0000000000000D+00
202  2.0100000000000D+00  0.0000000000000D+00  0.0000000000000D+00
203  2.0200000000000D+00  0.0000000000000D+00  0.0000000000000D+00
204  2.0300000000000D+00  0.0000000000000D+00  0.0000000000000D+00
205  2.0400000000000D+00  0.0000000000000D+00  0.0000000000000D+00
206  2.0500000000000D+00  0.0000000000000D+00  0.0000000000000D+00
207  2.0600000000000D+00  0.0000000000000D+00  0.0000000000000D+00
208  2.0700000000000D+00  0.0000000000000D+00  0.0000000000000D+00
209  2.0800000000000D+00  0.0000000000000D+00  0.0000000000000D+00
210  2.0900000000000D+00  0.0000000000000D+00  0.0000000000000D+00
211  2.1000000000000D+00  0.0000000000000D+00  0.0000000000000D+00
212  2.1100000000000D+00  0.0000000000000D+00  0.0000000000000D+00
213  2.1200000000000D+00  0.0000000000000D+00  0.0000000000000D+00
214  2.1300000000000D+00  0.0000000000000D+00  0.0000000000000D+00
215  2.1400000000000D+00  0.0000000000000D+00  0.0000000000000D+00
216  2.1500000000000D+00  0.0000000000000D+00  0.0000000000000D+00
217  2.1600000000000D+00  0.0000000000000D+00  0.0000000000000D+00
218  2.1700000000000D+00  0.0000000000000D+00  0.0000000000000D+00
219  2.1800000000000D+00  0.0000000000000D+00  0.0000000000000D+00
220  2.1900000000000D+00  0.0000000000000D+00  0.0000000000000D+00
221  2.2000000000000D+00  0.0000000000000D+00  0.0000000000000D+00
222  2.2100000000000D+00  0.0000000000000D+00  0.0000000000000D+00
223  2.2200000000000D+00  0.0000000000000D+00  0.0000000000000D+00
224  2.2300000000000D+00  0.0000000000000D+00  0.0000000000000D+00
225  2.2400000000000D+00  0.0000000000000D+00  0.0000000000000D+00
226  2.2500000000000D+00  0.0000000000000D+00  0.0000000000000D+00
227  2.2600000000000D+00  0.0000000000000D+00  0.0000000000000D+00
228  2.2700000000000D+00  0.0000000000000D+00  0.0000000000000D+00
229  2.2800000000000D+00  0.0000000000000D+00  0.0000000000000D+00
230  2.2900000000000D+00  0.0000000000000D+00  0.0000000000000D+00
231  2.3000000000000D+00  0.0000000000000D+00  0.0000000000000D+00
232  2.3100000000000D+00  0.0000000000000D+00  0.0000000000000D+00
233  2.3200000000000D+00  0.0000000000000D+00  0.0000000000000D+00
234  2.3300000000000D+00  0.0000000000000D+00  0.0000000000000D+00
235  2.3400000000000D+00  0.0000000000000D+00  0.0000000000000D+00
236  2.3500000000000D+00  0.0000000000000D+00  0.0000000000000D+00
237  2.3600000000000D+00  0.0000000000000D+00  0.0000000000000D+00
238  2.3700000000000D+00  0.0000000000000D+00  0.0000000000000D+00
239  2.3800000000000D+00  0.0000000000000D+00  0.0000000000000D+00
240  2.3900000000000D+00  0.0000000000000D+00  0.0000000000000D+00
241  2.4000000000000D+00  0.0000000000000D+00  0.0000000000000D+00
242  2.4100000000000D+00  0.0000000000000D+00  0.0000000000000D+00
243  2.4200000000000D+00  0.0000000000000D+00  0.0000000000000D+00
244  2.4300000000000D+00  0.0000000000000D+00  0.0000000000000D+00
245  2.4400000000000D+00  0.0000000000000D+00  0.0000000000000D+00
246  2.4500000000000D+00  0.0000000000000D+00  0.0000000000000D+00
247  2.4600000000000D+00  0.0000000000000D+00  0.0000000000000D+00
248  2.4700000000000D+00  0.0000000000000D+00  0.0000000000000D+00
249  2.4800000000000D+00  0.0000000000000D+00  0.0000000000000D+00
250  2.4900000000000D+00  0.0000000000000D+00  0.0000000000000D+00
251  2.5000000000000D+00  0.0000000000000D+00  0.0000000000000D+00
252  2.5100000000000D+00  0.0000000000000D+00  0.0000000000000D+00
253  2.5200000000000D+00  0.0000000000000D+00  0.0000000000000D+00
254  2.5300000000000D+00  0.0000000000000D+00  0.0000000000000D+00
255  2.5400000000000D+00  0.0000000000000D+00  0.0000000000000D+00
256  2.5500000000000D+00  0.0000000000000D+00  0.0000000000000D+00
257  2.5600000000000D+00  0.0000000000000D+00  0.0000000000000D+00
258  2.5700000000000D+00  0.0000000000000D+00  0.0000000000000D+00
259  2.5800000000000D+00  0.0000000000000D+00  0.0000000000000D+00
260  2.5900000000000D+00  0.0000000000000D+00  0.0000000000000D+00
261  2.6000000000000D+00  0.0000000000000D+00  0.0000000000000D+00
262  2.6100000000000D+00  0.0000000000000D+00  0.0000000000000D+00
263  2.6200000000000D+00  0.0000000000000D+00  0.0000000000000D+00
264  2.6300000000000D+00  0.0000000000000D+00  0.0000000000000D+00
265  2.6400000000000D+00  0.0000000000000D+00  0.0000000000000D+00
266  2.6500000000000D+00  0.0000000000000D+00  0.0000000000000D+00
267  2.6600000000000D+00  0.0000000000000D+00  0.0000000000000D+00
268  2.6700000000000D+00  0.0000000000000D+00  0.0000000000000D+00
269  2.6800000000000D+00  0.0000000000000D+00  0.0000000000000D+00
270  2.6900000000000D+00  0.0000000000000D+00  0.0000000000000D+00
271  2.7000000000000D+00  0.0000000000000D+00  0.0000000000000D+00
272  2.7100000000000D+00  0.0000000000000D+00  0.0000000000000D+00
273  2.7200000000000D+00  0.0000000000000D+00  0.0000000000000D+00
274  2.7300000000000D+00  0.0000000000000D+00  0.0000000000000D+00
275  2.7400000000000D+00  0.0000000000000D+00  0.0000000000000D+00
276  2.7500000000000D+00  0.0000000000000D+00  0.0000000000000D+00
277  2.7600000000000D+00  0.0000000000000D+00  0.0000000000000D+00
278  2.7700000000000D+00  0.0000000000000D+00  0.0000000000000D+00
279  2.7800000000000D+00  0.0000000000000D+00  0.0000000000000D+00
280  2.7900000000000D+00  0.0000000000000D+00  0.0000000000000D+00
281  2.8000000000000D+00  0.0000000000000D+00  0.0000000000000D+00
282  2.8100000000000D+00  0.0000000000000D+00  0.0000000000000D+00
283  2.8200000000000D+00  0.0000000000000D+00  0.0000000000000D+00
284  2.8300000000000D+00  0.0000000000000D+00  0.0000000000000D+00
285  2.8400000000000D+00  0.0000000000000D+00  0.0000000000000D+00
286  2.8500000000000D+00  0.0000000000000D+00  0.0000000000000D+00
287  2.8600000000000D+00  0.0000000000000D+00  0.0000000000000D+00
288  2.8700000000000D+00  0.0000000000000D+00  0.0000000000000D+00
289  2.8800000000000D+00  0.0000000000000D+00  0.0000000000000D+00
290  2.8900000000000D+00  0.0000000000000D+00  0.0000000000000D+00
291  2.9000000000000D+00  0.0000000000000D+00  0.0000000000000D+00
292  2.9100000000000D+00  0.0000000000000D+00  0.0000000000000D+00
293  2.9200000000000D+00  0.0000000000000D+00  0.0000000000000D+00
294  2.9300000000000D+00  0.0000000000000D+00  0.0000000000000D+00
295  2.9400000000000D+00  0.0000000000000D+00  0.0000000000000D+00
296  2.9500000000000D+00  0.0000000000000D+00  0.0000000000000D+00
297  2.9600000000000D+00  0.0000000000000D+00  0.0000000000000D+00
298  2.9700000000000D+00  0.0000000000000D+00  0.0000000000000D+00
299  2.9800000000000D+00  0.0000000000000D+00  0.0000000000000D+00
300  2.9900000000000D+00  0.0000000000000D+00  0.0000000000000D+00
301  3.0000000000000D+00  0.0000000000000D+00  0.0000000000000D+00
302  3.0100000000000D+00  0.0000000000000D+00  0.0000000000000D+00
303  3.0200000000000D+00  0.0000000000000D+00  0.0000000000000D+00
304  3.0300000000000D+00  0.0000000000000D+00  0.0000000000000D+00
305  3.0400000000000D+00  0.0000000000000D+00  0.0000000000000D+00
306  3.0500000000000D+00  0.0000000000000D+00  0.0000000000000D+00
307  3.0600000000000D+00  0.0000000000000D+00  0.0000000000000D+00
308  3.0700000000000D+00  0.0000000000000D+00  0.0000000000000D+00
309  3.0800000000000D+00  0.0000000000000D+00  0.0000000000000D+00
310  3.0900000000000D+00  0.0000000000000D+00  0.0000000000000D+00
311  3.1000000000000D+00  0.0000000000000D+00  0.0000000000000D+00
312  3.1100000000000D+00  0.0000000000000D+00  0.0000000000000D+00
313  3.1200000000000D+00  0.0000000000000D+00  0.0000000000000D+00
314  3.1300000000000D+00  0.0000000000000D+00  0.0000000000000D+00
315  3.1400000000000D+00  0.0000000000000D+00  0.0000000000000D+00
316  3.1500000000000D+00  0.0000000000000D+00  0.0000000000000D+00
317  3.1600000000000D+00  0.0000000000000D+00  0.0000000000000D+00
318  3.1700000000000D+00  0.0000000000000D+00  0.0000000000000D+00
319  3.1800000000000D+00  0.0000000000000D+00  0.0000000000000D+00
320  3.1900000000000D+00  0.0000000000000D+00  0.0000000000000D+00
321  3.2000000000000D+00  0.0000000000000D+00  0.0000000000000D+00
322  3.2100000000000D+00  0.0000000000000D+00  0.0000000000000D+00
323  3.2200000000000D+00  0.0000000000000D+00  0.0000000000000D+00
324  3.2300000000000D+00  0.0000000000000D+00  0.0000000000000D+00
325  3.2400000000000D+00  0.0000000000000D+00  0.0000000000000D+00
326  3.2500000000000D+00  0.0000000000000D+00  0.0000000000000D+00
327  3.2600000000000D+00  0.0000000000000D+00  0.0000000000000D+00
328  3.2700000000000D+00  0.0000000000000D+00  0.0000000000000D+00
329  3.2800000000000D+00  0.0000000000000D+00  0.0000000000000D+00
330  3.2900000000000D+00  0.0000000000000D+00  0.0000000000000D+00
331  3.3000000000000D+00  0.0000000000000D+00  0.0000000000000D+00
332  3.3100000000000D+00  0.0000000000000D+00  0.0000000000000D+00
333  3.3200000000000D+00  0.0000000000000D+00  0.0000000000000D+00
334  3.3300000000000D+00  0.0000000000000D+00  0.0000000000000D+00
335  3.3400000000000D+00  0.0000000000000D+00  0.0000000000000D+00
336  3.3500000000000D+00  0.0000000000000D+00  0.0000000000000D+00
337  3.3600000000000D+00  0.0000000000000D+00  0.0000000000000D+00
338  3.3700000000000D+00  0.0000000000000D+00  0.0000000000000D+00
339  3.3800000000000D+00  0.0000000000000D+00  0.0000000000000D+00
340  3.3900000000000D+00  0.0000000000000D+00  0.0000000000000D+00
341  3.4000000000000D+00  0.0000000000000D+00  0.0000000000000D+00
342  3.4100000000000D+00  0.0000000000000D+00  0.0000000000000D+00
343  3.4200000000000D+00  0.0000000000000D+00  0.0000000000000D+00
344  3.4300000000000D+00  0.0000000000000D+00  0.0000000000000D+00
345  3.4400000000000D+00  0.0000000000000D+00  0.0000000000000D+00
346  3.4500000000000D+00  0.0000000000000D+00  0.0000000000000D+00
347  3.4600000000000D+00  0.0000000000000D+00  0.0000000000000D+00
348  3.4700000000000D+00  0.0000000000000D+00  0.0000000000000D+00
349  3.4800000000000D+00  0.0000000000000D+00  0.0000000000000D+00
350  3.4900000000000D+00  0.0000000000000D+00  0.0000000000000D+00
351  3.5000000000000D+00  0.0000000000000D+00  0.0000000000000D+00
352  3.5100000000000D+00  0.0000000000000D+00  0.0000000000000D+00
353  3.5200000000000D+00  0.0000000000000D+00  0.0000000000000D+00
354  3.5300000000000D+00  0.0000000000000D+00  0.0000000000000D+00
355  3.5400000000000D+00  0.0000000000000D+00  0.0000000000000D+00
356  3.5500000000000D+00  0.0000000000000D+00  0.0000000000000D+00
357  3.5600000000000D+00  0.0000000000000D+00  0.0000000000000D+00
358  3.5700000000000D+00  0.0000000000000D+00  0.0000000000000D+00
359  3.5800000000000D+00  0.0000000000000D+00  0.0000000000000D+00
360  3.5900000000000D+00  0.0000000000000D+00  0.0000000000000D+00
361  3.6000000000000D+00  0.0000000000000D+00  0.0000000000000D+00
362  3.6100000000000D+00  0.0000000000000D+00  0.0000000000000D+00
363  3.6200000000000D+00  0.0000000000000D+00  0.0000000000000D+00
364  3.6300000000000D+00  0.0000000000000D+00  0.0000000000000D+00
365  3.6400000000000D+00  0.0000000000000D+00  0.0000000000000D+00
366  3.6500000000000D+00  0.0000000000000D+00  0.0000000000000D+00
367  3.6600000000000D+00  0.0000000000000D+00  0.0000000000000D+00
368  3.6700000000000D+00  0.0000000000000D+00  0.0000000000000D+00
369  3.6800000000000D+00  0.0000000000000D+00  0.0000000000000D+00
370  3.6900000000000D+00  0.0000000000000D+00  0.0000000000000D+00
371  3.7000000000000D+00  0.0000000000000D+00  0.0000000000000D+00
372  3.7100000000000D+00  0.0000000000000D+00  0.0000000000000D+00
373  3.7200000000000D+00  0.0000000000000D+00  0.0000000000000D+00
374  3.7300000000000D+00  0.0000000000000D+00  0.0000000000000D+00
375  3.7400000000000D+00  0.0000000000000D+00  0.0000000000000D+00
376  3.7500000000000D+00  0.0000000000000D+00  0.0000000000000D+00
377  3.7600000000000D+00  0.0000000000000D+00  0.0000000000000D+00
378  3.7700000000000D+00  0.0000000000000D+00  0.0000000000000D+00
379  3.7800000000000D+00  0.0000000000000D+00  0.0000000000000D+00
380  3.7900000000000D+00  0.0000000000000D+00  0.0000000000000D+00
381  3.8000000000000D+00  0.0000000000000D+00  0.0000000000000D+00
382  3.8100000000000D+00  0.0000000000000D+00  0.0000000000000D+00
383  3.8200000000000D+00  0.0000000000000D+00  0.0000000000000D+00
384  3.8300000000000D+00  0.0000000000000D+00  0.0000000000000D+00
385  3.8400000000000D+00  0.0000000000000D+00  0.0000000000000D+00
386  3.8500000000000D+00  0.0000000000000D+00  0.0000000000000D+00
387  3.8600000000000D+00  0.0000000000000D+00  0.0000000000000D+00
388  3.8700000000000D+00  0.0000000000000D+00  0.0000000000000D+00
389  3.8800000000000D+00  0.0000000000000D+00  0.0000000000000D+00
390  3.8900000000000D+00  0.0000000000000D+00  0.0000000000000D+00
391  3.9000000000000D+00  0.0000000000000D+00  0.0000000000000D+00
392  3.9100000000000D+00  0.0000000000000D+00  0.0000000000000D+00
393  3.9200000000000D+00  0.0000000000000D+00  0.0000000000000D+00
394  3.9300000000000D+00  0.0000000000000D+00  0.0000000000000D+00
395  3.9400000000000D+00  0.0000000000000D+00  0.0000000000000D+00
396  3.9500000000000D+00  0.0000000000000D+00  0.0000000000000D+00
397  3.9600000000000D+00  0.0000000000000D+00  0.0000000000000D+00
398  3.9700000000000D+00  0.0000000000000D+00  0.0000000000000D+00
399  3.9800000000000D+00  0.0000000000000D+00  0.0000000000000D+00
400  3.9900000000000D+00  0.0000000000000D+00  0.0000000000000D+00
401  4.0000000000000D+00  0.0000000000000D+00  0.0000000000000D+00
402  4.0100000000000D+00  0.0000000000000D+00  0.0000000000000D+00
403  4.0200000000000D+00  0.0000000000000D+00  0.0000000000000D+00
404  4.0300000000000D+00  0.0000000000000D+00  0.0000000000000D+00
405  4.0400000000000D+00  0.0000000000000D+00  0.0000000000000D+00
406  4.0500000000000D+00  0.0000000000000D+00  0.0000000000000D+00
407  4.0600000000000D+00  0.0000000000000D+00  0.0000000000000D+00
408  4.0700000000000D+00  0.0000000000000D+00  0.0000000000000D+00
409  4.0800000000000D+00  0.0000000000000D+00  0.0000000000000D+00
410  4.0900000000000D+00  0.0000000000000D+00  0.0000000000000D+00
411  4.1000000000000D+00  0.0000000000000D+00  0.0000000000000D+00
412  4.1100000000000D+00  0.0000000000000D+00  0.0000000000000D+00
413  4.1200000000000D+00  0.0000000000000D+00  0.0000000000000D+00
414  4.1300000000000D+00  0.0000000000000D+00  0.0000000000000D+00
415  4.1400000000000D+00  0.0000000000000D+00  0.0000000000000D+00
416  4.1500000000000D+00  0.0000000000000D+00  0.0000000000000D+00
417  4.1600000000000D+00  0.0000000000000D+00  0.0000000000000D+00
418  4.1700000000000D+00  0.0000000000000D+00  0.0000000000000D+00
419  4.1800000000000D+00  0.0000000000000D+00  0.0000000000000D+00
420  4.1900000000000D+00  0.0000000000000D+00  0.0000000000000D+00
421  4.2000000000000D+00  0.0000000000000D+00  0.0000000000000D+00
422  4.2100000000000D+00  0.0000000000000D+00  0.0000000000000D+00
423  4.2200000000000D+00  0.0000000000000D+00  0.0000000000000D+00
424  4.2300000000000D+00  0.0000000000000D+00  0.0000000000000D+00
425  4.2400000000000D+00  0.0000000000000D+00  0.0000000000000D+00
426  4.2500000000000D+00  0.0000000000000D+00  0.0000000000000D+00
427  4.2600000000000D+00  0.0000000000000D+00  0.0000000000000D+00
428  4.2700000000000D+00  0.0000000000000D+00  0.0000000000000D+00
429  4.2800000000000D+00  0.0000000000000D+00  0.0000000000000D+00
430  4.2900000000000D+00  0.0000000000000D+00  0.0000000000000D+00
431  4.3000000000000D+00  0.0000000000000D+00  0.0000000000000D+00
432  4.3100000000000D+00  0.0000000000000D+00  0.0000000000000D+00
433  4.3200000000000D+00  0.0000000000000D+00  0.0000000000000D+00
434  4.3300000000000D+00  0.0000000000000D+00  0.0000000000000D+00
435  4.3400000000000D+00  0.0000000000000D+00  0.0000000000000D+00
436  4.3500000000000D+00  0.0000000000000D+00  0.0000000000000D+00
437  4.3600000000000D+00  0.0000000000000D+00  0.0000000000000D+00
438  4.3700000000000D+00  0.0000000000000D+00  0.0000000000000D+00
439  4.3800000000000D+00  0.0000000000000D+00  0.0000000000000D+00
440  4.3900000000000D+00  0.0000000000000D+00  0.0000000000000D+00
441  4.4000000000000D+00  0.0000000000000D+00  0.0000000000000D+00
442  4.4100000000000D+00  0.0000000000000D+00  0.0000000000000D+00
443  4.4200000000000D+00  0.0000000000000D+00  0.0000000000000D+00
444  4.4300000000000D+00  0.0000000000000D+00  0.0000000000000D+00