I     ONCVPSP  r_core=  1.86  2.02  2.22
53.0000      7.0000      140821    zatom,zion,pspd
8    11     2     4   601     0    pspcod,pspxc,lmax,lloc,mmax,r2well
6.00000000  0.40000000  0.00000000    rchrg fchrg qchrg
2     2     2     0     0    nproj
0                 extension_switch
0                         6.8318288150823D+00  9.1452117061625D-01
1  0.0000000000000D+00 -0.0000000000000D+00 -0.0000000000000D+00
2  1.0000000000000D-02 -4.3416158371617D-02 -4.4075115253226D-02
3  2.0000000000000D-02 -8.6715430882135D-02 -8.8002109994800D-02
4  3.0000000000000D-02 -1.2978152992673D-01 -1.3163350260536D-01
5  4.0000000000000D-02 -1.7249936114574D-01 -1.7482308610016D-01
6  5.0000000000000D-02 -2.1475561189596D-01 -2.1742655758690D-01
7  6.0000000000000D-02 -2.5643932998802D-01 -2.5930213833519D-01
8  7.0000000000000D-02 -2.9744248952625D-01 -3.0031118140116D-01
9  8.0000000000000D-02 -3.3766054075064D-01 -3.4031876380740D-01
10  9.0000000000000D-02 -3.7699294087666D-01 -3.7919426036702D-01
11  1.0000000000000D-01 -4.1534366300600D-01 -4.1681189630644D-01
12  1.1000000000000D-01 -4.5262168032038D-01 -4.5305127597116D-01
13  1.2000000000000D-01 -4.8874142289270D-01 -4.8779788500844D-01
14  1.3000000000000D-01 -5.2362320462898D-01 -5.2094356358943D-01
15  1.4000000000000D-01 -5.5719361780691D-01 -5.5238694814959D-01
16  1.5000000000000D-01 -5.8938589339386D-01 -5.8203387988629D-01
17  1.6000000000000D-01 -6.2014022454344D-01 -6.0979777734337D-01
18  1.7000000000000D-01 -6.4940405225593D-01 -6.3559997214936D-01
19  1.8000000000000D-01 -6.7713231066776D-01 -6.5937000521816D-01
20  1.9000000000000D-01 -7.0328763134213D-01 -6.8104588283248D-01
21  2.0000000000000D-01 -7.2784050499033D-01 -7.0057429091525D-01
22  2.1000000000000D-01 -7.5076939974427D-01 -7.1791076652649D-01
23  2.2000000000000D-01 -7.7206083540867D-01 -7.3301982594957D-01
24  2.3000000000000D-01 -7.9170941279021D-01 -7.4587504820214D-01
25  2.4000000000000D-01 -8.0971779855680D-01 -7.5645911450173D-01
26  2.5000000000000D-01 -8.2609666496957D-01 -7.6476380271856D-01
27  2.6000000000000D-01 -8.4086458500265D-01 -7.7078993701158D-01
28  2.7000000000000D-01 -8.5404788359323D-01 -7.7454729360190D-01
29  2.8000000000000D-01 -8.6568044521091D-01 -7.7605446241867D-01
30  2.9000000000000D-01 -8.7580347923319D-01 -7.7533866567687D-01
31  3.0000000000000D-01 -8.8446524401037D-01 -7.7243553449170D-01
32  3.1000000000000D-01 -8.9172073172097D-01 -7.6738884494054D-01
33  3.2000000000000D-01 -8.9763131425412D-01 -7.6025021411939D-01
34  3.3000000000000D-01 -9.0226435182794D-01 -7.5107875734734D-01
35  3.4000000000000D-01 -9.0569277401187D-01 -7.3994071465683D-01
36  3.5000000000000D-01 -9.0799461500561D-01 -7.2690903211868D-01
37  3.6000000000000D-01 -9.0925254170502D-01 -7.1206292956751D-01
38  3.7000000000000D-01 -9.0955332480147D-01 -6.9548741357688D-01
39  3.8000000000000D-01 -9.0898731648980D-01 -6.7727278942991D-01
40  3.9000000000000D-01 -9.0764789228975D-01 -6.5751413647919D-01
41  4.0000000000000D-01 -9.0563086904707D-01 -6.3631075659328D-01
42  4.1000000000000D-01 -9.0303391847549D-01 -6.1376561326081D-01
43  4.2000000000000D-01 -8.9995596878611D-01 -5.8998475507193D-01
44  4.3000000000000D-01 -8.9649659372448D-01 -5.6507672286938D-01
45  4.4000000000000D-01 -8.9275539858174D-01 -5.3915194933820D-01
46  4.5000000000000D-01 -8.8883140506998D-01 -5.1232215290228D-01
47  4.6000000000000D-01 -8.8482244300183D-01 -4.8469973351365D-01
48  4.7000000000000D-01 -8.8082454287588D-01 -4.5639716482531D-01
49  4.8000000000000D-01 -8.7693131868181D-01 -4.2752637204718D-01
50  4.9000000000000D-01 -8.7323340335541D-01 -3.9819815570119D-01
51  5.0000000000000D-01 -8.6981788390823D-01 -3.6852161087598D-01
52  5.1000000000000D-01 -8.6676776350790D-01 -3.3860356832612D-01
53  5.2000000000000D-01 -8.6416135391599D-01 -3.0854796095720D-01
54  5.3000000000000D-01 -8.6207189224112D-01 -2.7845540720487D-01
55  5.4000000000000D-01 -8.6056699778916D-01 -2.4842263181631D-01
56  5.5000000000000D-01 -8.5970820366786D-01 -2.1854195325866D-01
57  5.6000000000000D-01 -8.5955068254008D-01 -1.8890096433506D-01
58  5.7000000000000D-01 -8.6014265970406D-01 -1.5958188669518D-01
59  5.8000000000000D-01 -8.6152534928852D-01 -1.3066145692089D-01
60  5.9000000000000D-01 -8.6373238997295D-01 -1.0221028821181D-01
61  6.0000000000000D-01 -8.6678983441422D-01 -7.4292802689445D-02
62  6.1000000000000D-01 -8.7071580533622D-01 -4.6966807026321D-02
63  6.2000000000000D-01 -8.7552034282834D-01 -2.0283260884668D-02
64  6.3000000000000D-01 -8.8120546146544D-01  5.7137306990126D-03
65  6.4000000000000D-01 -8.8776481548035D-01  3.0987366954722D-02
66  6.5000000000000D-01 -8.9518390041987D-01  5.5508017087955D-02
67  6.6000000000000D-01 -9.0344008967598D-01  7.9253270350727D-02
68  6.7000000000000D-01 -9.1250257458297D-01  1.0220811901191D-01
69  6.8000000000000D-01 -9.2233260799231D-01  1.2436479715682D-01
70  6.9000000000000D-01 -9.3288369302456D-01  1.4572269015383D-01
71  7.0000000000000D-01 -9.4410181536556D-01  1.6628819873238D-01
72  7.1000000000000D-01 -9.5592566146420D-01  1.8607465363792D-01
73  7.2000000000000D-01 -9.6828699578582D-01  2.0510203022933D-01
74  7.3000000000000D-01 -9.8111103432528D-01  2.2339667685652D-01
75  7.4000000000000D-01 -9.9431684483643D-01  2.4099102822822D-01
76  7.5000000000000D-01 -1.0078177979348D+00  2.5792326380311D-01
77  7.6000000000000D-01 -1.0215220515447D+00  2.7423692822432D-01
78  7.7000000000000D-01 -1.0353330733044D+00  2.8998052226536D-01
79  7.8000000000000D-01 -1.0491502245917D+00  3.0520704368810D-01
80  7.9000000000000D-01 -1.0628693201786D+00  3.1997350909499D-01
81  8.0000000000000D-01 -1.0763832463101D+00  3.3434045175551D-01
82  8.1000000000000D-01 -1.0895825948682D+00  3.4837139191724D-01
83  8.2000000000000D-01 -1.1023563166008D+00  3.6213228604451D-01
84  8.3000000000000D-01 -1.1145923897006D+00  3.7569095839471D-01
85  8.4000000000000D-01 -1.1261784999163D+00  3.8911651845956D-01
86  8.5000000000000D-01 -1.1370027282958D+00  4.0247876789963D-01
87  8.6000000000000D-01 -1.1469542425846D+00  4.1584760068729D-01
88  8.7000000000000D-01 -1.1559239882507D+00  4.2929240024679D-01
89  8.8000000000000D-01 -1.1638053750591D+00  4.4288143743914D-01
90  8.9000000000000D-01 -1.1704949550926D+00  4.5668127328597D-01
91  9.0000000000000D-01 -1.1758930881003D+00  4.7075617035558D-01
92  9.1000000000000D-01 -1.1799045900651D+00  4.8516751674339D-01
93  9.2000000000000D-01 -1.1824393609161D+00  4.9997326656408D-01
94  9.3000000000000D-01 -1.1834128981686D+00  5.1522747341996D-01
95  9.4000000000000D-01 -1.1827470016680D+00  5.3097967094877D-01
96  9.5000000000000D-01 -1.1803704362151D+00  5.4727428413296D-01
97  9.6000000000000D-01 -1.1762191947610D+00  5.6415037049408D-01
98  9.7000000000000D-01 -1.1702370643841D+00  5.8164111793053D-01
99  9.8000000000000D-01 -1.1623760536974D+00  5.9977345779163D-01
100  9.9000000000000D-01 -1.1525967745090D+00  6.1856771884061D-01
101  1.0000000000000D+00 -1.1408687752066D+00  6.3803732466449D-01
102  1.0100000000000D+00 -1.1271704681072D+00  6.5818883540555D-01
103  1.0200000000000D+00 -1.1114903452463D+00  6.7902091160869D-01
104  1.0300000000000D+00 -1.0938264950009D+00  7.0052470568864D-01
105  1.0400000000000D+00 -1.0741866764129D+00  7.2268379353316D-01
106  1.0500000000000D+00 -1.0525884976419D+00  7.4547402228141D-01
107  1.0600000000000D+00 -1.0290592100809D+00  7.6886368490591D-01
108  1.0700000000000D+00 -1.0036360094769D+00  7.9281327183958D-01
109  1.0800000000000D+00 -9.7636647621392D-01  8.1727511746500D-01
110  1.0900000000000D+00 -9.4730738251804D-01  8.4219441944478D-01
111  1.1000000000000D+00 -9.1652485625654D-01  8.6750912400561D-01
112  1.1100000000000D+00 -8.8409367440908D-01  8.9315053028480D-01
113  1.1200000000000D+00 -8.5009852150257D-01  9.1904230288988D-01
114  1.1300000000000D+00 -8.1463210369081D-01  9.4510207779005D-01
115  1.1400000000000D+00 -7.7779502012755D-01  9.7124161273684D-01
116  1.1500000000000D+00 -7.3969515671545D-01  9.9736729666917D-01
117  1.1600000000000D+00 -7.0044827319403D-01  1.0233798337416D+00
118  1.1700000000000D+00 -6.6017616084315D-01  1.0491757655691D+00
119  1.1800000000000D+00 -6.1900642027058D-01  1.0746476973938D+00
120  1.1900000000000D+00 -5.7707218795601D-01  1.0996845930341D+00
121  1.2000000000000D+00 -5.3451106228150D-01  1.1241729148307D+00
122  1.2100000000000D+00 -4.9146435538045D-01  1.1479971382685D+00
123  1.2200000000000D+00 -4.4807725037706D-01  1.1710395798658D+00
124  1.2300000000000D+00 -4.0449648728304D-01  1.1931828746218D+00
125  1.2400000000000D+00 -3.6087048918177D-01  1.2143095767737D+00
126  1.2500000000000D+00 -3.1734975489255D-01  1.2343017731446D+00
127  1.2600000000000D+00 -2.7408345675588D-01  1.2530445442997D+00
128  1.2700000000000D+00 -2.3121990723751D-01  1.2704253288971D+00
129  1.2800000000000D+00 -1.8890805667090D-01  1.2863324250681D+00
130  1.2900000000000D+00 -1.4729206088805D-01  1.3006603846210D+00
131  1.3000000000000D+00 -1.0651304478931D-01  1.3133081401027D+00
132  1.3100000000000D+00 -6.6711812700129D-02  1.3241763593556D+00
133  1.3200000000000D+00 -2.8019577922213D-02  1.3331764892653D+00
134  1.3300000000000D+00  9.4356577961036D-03  1.3402244288067D+00
135  1.3400000000000D+00  4.5528823611512D-02  1.3452403032542D+00
136  1.3500000000000D+00  8.0148066251472D-02  1.3481583312498D+00
137  1.3600000000000D+00  1.1318330020829D-01  1.3489157378191D+00
138  1.3700000000000D+00  1.4453398759839D-01  1.3474602491538D+00
139  1.3800000000000D+00  1.7411144478708D-01  1.3437521750446D+00
140  1.3900000000000D+00  2.0182805265858D-01  1.3377541676579D+00
141  1.4000000000000D+00  2.2761510945459D-01  1.3294480865507D+00
142  1.4100000000000D+00  2.5140773451740D-01  1.3188206410551D+00
143  1.4200000000000D+00  2.7315125668409D-01  1.3058694633208D+00
144  1.4300000000000D+00  2.9280722577797D-01  1.2906085431046D+00
145  1.4400000000000D+00  3.1033738715378D-01  1.2730533898998D+00
146  1.4500000000000D+00  3.2572679585467D-01  1.2532422834969D+00
147  1.4600000000000D+00  3.3896192633298D-01  1.2312160399692D+00
148  1.4700000000000D+00  3.5004467651378D-01  1.2070308676479D+00
149  1.4800000000000D+00  3.5898869241280D-01  1.1807547368076D+00
150  1.4900000000000D+00  3.6581301441919D-01  1.1524618720099D+00
151  1.5000000000000D+00  3.7055691415427D-01  1.1222455100238D+00
152  1.5100000000000D+00  3.7325838553141D-01  1.0901992277080D+00
153  1.5200000000000D+00  3.7397798374505D-01  1.0564372066991D+00
154  1.5300000000000D+00  3.7277614200270D-01  1.0210748619161D+00
155  1.5400000000000D+00  3.6972974118402D-01  9.8424262325970D-01
156  1.5500000000000D+00  3.6492080643031D-01  9.4607626402594D-01
157  1.5600000000000D+00  3.5844158579738D-01  9.0672121397751D-01
158  1.5700000000000D+00  3.5039271014031D-01  8.6633017531818D-01
159  1.5800000000000D+00  3.4088067010238D-01  8.2506211287982D-01
160  1.5900000000000D+00  3.3002116513923D-01  7.8308269659528D-01
161  1.6000000000000D+00  3.1793348850039D-01  7.4056260303251D-01
162  1.6100000000000D+00  3.0474454489795D-01  6.9767619676662D-01
163  1.6200000000000D+00  2.9058459039908D-01  6.5460360711005D-01
164  1.6300000000000D+00  2.7558772497884D-01  6.1152348433490D-01
165  1.6400000000000D+00  2.5989290032795D-01  5.6862269434067D-01
166  1.6500000000000D+00  2.4363755790167D-01  5.2608004177013D-01
167  1.6600000000000D+00  2.2696618661394D-01  4.8408516101970D-01
168  1.6700000000000D+00  2.1001620610642D-01  4.4281356396339D-01
169  1.6800000000000D+00  1.9293426592682D-01  4.0245379048822D-01
170  1.6900000000000D+00  1.7585416524703D-01  3.6317391460874D-01
171  1.7000000000000D+00  1.5892156255230D-01  3.2515793274901D-01
172  1.7100000000000D+00  1.4226277734875D-01  2.8856202219655D-01
173  1.7200000000000D+00  1.2601965801874D-01  2.5356256307527D-01
174  1.7300000000000D+00  1.1030726751564D-01  2.2029949787723D-01
175  1.7400000000000D+00  9.5260468403369D-02  1.8893798270517D-01
176  1.7500000000000D+00  8.0980658243114D-02  1.5959911235880D-01
177  1.7600000000000D+00  6.7590673231113D-02  1.3243081290762D-01
178  1.7700000000000D+00  5.5177758684030D-02  1.0753503680084D-01
179  1.7800000000000D+00  4.3847991502087D-02  8.5036906456953D-02
180  1.7900000000000D+00  3.3673731702053D-02  6.5018450974012D-02
181  1.8000000000000D+00  2.4739857352877D-02  4.7576758141453D-02
182  1.8100000000000D+00  1.7103797485517D-02  3.2773928827036D-02
183  1.8200000000000D+00  1.0824990662238D-02  2.0673938813327D-02
184  1.8300000000000D+00  5.9463812024017D-03  1.1319519398999D-02
185  1.8400000000000D+00  2.5855100451564D-03  4.9016621377265D-03
186  1.8500000000000D+00  7.2890735579269D-04  1.3641905548061D-03
187  1.8600000000000D+00 -1.0645542309743D-04 -2.1618538289524D-04
188  1.8700000000000D+00 -2.4865158199477D-04 -4.8040502060539D-04
189  1.8800000000000D+00 -2.5587066404815D-05 -4.9196732621341D-05
190  1.8900000000000D+00  2.4499766441165D-06  5.6190848205783D-06
191  1.9000000000000D+00  9.5647513603107D-07  2.1937004709981D-06
192  1.9100000000000D+00  0.0000000000000D+00  0.0000000000000D+00
193  1.9200000000000D+00  0.0000000000000D+00  0.0000000000000D+00
194  1.9300000000000D+00  0.0000000000000D+00  0.0000000000000D+00
195  1.9400000000000D+00  0.0000000000000D+00  0.0000000000000D+00
196  1.9500000000000D+00  0.0000000000000D+00  0.0000000000000D+00
197  1.9600000000000D+00  0.0000000000000D+00  0.0000000000000D+00
198  1.9700000000000D+00  0.0000000000000D+00  0.0000000000000D+00
199  1.9800000000000D+00  0.0000000000000D+00  0.0000000000000D+00
200  1.9900000000000D+00  0.0000000000000D+00  0.0000000000000D+00
201  2.0000000000000D+00  0.0000000000000D+00  0.0000000000000D+00
202  2.0100000000000D+00  0.0000000000000D+00  0.0000000000000D+00
203  2.0200000000000D+00  0.0000000000000D+00  0.0000000000000D+00
204  2.0300000000000D+00  0.0000000000000D+00  0.0000000000000D+00
205  2.0400000000000D+00  0.0000000000000D+00  0.0000000000000D+00
206  2.0500000000000D+00  0.0000000000000D+00  0.0000000000000D+00
207  2.0600000000000D+00  0.0000000000000D+00  0.0000000000000D+00
208  2.0700000000000D+00  0.0000000000000D+00  0.0000000000000D+00
209  2.0800000000000D+00  0.0000000000000D+00  0.0000000000000D+00
210  2.0900000000000D+00  0.0000000000000D+00  0.0000000000000D+00
211  2.1000000000000D+00  0.0000000000000D+00  0.0000000000000D+00
212  2.1100000000000D+00  0.0000000000000D+00  0.0000000000000D+00
213  2.1200000000000D+00  0.0000000000000D+00  0.0000000000000D+00
214  2.1300000000000D+00  0.0000000000000D+00  0.0000000000000D+00
215  2.1400000000000D+00  0.0000000000000D+00  0.0000000000000D+00
216  2.1500000000000D+00  0.0000000000000D+00  0.0000000000000D+00
217  2.1600000000000D+00  0.0000000000000D+00  0.0000000000000D+00
218  2.1700000000000D+00  0.0000000000000D+00  0.0000000000000D+00
219  2.1800000000000D+00  0.0000000000000D+00  0.0000000000000D+00
220  2.1900000000000D+00  0.0000000000000D+00  0.0000000000000D+00
221  2.2000000000000D+00  0.0000000000000D+00  0.0000000000000D+00
222  2.2100000000000D+00  0.0000000000000D+00  0.0000000000000D+00
223  2.2200000000000D+00  0.0000000000000D+00  0.0000000000000D+00
224  2.2300000000000D+00  0.0000000000000D+00  0.0000000000000D+00
225  2.2400000000000D+00  0.0000000000000D+00  0.0000000000000D+00
226  2.2500000000000D+00  0.0000000000000D+00  0.0000000000000D+00
227  2.2600000000000D+00  0.0000000000000D+00  0.0000000000000D+00
228  2.2700000000000D+00  0.0000000000000D+00  0.0000000000000D+00
229  2.2800000000000D+00  0.0000000000000D+00  0.0000000000000D+00
230  2.2900000000000D+00  0.0000000000000D+00  0.0000000000000D+00
231  2.3000000000000D+00  0.0000000000000D+00  0.0000000000000D+00
232  2.3100000000000D+00  0.0000000000000D+00  0.0000000000000D+00
233  2.3200000000000D+00  0.0000000000000D+00  0.0000000000000D+00
234  2.3300000000000D+00  0.0000000000000D+00  0.0000000000000D+00
235  2.3400000000000D+00  0.0000000000000D+00  0.0000000000000D+00
236  2.3500000000000D+00  0.0000000000000D+00  0.0000000000000D+00
237  2.3600000000000D+00  0.0000000000000D+00  0.0000000000000D+00
238  2.3700000000000D+00  0.0000000000000D+00  0.0000000000000D+00
239  2.3800000000000D+00  0.0000000000000D+00  0.0000000000000D+00
240  2.3900000000000D+00  0.0000000000000D+00  0.0000000000000D+00
241  2.4000000000000D+00  0.0000000000000D+00  0.0000000000000D+00
242  2.4100000000000D+00  0.0000000000000D+00  0.0000000000000D+00
243  2.4200000000000D+00  0.0000000000000D+00  0.0000000000000D+00
244  2.4300000000000D+00  0.0000000000000D+00  0.0000000000000D+00
245  2.4400000000000D+00  0.0000000000000D+00  0.0000000000000D+00
246  2.4500000000000D+00  0.0000000000000D+00  0.0000000000000D+00
247  2.4600000000000D+00  0.0000000000000D+00  0.0000000000000D+00
248  2.4700000000000D+00  0.0000000000000D+00  0.0000000000000D+00
249  2.4800000000000D+00  0.0000000000000D+00  0.0000000000000D+00
250  2.4900000000000D+00  0.0000000000000D+00  0.0000000000000D+00
251  2.5000000000000D+00  0.0000000000000D+00  0.0000000000000D+00
252  2.5100000000000D+00  0.0000000000000D+00  0.0000000000000D+00
253  2.5200000000000D+00  0.0000000000000D+00  0.0000000000000D+00
254  2.5300000000000D+00  0.0000000000000D+00  0.0000000000000D+00
255  2.5400000000000D+00  0.0000000000000D+00  0.0000000000000D+00
256  2.5500000000000D+00  0.0000000000000D+00  0.0000000000000D+00
257  2.5600000000000D+00  0.0000000000000D+00  0.0000000000000D+00
258  2.5700000000000D+00  0.0000000000000D+00  0.0000000000000D+00
259  2.5800000000000D+00  0.0000000000000D+00  0.0000000000000D+00
260  2.5900000000000D+00  0.0000000000000D+00  0.0000000000000D+00
261  2.6000000000000D+00  0.0000000000000D+00  0.0000000000000D+00
262  2.6100000000000D+00  0.0000000000000D+00  0.0000000000000D+00
263  2.6200000000000D+00  0.0000000000000D+00  0.0000000000000D+00
264  2.6300000000000D+00  0.0000000000000D+00  0.0000000000000D+00
265  2.6400000000000D+00  0.0000000000000D+00  0.0000000000000D+00
266  2.6500000000000D+00  0.0000000000000D+00  0.0000000000000D+00
267  2.6600000000000D+00  0.0000000000000D+00  0.0000000000000D+00
268  2.6700000000000D+00  0.0000000000000D+00  0.0000000000000D+00
269  2.6800000000000D+00  0.0000000000000D+00  0.0000000000000D+00
270  2.6900000000000D+00  0.0000000000000D+00  0.0000000000000D+00
271  2.7000000000000D+00  0.0000000000000D+00  0.0000000000000D+00
272  2.7100000000000D+00  0.0000000000000D+00  0.0000000000000D+00
273  2.7200000000000D+00  0.0000000000000D+00  0.0000000000000D+00
274  2.7300000000000D+00  0.0000000000000D+00  0.0000000000000D+00
275  2.7400000000000D+00  0.0000000000000D+00  0.0000000000000D+00
276  2.7500000000000D+00  0.0000000000000D+00  0.0000000000000D+00
277  2.7600000000000D+00  0.0000000000000D+00  0.0000000000000D+00
278  2.7700000000000D+00  0.0000000000000D+00  0.0000000000000D+00
279  2.7800000000000D+00  0.0000000000000D+00  0.0000000000000D+00
280  2.7900000000000D+00  0.0000000000000D+00  0.0000000000000D+00
281  2.8000000000000D+00  0.0000000000000D+00  0.0000000000000D+00
282  2.8100000000000D+00  0.0000000000000D+00  0.0000000000000D+00
283  2.8200000000000D+00  0.0000000000000D+00  0.0000000000000D+00
284  2.8300000000000D+00  0.0000000000000D+00  0.0000000000000D+00
285  2.8400000000000D+00  0.0000000000000D+00  0.0000000000000D+00
286  2.8500000000000D+00  0.0000000000000D+00  0.0000000000000D+00
287  2.8600000000000D+00  0.0000000000000D+00  0.0000000000000D+00
288  2.8700000000000D+00  0.0000000000000D+00  0.0000000000000D+00
289  2.8800000000000D+00  0.0000000000000D+00  0.0000000000000D+00
290  2.8900000000000D+00  0.0000000000000D+00  0.0000000000000D+00
291  2.9000000000000D+00  0.0000000000000D+00  0.0000000000000D+00
292  2.9100000000000D+00  0.0000000000000D+00  0.0000000000000D+00
293  2.9200000000000D+00  0.0000000000000D+00  0.0000000000000D+00
294  2.9300000000000D+00  0.0000000000000D+00  0.0000000000000D+00
295  2.9400000000000D+00  0.0000000000000D+00  0.0000000000000D+00
296  2.9500000000000D+00  0.0000000000000D+00  0.0000000000000D+00
297  2.9600000000000D+00  0.0000000000000D+00  0.0000000000000D+00
298  2.9700000000000D+00  0.0000000000000D+00  0.0000000000000D+00
299  2.9800000000000D+00  0.0000000000000D+00  0.0000000000000D+00
300  2.9900000000000D+00  0.0000000000000D+00  0.0000000000000D+00
301  3.0000000000000D+00  0.0000000000000D+00  0.0000000000000D+00
302  3.0100000000000D+00  0.0000000000000D+00  0.0000000000000D+00
303  3.0200000000000D+00  0.0000000000000D+00  0.0000000000000D+00
304  3.0300000000000D+00  0.0000000000000D+00  0.0000000000000D+00
305  3.0400000000000D+00  0.0000000000000D+00  0.0000000000000D+00
306  3.0500000000000D+00  0.0000000000000D+00  0.0000000000000D+00
307  3.0600000000000D+00  0.0000000000000D+00  0.0000000000000D+00
308  3.0700000000000D+00  0.0000000000000D+00  0.0000000000000D+00
309  3.0800000000000D+00  0.0000000000000D+00  0.0000000000000D+00
310  3.0900000000000D+00  0.0000000000000D+00  0.0000000000000D+00
311  3.1000000000000D+00  0.0000000000000D+00  0.0000000000000D+00
312  3.1100000000000D+00  0.0000000000000D+00  0.0000000000000D+00
313  3.1200000000000D+00  0.0000000000000D+00  0.0000000000000D+00
314  3.1300000000000D+00  0.0000000000000D+00  0.0000000000000D+00
315  3.1400000000000D+00  0.0000000000000D+00  0.0000000000000D+00
316  3.1500000000000D+00  0.0000000000000D+00  0.0000000000000D+00
317  3.1600000000000D+00  0.0000000000000D+00  0.0000000000000D+00
318  3.1700000000000D+00  0.0000000000000D+00  0.0000000000000D+00
319  3.1800000000000D+00  0.0000000000000D+00  0.0000000000000D+00
320  3.1900000000000D+00  0.0000000000000D+00  0.0000000000000D+00
321  3.2000000000000D+00  0.0000000000000D+00  0.0000000000000D+00
322  3.2100000000000D+00  0.0000000000000D+00  0.0000000000000D+00
323  3.2200000000000D+00  0.0000000000000D+00  0.0000000000000D+00
324  3.2300000000000D+00  0.0000000000000D+00  0.0000000000000D+00
325  3.2400000000000D+00  0.0000000000000D+00  0.0000000000000D+00
326  3.2500000000000D+00  0.0000000000000D+00  0.0000000000000D+00
327  3.2600000000000D+00  0.0000000000000D+00  0.0000000000000D+00
328  3.2700000000000D+00  0.0000000000000D+00  0.0000000000000D+00
329  3.2800000000000D+00  0.0000000000000D+00  0.0000000000000D+00
330  3.2900000000000D+00  0.0000000000000D+00  0.0000000000000D+00
331  3.3000000000000D+00  0.0000000000000D+00  0.0000000000000D+00
332  3.3100000000000D+00  0.0000000000000D+00  0.0000000000000D+00
333  3.3200000000000D+00  0.0000000000000D+00  0.0000000000000D+00
334  3.3300000000000D+00  0.0000000000000D+00  0.0000000000000D+00
335  3.3400000000000D+00  0.0000000000000D+00  0.0000000000000D+00
336  3.3500000000000D+00  0.0000000000000D+00  0.0000000000000D+00
337  3.3600000000000D+00  0.0000000000000D+00  0.0000000000000D+00
338  3.3700000000000D+00  0.0000000000000D+00  0.0000000000000D+00
339  3.3800000000000D+00  0.0000000000000D+00  0.0000000000000D+00
340  3.3900000000000D+00  0.0000000000000D+00  0.0000000000000D+00
341  3.4000000000000D+00  0.0000000000000D+00  0.0000000000000D+00
342  3.4100000000000D+00  0.0000000000000D+00  0.0000000000000D+00
343  3.4200000000000D+00  0.0000000000000D+00  0.0000000000000D+00
344  3.4300000000000D+00  0.0000000000000D+00  0.0000000000000D+00
345  3.4400000000000D+00  0.0000000000000D+00  0.0000000000000D+00
346  3.4500000000000D+00  0.0000000000000D+00  0.0000000000000D+00
347  3.4600000000000D+00  0.0000000000000D+00  0.0000000000000D+00
348  3.4700000000000D+00  0.0000000000000D+00  0.0000000000000D+00
349  3.4800000000000D+00  0.0000000000000D+00  0.0000000000000D+00
350  3.4900000000000D+00  0.0000000000000D+00  0.0000000000000D+00
351  3.5000000000000D+00  0.0000000000000D+00  0.0000000000000D+00
352  3.5100000000000D+00  0.0000000000000D+00  0.0000000000000D+00
353  3.5200000000000D+00  0.0000000000000D+00  0.0000000000000D+00
354  3.5300000000000D+00  0.0000000000000D+00  0.0000000000000D+00
355  3.5400000000000D+00  0.0000000000000D+00  0.0000000000000D+00
356  3.5500000000000D+00  0.0000000000000D+00  0.0000000000000D+00
357  3.5600000000000D+00  0.0000000000000D+00  0.0000000000000D+00
358  3.5700000000000D+00  0.0000000000000D+00  0.0000000000000D+00
359  3.5800000000000D+00  0.0000000000000D+00  0.0000000000000D+00
360  3.5900000000000D+00  0.0000000000000D+00  0.0000000000000D+00
361  3.6000000000000D+00  0.0000000000000D+00  0.0000000000000D+00
362  3.6100000000000D+00  0.0000000000000D+00  0.0000000000000D+00
363  3.6200000000000D+00  0.0000000000000D+00  0.0000000000000D+00
364  3.6300000000000D+00  0.0000000000000D+00  0.0000000000000D+00
365  3.6400000000000D+00  0.0000000000000D+00  0.0000000000000D+00
366  3.6500000000000D+00  0.0000000000000D+00  0.0000000000000D+00
367  3.6600000000000D+00  0.0000000000000D+00  0.0000000000000D+00
368  3.6700000000000D+00  0.0000000000000D+00  0.0000000000000D+00
369  3.6800000000000D+00  0.0000000000000D+00  0.0000000000000D+00
370  3.6900000000000D+00  0.0000000000000D+00  0.0000000000000D+00
371  3.7000000000000D+00  0.0000000000000D+00  0.0000000000000D+00
372  3.7100000000000D+00  0.0000000000000D+00  0.0000000000000D+00
373  3.7200000000000D+00  0.0000000000000D+00  0.0000000000000D+00
374  3.7300000000000D+00  0.0000000000000D+00  0.0000000000000D+00
375  3.7400000000000D+00  0.0000000000000D+00  0.0000000000000D+00
376  3.7500000000000D+00  0.0000000000000D+00  0.0000000000000D+00
377  3.7600000000000D+00  0.0000000000000D+00  0.0000000000000D+00
378  3.7700000000000D+00  0.0000000000000D+00  0.0000000000000D+00
379  3.7800000000000D+00  0.0000000000000D+00  0.0000000000000D+00
380  3.7900000000000D+00  0.0000000000000D+00  0.0000000000000D+00
381  3.8000000000000D+00  0.0000000000000D+00  0.0000000000000D+00
382  3.8100000000000D+00  0.0000000000000D+00  0.0000000000000D+00
383  3.8200000000000D+00  0.0000000000000D+00  0.0000000000000D+00
384  3.8300000000000D+00  0.0000000000000D+00  0.0000000000000D+00
385  3.8400000000000D+00  0.0000000000000D+00  0.0000000000000D+00
386  3.8500000000000D+00  0.0000000000000D+00  0.0000000000000D+00
387  3.8600000000000D+00  0.0000000000000D+00  0.0000000000000D+00
388  3.8700000000000D+00  0.0000000000000D+00  0.0000000000000D+00
389  3.8800000000000D+00  0.0000000000000D+00  0.0000000000000D+00
390  3.8900000000000D+00  0.0000000000000D+00  0.0000000000000D+00
391  3.9000000000000D+00  0.0000000000000D+00  0.0000000000000D+00
392  3.9100000000000D+00  0.0000000000000D+00  0.0000000000000D+00
393  3.9200000000000D+00  0.0000000000000D+00  0.0000000000000D+00
394  3.9300000000000D+00  0.0000000000000D+00  0.0000000000000D+00
395  3.9400000000000D+00  0.0000000000000D+00  0.0000000000000D+00
396  3.9500000000000D+00  0.0000000000000D+00  0.0000000000000D+00
397  3.9600000000000D+00  0.0000000000000D+00  0.0000000000000D+00
398  3.9700000000000D+00  0.0000000000000D+00  0.0000000000000D+00
399  3.9800000000000D+00  0.0000000000000D+00  0.0000000000000D+00
400  3.9900000000000D+00  0.0000000000000D+00  0.0000000000000D+00
401  4.0000000000000D+00  0.0000000000000D+00  0.0000000000000D+00
402  4.0100000000000D+00  0.0000000000000D+00  0.0000000000000D+00
403  4.0200000000000D+00  0.0000000000000D+00  0.0000000000000D+00
404  4.0300000000000D+00  0.0000000000000D+00  0.0000000000000D+00
405  4.0400000000000D+00  0.0000000000000D+00  0.0000000000000D+00
406  4.0500000000000D+00  0.0000000000000D+00  0.0000000000000D+00
407  4.0600000000000D+00  0.0000000000000D+00  0.0000000000000D+00
408  4.0700000000000D+00  0.0000000000000D+00  0.0000000000000D+00
409  4.0800000000000D+00  0.0000000000000D+00  0.0000000000000D+00
410  4.0900000000000D+00  0.0000000000000D+00  0.0000000000000D+00
411  4.1000000000000D+00  0.0000000000000D+00  0.0000000000000D+00
412  4.1100000000000D+00  0.0000000000000D+00  0.0000000000000D+00
413  4.1200000000000D+00  0.0000000000000D+00  0.0000000000000D+00
414  4.1300000000000D+00  0.0000000000000D+00  0.0000000000000D+00
415  4.1400000000000D+00  0.0000000000000D+00  0.0000000000000D+00
416  4.1500000000000D+00  0.0000000000000D+00  0.0000000000000D+00
417  4.1600000000000D+00  0.0000000000000D+00  0.0000000000000D+00
418  4.1700000000000D+00  0.0000000000000D+00  0.0000000000000D+00
419  4.1800000000000D+00  0.0000000000000D+00  0.0000000000000D+00
420  4.1900000000000D+00  0.0000000000000D+00  0.0000000000000D+00
421  4.2000000000000D+00  0.0000000000000D+00  0.0000000000000D+00
422  4.2100000000000D+00  0.0000000000000D+00  0.0000000000000D+00
423  4.2200000000000D+00  0.0000000000000D+00  0.0000000000000D+00
424  4.2300000000000D+00  0.0000000000000D+00  0.0000000000000D+00
425  4.2400000000000D+00  0.0000000000000D+00  0.0000000000000D+00
426  4.2500000000000D+00  0.0000000000000D+00  0.0000000000000D+00
427  4.2600000000000D+00  0.0000000000000D+00  0.0000000000000D+00
428  4.2700000000000D+00  0.0000000000000D+00  0.0000000000000D+00
429  4.2800000000000D+00  0.0000000000000D+00  0.0000000000000D+00
430  4.2900000000000D+00  0.0000000000000D+00  0.0000000000000D+00
431  4.3000000000000D+00  0.0000000000000D+00  0.0000000000000D+00
432  4.3100000000000D+00  0.0000000000000D+00  0.0000000000000D+00
433  4.3200000000000D+00  0.0000000000000D+00  0.0000000000000D+00
434  4.3300000000000D+00  0.0000000000000D+00  0.0000000000000D+00
435  4.3400000000000D+00  0.0000000000000D+00  0.0000000000000D+00
436  4.3500000000000D+00  0.0000000000000D+00  0.0000000000000D+00
437  4.3600000000000D+00  0.0000000000000D+00  0.0000000000000D+00
438  4.3700000000000D+00  0.0000000000000D+00  0.0000000000000D+00
439  4.3800000000000D+00  0.0000000000000D+00  0.0000000000000D+00
440  4.3900000000000D+00  0.0000000000000D+00  0.0000000000000D+00
441  4.4000000000000D+00  0.0000000000000D+00  0.0000000000000D+00
442  4.4100000000000D+00  0.0000000000000D+00  0.0000000000000D+00
443  4.4200000000000D+00  0.0000000000000D+00  0.0000000000000D+00
444  4.4300000000000D+00  0.0000000000000D+00  0.0000000000000D+00