I     ONCVPSP  r_core=  2.02  2.17  2.28
53.0000      7.0000      141211    zatom,zion,pspd
8    11     2     4   601     0    pspcod,pspxc,lmax,lloc,mmax,r2well
6.00000000  0.50000000  0.00000000    rchrg fchrg qchrg
2     2     2     0     0    nproj
0                 extension_switch
0                         5.8947560520309D+00  7.7712420366970D-01
1  0.0000000000000D+00 -0.0000000000000D+00  0.0000000000000D+00
2  1.0000000000000D-02 -2.2913633121901D-02  4.9473899144601D-03
3  2.0000000000000D-02 -4.5825627431056D-02  9.8206306192842D-03
4  3.0000000000000D-02 -6.8734319171903D-02  1.4545990862699D-02
5  4.0000000000000D-02 -9.1637994755217D-02  1.9050573350841D-02
6  5.0000000000000D-02 -1.1453486597127D-01  2.3262726840959D-02
7  6.0000000000000D-02 -1.3742304535904D-01  2.7112452395716D-02
8  7.0000000000000D-02 -1.6030052178381D-01  3.0531801893688D-02
9  8.0000000000000D-02 -1.8316513627538D-01  3.3455266922304D-02
10  9.0000000000000D-02 -2.0601455817945D-01  3.5820156230638D-02
11  1.0000000000000D-01 -2.2884626167527D-01  3.7566959954342D-02
12  1.1000000000000D-01 -2.5165750271244D-01  3.8639698900197D-02
13  1.2000000000000D-01 -2.7444529641992D-01  3.8986257238850D-02
14  1.3000000000000D-01 -2.9720639503911D-01  3.8558697053311D-02
15  1.4000000000000D-01 -3.1993726644355D-01  3.7313553120667D-02
16  1.5000000000000D-01 -3.4263407327990D-01  3.5212106793998D-02
17  1.6000000000000D-01 -3.6529265281618D-01  3.2220637229757D-02
18  1.7000000000000D-01 -3.8790849750746D-01  2.8310649347012D-02
19  1.8000000000000D-01 -4.1047673638646D-01  2.3459076709639D-02
20  1.9000000000000D-01 -4.3299211728995D-01  1.7648458917077D-02
21  2.0000000000000D-01 -4.5544898999871D-01  1.0867092321097D-02
22  2.1000000000000D-01 -4.7784129034286D-01  3.1091533551425D-03
23  2.2000000000000D-01 -5.0016252531364D-01 -5.6252060341631D-03
24  2.3000000000000D-01 -5.2240575928045D-01 -1.5329791762856D-02
25  2.4000000000000D-01 -5.4456360129753D-01 -2.5992329542344D-02
26  2.5000000000000D-01 -5.6662819360830D-01 -3.7594456187479D-02
27  2.6000000000000D-01 -5.8859120142914D-01 -5.0111740379741D-02
28  2.7000000000000D-01 -6.1044380396353D-01 -6.3513732368018D-02
29  2.8000000000000D-01 -6.3217668677408D-01 -7.7764043042321D-02
30  2.9000000000000D-01 -6.5378003560111D-01 -9.2820451957941D-02
31  3.0000000000000D-01 -6.7524353158059D-01 -1.0863504373255D-01
32  3.1000000000000D-01 -6.9655634800066D-01 -1.2515437223941D-01
33  3.2000000000000D-01 -7.1770714855284D-01 -1.4231965239556D-01
34  3.3000000000000D-01 -7.3868408720371D-01 -1.6006697914781D-01
35  3.4000000000000D-01 -7.5947480981442D-01 -1.7832756879660D-01
36  3.5000000000000D-01 -7.8006645720264D-01 -1.9702803181177D-01
37  3.6000000000000D-01 -8.0044567022862D-01 -2.1609065774455D-01
38  3.7000000000000D-01 -8.2059859638036D-01 -2.3543373835214D-01
39  3.8000000000000D-01 -8.4051089836606D-01 -2.5497189515206D-01
40  3.9000000000000D-01 -8.6016776439134D-01 -2.7461643418736D-01
41  4.0000000000000D-01 -8.7955392041178D-01 -2.9427572240860D-01
42  4.1000000000000D-01 -8.9865364424786D-01 -3.1385557439178D-01
43  4.2000000000000D-01 -9.1745078157210D-01 -3.3325965368444D-01
44  4.3000000000000D-01 -9.3592876387835D-01 -3.5238988964785D-01
45  4.4000000000000D-01 -9.5407062839338D-01 -3.7114690428658D-01
46  4.5000000000000D-01 -9.7185903994977D-01 -3.8943044810054D-01
47  4.6000000000000D-01 -9.8927631470185D-01 -4.0713984001794D-01
48  4.7000000000000D-01 -1.0063044458773D+00 -4.2417441550712D-01
49  4.8000000000000D-01 -1.0229251321207D+00 -4.4043399116273D-01
50  4.9000000000000D-01 -1.0391198066939D+00 -4.5581930347411D-01
51  5.0000000000000D-01 -1.0548696689014D+00 -4.7023245713580D-01
52  5.1000000000000D-01 -1.0701557169865D+00 -4.8357736438681D-01
53  5.2000000000000D-01 -1.0849587868750D+00 -4.9576024775494D-01
54  5.3000000000000D-01 -1.0992595847679D+00 -5.0668999111072D-01
55  5.4000000000000D-01 -1.1130387287843D+00 -5.1627861790758D-01
56  5.5000000000000D-01 -1.1262767917505D+00 -5.2444173180454D-01
57  5.6000000000000D-01 -1.1389543362934D+00 -5.3109881577318D-01
58  5.7000000000000D-01 -1.1510519714935D+00 -5.3617379558426D-01
59  5.8000000000000D-01 -1.1625503823077D+00 -5.3959519572479D-01
60  5.9000000000000D-01 -1.1734303947024D+00 -5.4129672318600D-01
61  6.0000000000000D-01 -1.1836730077855D+00 -5.4121740255627D-01
62  6.1000000000000D-01 -1.1932594541218D+00 -5.3930201316414D-01
63  6.2000000000000D-01 -1.2021712515804D+00 -5.3550138197651D-01
64  6.3000000000000D-01 -1.2103902387492D+00 -5.2977248984957D-01
65  6.4000000000000D-01 -1.2178986566637D+00 -5.2207898429605D-01
66  6.5000000000000D-01 -1.2246791810794D+00 -5.1239118695339D-01
67  6.6000000000000D-01 -1.2307149734846D+00 -5.0068626826610D-01
68  6.7000000000000D-01 -1.2359897586105D+00 -4.8694857864442D-01
69  6.8000000000000D-01 -1.2404878659737D+00 -4.7116966142249D-01
70  6.9000000000000D-01 -1.2441942837913D+00 -4.5334834309467D-01
71  7.0000000000000D-01 -1.2470947106155D+00 -4.3349078685742D-01
72  7.1000000000000D-01 -1.2491756306810D+00 -4.1161064088797D-01
73  7.2000000000000D-01 -1.2504243584933D+00 -3.8772897268230D-01
74  7.3000000000000D-01 -1.2508290902368D+00 -3.6187422805500D-01
75  7.4000000000000D-01 -1.2503789619689D+00 -3.3408219568040D-01
76  7.5000000000000D-01 -1.2490641038347D+00 -3.0439592198800D-01
77  7.6000000000000D-01 -1.2468756905206D+00 -2.7286558776749D-01
78  7.7000000000000D-01 -1.2438059959814D+00 -2.3954837259050D-01
79  7.8000000000000D-01 -1.2398484535640D+00 -2.0450829509248D-01
80  7.9000000000000D-01 -1.2349976896249D+00 -1.6781596711803D-01
81  8.0000000000000D-01 -1.2292495768645D+00 -1.2954837766823D-01
82  8.1000000000000D-01 -1.2226012797896D+00 -8.9788632057539D-02
83  8.2000000000000D-01 -1.2150512980269D+00 -4.8625664948087D-02
84  8.3000000000000D-01 -1.2065995072895D+00 -6.1539285127797D-03
85  8.4000000000000D-01 -1.1972471978011D+00  3.7526942917437D-02
86  8.5000000000000D-01 -1.1869971099837D+00  8.2312490268693D-02
87  8.6000000000000D-01 -1.1758534672153D+00  1.2809380765320D-01
88  8.7000000000000D-01 -1.1638220054686D+00  1.7475793917096D-01
89  8.8000000000000D-01 -1.1509099996428D+00  2.2218829285095D-01
90  8.9000000000000D-01 -1.1371262864051D+00  2.7026506990702D-01
91  9.0000000000000D-01 -1.1224812833657D+00  3.1886570739075D-01
92  9.1000000000000D-01 -1.1069870044143D+00  3.6786533223054D-01
93  9.2000000000000D-01 -1.0906570710590D+00  4.1713722455297D-01
94  9.3000000000000D-01 -1.0735067129478D+00  4.6655324584435D-01
95  9.4000000000000D-01 -1.0555527823870D+00  5.1598436602631D-01
96  9.5000000000000D-01 -1.0368137592546D+00  5.6530121238972D-01
97  9.6000000000000D-01 -1.0173097265725D+00  6.1437443497916D-01
98  9.7000000000000D-01 -9.9706236757576D-01  6.6307522917205D-01
99  9.8000000000000D-01 -9.7609495029232D-01  7.1127581193065D-01
100  9.9000000000000D-01 -9.5443230733993D-01  7.5884989151896D-01
101  1.0000000000000D+00 -9.3210081095487D-01  8.0567312813399D-01
102  1.0100000000000D+00 -9.0912833162113D-01  8.5162332448551D-01
103  1.0200000000000D+00 -8.8554424212150D-01  8.9658153674150D-01
104  1.0300000000000D+00 -8.6137934472961D-01  9.4043209291132D-01
105  1.0400000000000D+00 -8.3666582774626D-01  9.8306294946818D-01
106  1.0500000000000D+00 -8.1143722066558D-01  1.0243661576861D+00
107  1.0600000000000D+00 -7.8572834158054D-01  1.0642380202165D+00
108  1.0700000000000D+00 -7.5957524907228D-01  1.1025796984277D+00
109  1.0800000000000D+00 -7.3301516024242D-01  1.1392981797118D+00
110  1.0900000000000D+00 -7.0608638350314D-01  1.1743056003818D+00
111  1.1000000000000D+00 -6.7882825065274D-01  1.2075198546718D+00
112  1.1100000000000D+00 -6.5128108471040D-01  1.2388641412720D+00
113  1.1200000000000D+00 -6.2348601859952D-01  1.2682693604074D+00
114  1.1300000000000D+00 -5.9548496626476D-01  1.2956725107095D+00
115  1.1400000000000D+00 -5.6732053760868D-01  1.3210171199694D+00
116  1.1500000000000D+00 -5.3903604652489D-01  1.3442526144842D+00
117  1.1600000000000D+00 -5.1067514313641D-01  1.3653372662619D+00
118  1.1700000000000D+00 -4.8228191365459D-01  1.3842357546014D+00
119  1.1800000000000D+00 -4.5390081347441D-01  1.4009193692787D+00
120  1.1900000000000D+00 -4.2557654991095D-01  1.4153664931103D+00
121  1.2000000000000D+00 -3.9735367087877D-01  1.4275641333060D+00
122  1.2100000000000D+00 -3.6927681384623D-01  1.4375055581091D+00
123  1.2200000000000D+00 -3.4139077476544D-01  1.4451900268861D+00
124  1.2300000000000D+00 -3.1373959594071D-01  1.4506261524045D+00
125  1.2400000000000D+00 -2.8636712071925D-01  1.4538284501433D+00
126  1.2500000000000D+00 -2.5931708363355D-01  1.4548171907139D+00
127  1.2600000000000D+00 -2.3263211662347D-01  1.4536210068336D+00
128  1.2700000000000D+00 -2.0635418787801D-01  1.4502744821623D+00
129  1.2800000000000D+00 -1.8052499335344D-01  1.4448173330185D+00
130  1.2900000000000D+00 -1.5518460850076D-01  1.4372968287693D+00
131  1.3000000000000D+00 -1.3037213656599D-01  1.4277654321529D+00
132  1.3100000000000D+00 -1.0612630788390D-01  1.4162801834323D+00
133  1.3200000000000D+00 -8.2483429299117D-02  1.4029047520558D+00
134  1.3300000000000D+00 -5.9478942591134D-02  1.3877067318586D+00
135  1.3400000000000D+00 -3.7147427775483D-02  1.3707581561775D+00
136  1.3500000000000D+00 -1.5520512627833D-02  1.3521357963547D+00
137  1.3600000000000D+00  5.3706928691535D-03  1.3319196331490D+00
138  1.3700000000000D+00  2.5497213886711D-02  1.3101934584234D+00
139  1.3800000000000D+00  4.4832611120989D-02  1.2870436741267D+00
140  1.3900000000000D+00  6.3350822346108D-02  1.2625599598215D+00
141  1.4000000000000D+00  8.1029714437346D-02  1.2368334821299D+00
142  1.4100000000000D+00  9.7848066421394D-02  1.2099576367557D+00
143  1.4200000000000D+00  1.1378683969067D-01  1.1820276783465D+00
144  1.4300000000000D+00  1.2883039579211D-01  1.1531384557897D+00
145  1.4400000000000D+00  1.4296327974015D-01  1.1233880587602D+00
146  1.4500000000000D+00  1.5617489969949D-01  1.0928716944822D+00
147  1.4600000000000D+00  1.6845512870217D-01  1.0616869033368D+00
148  1.4700000000000D+00  1.7979714559127D-01  1.0299297387357D+00
149  1.4800000000000D+00  1.9019679577464D-01  9.9769461967114D-01
150  1.4900000000000D+00  1.9965116642502D-01  9.6507750469438D-01
151  1.5000000000000D+00  2.0816196727717D-01  9.3216813906019D-01
152  1.5100000000000D+00  2.1573070743269D-01  8.9906054089827D-01
153  1.5200000000000D+00  2.2236424743242D-01  8.6583981368483D-01
154  1.5300000000000D+00  2.2806955988160D-01  8.3259439496839D-01
155  1.5400000000000D+00  2.3285773672990D-01  7.9940584840748D-01
156  1.5500000000000D+00  2.3674138777278D-01  7.6635501412621D-01
157  1.5600000000000D+00  2.3973582646788D-01  7.3351910286386D-01
158  1.5700000000000D+00  2.4185903757092D-01  7.0097034457995D-01
159  1.5800000000000D+00  2.4313054192512D-01  6.6878073921616D-01
160  1.5900000000000D+00  2.4357332856614D-01  6.3701326459368D-01
161  1.6000000000000D+00  2.4321107659457D-01  6.0573386430057D-01
162  1.6100000000000D+00  2.4207132910241D-01  5.7499595315838D-01
163  1.6200000000000D+00  2.4018181766013D-01  5.4485864276609D-01
164  1.6300000000000D+00  2.3757413153171D-01  5.1536576148401D-01
165  1.6400000000000D+00  2.3427987904198D-01  4.8656893179128D-01
166  1.6500000000000D+00  2.3033412424897D-01  4.5850286541424D-01
167  1.6600000000000D+00  2.2577216576648D-01  4.3121045224561D-01
168  1.6700000000000D+00  2.2063192968988D-01  4.0471832173252D-01
169  1.6800000000000D+00  2.1495200057104D-01  3.7906047558284D-01
170  1.6900000000000D+00  2.0877267839605D-01  3.5425551231663D-01
171  1.7000000000000D+00  2.0213535043113D-01  3.3032897106625D-01
172  1.7100000000000D+00  1.9508211730825D-01  3.0729163333803D-01
173  1.7200000000000D+00  1.8765669700848D-01  2.8516112482015D-01
174  1.7300000000000D+00  1.7990234246506D-01  2.6394092899180D-01
175  1.7400000000000D+00  1.7186460078686D-01  2.4364111130717D-01
176  1.7500000000000D+00  1.6358727506679D-01  2.2425896353768D-01
177  1.7600000000000D+00  1.5511701381136D-01  2.0579696971897D-01
178  1.7700000000000D+00  1.4649775153967D-01  1.8824764372790D-01
179  1.7800000000000D+00  1.3777640040371D-01  1.7160641298007D-01
180  1.7900000000000D+00  1.2899665075105D-01  1.5586188888793D-01
181  1.8000000000000D+00  1.2020472890839D-01  1.4100337612451D-01
182  1.8100000000000D+00  1.1144382466848D-01  1.2701631812556D-01
183  1.8200000000000D+00  1.0275840033585D-01  1.1388509424856D-01
184  1.8300000000000D+00  9.4191014831330D-02  1.0159251867607D-01
185  1.8400000000000D+00  8.5783181596261D-02  9.0119488627601D-02
186  1.8500000000000D+00  7.7576804631580D-02  7.9446514330000D-02
187  1.8600000000000D+00  6.9609211725132D-02  6.9552633490060D-02
188  1.8700000000000D+00  6.1921675884967D-02  6.0416204546678D-02
189  1.8800000000000D+00  5.4546544965999D-02  5.2015963724227D-02
190  1.8900000000000D+00  4.7523237555618D-02  4.4328546063349D-02
191  1.9000000000000D+00  4.0880218150260D-02  3.7333111204584D-02
192  1.9100000000000D+00  3.4651692531959D-02  3.1006256420966D-02
193  1.9200000000000D+00  2.8864543334618D-02  2.5327031609481D-02
194  1.9300000000000D+00  2.3545604858551D-02  2.0273833346336D-02
195  1.9400000000000D+00  1.8720730718319D-02  1.5825163299749D-02
196  1.9500000000000D+00  1.4408024649400D-02  1.1962705626243D-02
197  1.9600000000000D+00  1.0632614694013D-02  8.6641644598563D-03
198  1.9700000000000D+00  7.4047270145073D-03  5.9144645374984D-03
199  1.9800000000000D+00  4.7433966116758D-03  3.6934654959481D-03
200  1.9900000000000D+00  2.6565066808127D-03  1.9863999323832D-03
201  2.0000000000000D+00  1.1903261994772D-03  8.0278084561289D-04
202  2.0100000000000D+00  3.4053299960531D-04  1.1906357360572D-04
203  2.0200000000000D+00 -7.5626465272043D-05 -1.9691683159892D-04
204  2.0300000000000D+00 -1.6610687281422D-04 -2.1578766896731D-04
205  2.0400000000000D+00 -7.0473568531573D-05 -8.0307525386084D-05
206  2.0500000000000D+00  4.4862665206569D-06  1.0698599310806D-05
207  2.0600000000000D+00  4.7986480076207D-06  1.1443549336791D-05
208  2.0700000000000D+00  0.0000000000000D+00  0.0000000000000D+00
209  2.0800000000000D+00  0.0000000000000D+00  0.0000000000000D+00
210  2.0900000000000D+00  0.0000000000000D+00  0.0000000000000D+00
211  2.1000000000000D+00  0.0000000000000D+00  0.0000000000000D+00
212  2.1100000000000D+00  0.0000000000000D+00  0.0000000000000D+00
213  2.1200000000000D+00  0.0000000000000D+00  0.0000000000000D+00
214  2.1300000000000D+00  0.0000000000000D+00  0.0000000000000D+00
215  2.1400000000000D+00  0.0000000000000D+00  0.0000000000000D+00
216  2.1500000000000D+00  0.0000000000000D+00  0.0000000000000D+00
217  2.1600000000000D+00  0.0000000000000D+00  0.0000000000000D+00
218  2.1700000000000D+00  0.0000000000000D+00  0.0000000000000D+00
219  2.1800000000000D+00  0.0000000000000D+00  0.0000000000000D+00
220  2.1900000000000D+00  0.0000000000000D+00  0.0000000000000D+00
221  2.2000000000000D+00  0.0000000000000D+00  0.0000000000000D+00
222  2.2100000000000D+00  0.0000000000000D+00  0.0000000000000D+00
223  2.2200000000000D+00  0.0000000000000D+00  0.0000000000000D+00
224  2.2300000000000D+00  0.0000000000000D+00  0.0000000000000D+00
225  2.2400000000000D+00  0.0000000000000D+00  0.0000000000000D+00
226  2.2500000000000D+00  0.0000000000000D+00  0.0000000000000D+00
227  2.2600000000000D+00  0.0000000000000D+00  0.0000000000000D+00
228  2.2700000000000D+00  0.0000000000000D+00  0.0000000000000D+00
229  2.2800000000000D+00  0.0000000000000D+00  0.0000000000000D+00
230  2.2900000000000D+00  0.0000000000000D+00  0.0000000000000D+00
231  2.3000000000000D+00  0.0000000000000D+00  0.0000000000000D+00
232  2.3100000000000D+00  0.0000000000000D+00  0.0000000000000D+00
233  2.3200000000000D+00  0.0000000000000D+00  0.0000000000000D+00
234  2.3300000000000D+00  0.0000000000000D+00  0.0000000000000D+00
235  2.3400000000000D+00  0.0000000000000D+00  0.0000000000000D+00
236  2.3500000000000D+00  0.0000000000000D+00  0.0000000000000D+00
237  2.3600000000000D+00  0.0000000000000D+00  0.0000000000000D+00
238  2.3700000000000D+00  0.0000000000000D+00  0.0000000000000D+00
239  2.3800000000000D+00  0.0000000000000D+00  0.0000000000000D+00
240  2.3900000000000D+00  0.0000000000000D+00  0.0000000000000D+00
241  2.4000000000000D+00  0.0000000000000D+00  0.0000000000000D+00
242  2.4100000000000D+00  0.0000000000000D+00  0.0000000000000D+00
243  2.4200000000000D+00  0.0000000000000D+00  0.0000000000000D+00
244  2.4300000000000D+00  0.0000000000000D+00  0.0000000000000D+00
245  2.4400000000000D+00  0.0000000000000D+00  0.0000000000000D+00
246  2.4500000000000D+00  0.0000000000000D+00  0.0000000000000D+00
247  2.4600000000000D+00  0.0000000000000D+00  0.0000000000000D+00
248  2.4700000000000D+00  0.0000000000000D+00  0.0000000000000D+00
249  2.4800000000000D+00  0.0000000000000D+00  0.0000000000000D+00
250  2.4900000000000D+00  0.0000000000000D+00  0.0000000000000D+00
251  2.5000000000000D+00  0.0000000000000D+00  0.0000000000000D+00
252  2.5100000000000D+00  0.0000000000000D+00  0.0000000000000D+00
253  2.5200000000000D+00  0.0000000000000D+00  0.0000000000000D+00
254  2.5300000000000D+00  0.0000000000000D+00  0.0000000000000D+00
255  2.5400000000000D+00  0.0000000000000D+00  0.0000000000000D+00
256  2.5500000000000D+00  0.0000000000000D+00  0.0000000000000D+00
257  2.5600000000000D+00  0.0000000000000D+00  0.0000000000000D+00
258  2.5700000000000D+00  0.0000000000000D+00  0.0000000000000D+00
259  2.5800000000000D+00  0.0000000000000D+00  0.0000000000000D+00
260  2.5900000000000D+00  0.0000000000000D+00  0.0000000000000D+00
261  2.6000000000000D+00  0.0000000000000D+00  0.0000000000000D+00
262  2.6100000000000D+00  0.0000000000000D+00  0.0000000000000D+00
263  2.6200000000000D+00  0.0000000000000D+00  0.0000000000000D+00
264  2.6300000000000D+00  0.0000000000000D+00  0.0000000000000D+00
265  2.6400000000000D+00  0.0000000000000D+00  0.0000000000000D+00
266  2.6500000000000D+00  0.0000000000000D+00  0.0000000000000D+00
267  2.6600000000000D+00  0.0000000000000D+00  0.0000000000000D+00
268  2.6700000000000D+00  0.0000000000000D+00  0.0000000000000D+00
269  2.6800000000000D+00  0.0000000000000D+00  0.0000000000000D+00
270  2.6900000000000D+00  0.0000000000000D+00  0.0000000000000D+00
271  2.7000000000000D+00  0.0000000000000D+00  0.0000000000000D+00
272  2.7100000000000D+00  0.0000000000000D+00  0.0000000000000D+00
273  2.7200000000000D+00  0.0000000000000D+00  0.0000000000000D+00
274  2.7300000000000D+00  0.0000000000000D+00  0.0000000000000D+00
275  2.7400000000000D+00  0.0000000000000D+00  0.0000000000000D+00
276  2.7500000000000D+00  0.0000000000000D+00  0.0000000000000D+00
277  2.7600000000000D+00  0.0000000000000D+00  0.0000000000000D+00
278  2.7700000000000D+00  0.0000000000000D+00  0.0000000000000D+00
279  2.7800000000000D+00  0.0000000000000D+00  0.0000000000000D+00
280  2.7900000000000D+00  0.0000000000000D+00  0.0000000000000D+00
281  2.8000000000000D+00  0.0000000000000D+00  0.0000000000000D+00
282  2.8100000000000D+00  0.0000000000000D+00  0.0000000000000D+00
283  2.8200000000000D+00  0.0000000000000D+00  0.0000000000000D+00
284  2.8300000000000D+00  0.0000000000000D+00  0.0000000000000D+00
285  2.8400000000000D+00  0.0000000000000D+00  0.0000000000000D+00
286  2.8500000000000D+00  0.0000000000000D+00  0.0000000000000D+00
287  2.8600000000000D+00  0.0000000000000D+00  0.0000000000000D+00
288  2.8700000000000D+00  0.0000000000000D+00  0.0000000000000D+00
289  2.8800000000000D+00  0.0000000000000D+00  0.0000000000000D+00
290  2.8900000000000D+00  0.0000000000000D+00  0.0000000000000D+00
291  2.9000000000000D+00  0.0000000000000D+00  0.0000000000000D+00
292  2.9100000000000D+00  0.0000000000000D+00  0.0000000000000D+00
293  2.9200000000000D+00  0.0000000000000D+00  0.0000000000000D+00
294  2.9300000000000D+00  0.0000000000000D+00  0.0000000000000D+00
295  2.9400000000000D+00  0.0000000000000D+00  0.0000000000000D+00
296  2.9500000000000D+00  0.0000000000000D+00  0.0000000000000D+00
297  2.9600000000000D+00  0.0000000000000D+00  0.0000000000000D+00
298  2.9700000000000D+00  0.0000000000000D+00  0.0000000000000D+00
299  2.9800000000000D+00  0.0000000000000D+00  0.0000000000000D+00
300  2.9900000000000D+00  0.0000000000000D+00  0.0000000000000D+00
301  3.0000000000000D+00  0.0000000000000D+00  0.0000000000000D+00
302  3.0100000000000D+00  0.0000000000000D+00  0.0000000000000D+00
303  3.0200000000000D+00  0.0000000000000D+00  0.0000000000000D+00
304  3.0300000000000D+00  0.0000000000000D+00  0.0000000000000D+00
305  3.0400000000000D+00  0.0000000000000D+00  0.0000000000000D+00
306  3.0500000000000D+00  0.0000000000000D+00  0.0000000000000D+00
307  3.0600000000000D+00  0.0000000000000D+00  0.0000000000000D+00
308  3.0700000000000D+00  0.0000000000000D+00  0.0000000000000D+00
309  3.0800000000000D+00  0.0000000000000D+00  0.0000000000000D+00
310  3.0900000000000D+00  0.0000000000000D+00  0.0000000000000D+00
311  3.1000000000000D+00  0.0000000000000D+00  0.0000000000000D+00
312  3.1100000000000D+00  0.0000000000000D+00  0.0000000000000D+00
313  3.1200000000000D+00  0.0000000000000D+00  0.0000000000000D+00
314  3.1300000000000D+00  0.0000000000000D+00  0.0000000000000D+00
315  3.1400000000000D+00  0.0000000000000D+00  0.0000000000000D+00
316  3.1500000000000D+00  0.0000000000000D+00  0.0000000000000D+00
317  3.1600000000000D+00  0.0000000000000D+00  0.0000000000000D+00
318  3.1700000000000D+00  0.0000000000000D+00  0.0000000000000D+00
319  3.1800000000000D+00  0.0000000000000D+00  0.0000000000000D+00
320  3.1900000000000D+00  0.0000000000000D+00  0.0000000000000D+00
321  3.2000000000000D+00  0.0000000000000D+00  0.0000000000000D+00
322  3.2100000000000D+00  0.0000000000000D+00  0.0000000000000D+00
323  3.2200000000000D+00  0.0000000000000D+00  0.0000000000000D+00
324  3.2300000000000D+00  0.0000000000000D+00  0.0000000000000D+00
325  3.2400000000000D+00  0.0000000000000D+00  0.0000000000000D+00
326  3.2500000000000D+00  0.0000000000000D+00  0.0000000000000D+00
327  3.2600000000000D+00  0.0000000000000D+00  0.0000000000000D+00
328  3.2700000000000D+00  0.0000000000000D+00  0.0000000000000D+00
329  3.2800000000000D+00  0.0000000000000D+00  0.0000000000000D+00
330  3.2900000000000D+00  0.0000000000000D+00  0.0000000000000D+00
331  3.3000000000000D+00  0.0000000000000D+00  0.0000000000000D+00
332  3.3100000000000D+00  0.0000000000000D+00  0.0000000000000D+00
333  3.3200000000000D+00  0.0000000000000D+00  0.0000000000000D+00
334  3.3300000000000D+00  0.0000000000000D+00  0.0000000000000D+00
335  3.3400000000000D+00  0.0000000000000D+00  0.0000000000000D+00
336  3.3500000000000D+00  0.0000000000000D+00  0.0000000000000D+00
337  3.3600000000000D+00  0.0000000000000D+00  0.0000000000000D+00
338  3.3700000000000D+00  0.0000000000000D+00  0.0000000000000D+00
339  3.3800000000000D+00  0.0000000000000D+00  0.0000000000000D+00
340  3.3900000000000D+00  0.0000000000000D+00  0.0000000000000D+00
341  3.4000000000000D+00  0.0000000000000D+00  0.0000000000000D+00
342  3.4100000000000D+00  0.0000000000000D+00  0.0000000000000D+00
343  3.4200000000000D+00  0.0000000000000D+00  0.0000000000000D+00
344  3.4300000000000D+00  0.0000000000000D+00  0.0000000000000D+00
345  3.4400000000000D+00  0.0000000000000D+00  0.0000000000000D+00
346  3.4500000000000D+00  0.0000000000000D+00  0.0000000000000D+00
347  3.4600000000000D+00  0.0000000000000D+00  0.0000000000000D+00
348  3.4700000000000D+00  0.0000000000000D+00  0.0000000000000D+00
349  3.4800000000000D+00  0.0000000000000D+00  0.0000000000000D+00
350  3.4900000000000D+00  0.0000000000000D+00  0.0000000000000D+00
351  3.5000000000000D+00  0.0000000000000D+00  0.0000000000000D+00
352  3.5100000000000D+00  0.0000000000000D+00  0.0000000000000D+00
353  3.5200000000000D+00  0.0000000000000D+00  0.0000000000000D+00
354  3.5300000000000D+00  0.0000000000000D+00  0.0000000000000D+00
355  3.5400000000000D+00  0.0000000000000D+00  0.0000000000000D+00
356  3.5500000000000D+00  0.0000000000000D+00  0.0000000000000D+00
357  3.5600000000000D+00  0.0000000000000D+00  0.0000000000000D+00
358  3.5700000000000D+00  0.0000000000000D+00  0.0000000000000D+00
359  3.5800000000000D+00  0.0000000000000D+00  0.0000000000000D+00
360  3.5900000000000D+00  0.0000000000000D+00  0.0000000000000D+00
361  3.6000000000000D+00  0.0000000000000D+00  0.0000000000000D+00
362  3.6100000000000D+00  0.0000000000000D+00  0.0000000000000D+00
363  3.6200000000000D+00  0.0000000000000D+00  0.0000000000000D+00
364  3.6300000000000D+00  0.0000000000000D+00  0.0000000000000D+00
365  3.6400000000000D+00  0.0000000000000D+00  0.0000000000000D+00
366  3.6500000000000D+00  0.0000000000000D+00  0.0000000000000D+00
367  3.6600000000000D+00  0.0000000000000D+00  0.0000000000000D+00
368  3.6700000000000D+00  0.0000000000000D+00  0.0000000000000D+00
369  3.6800000000000D+00  0.0000000000000D+00  0.0000000000000D+00
370  3.6900000000000D+00  0.0000000000000D+00  0.0000000000000D+00
371  3.7000000000000D+00  0.0000000000000D+00  0.0000000000000D+00
372  3.7100000000000D+00  0.0000000000000D+00  0.0000000000000D+00
373  3.7200000000000D+00  0.0000000000000D+00  0.0000000000000D+00
374  3.7300000000000D+00  0.0000000000000D+00  0.0000000000000D+00
375  3.7400000000000D+00  0.0000000000000D+00  0.0000000000000D+00
376  3.7500000000000D+00  0.0000000000000D+00  0.0000000000000D+00
377  3.7600000000000D+00  0.0000000000000D+00  0.0000000000000D+00
378  3.7700000000000D+00  0.0000000000000D+00  0.0000000000000D+00
379  3.7800000000000D+00  0.0000000000000D+00  0.0000000000000D+00
380  3.7900000000000D+00  0.0000000000000D+00  0.0000000000000D+00
381  3.8000000000000D+00  0.0000000000000D+00  0.0000000000000D+00
382  3.8100000000000D+00  0.0000000000000D+00  0.0000000000000D+00
383  3.8200000000000D+00  0.0000000000000D+00  0.0000000000000D+00
384  3.8300000000000D+00  0.0000000000000D+00  0.0000000000000D+00
385  3.8400000000000D+00  0.0000000000000D+00  0.0000000000000D+00
386  3.8500000000000D+00  0.0000000000000D+00  0.0000000000000D+00
387  3.8600000000000D+00  0.0000000000000D+00  0.0000000000000D+00
388  3.8700000000000D+00  0.0000000000000D+00  0.0000000000000D+00
389  3.8800000000000D+00  0.0000000000000D+00  0.0000000000000D+00
390  3.8900000000000D+00  0.0000000000000D+00  0.0000000000000D+00
391  3.9000000000000D+00  0.0000000000000D+00  0.0000000000000D+00
392  3.9100000000000D+00  0.0000000000000D+00  0.0000000000000D+00
393  3.9200000000000D+00  0.0000000000000D+00  0.0000000000000D+00
394  3.9300000000000D+00  0.0000000000000D+00  0.0000000000000D+00
395  3.9400000000000D+00  0.0000000000000D+00  0.0000000000000D+00
396  3.9500000000000D+00  0.0000000000000D+00  0.0000000000000D+00
397  3.9600000000000D+00  0.0000000000000D+00  0.0000000000000D+00
398  3.9700000000000D+00  0.0000000000000D+00  0.0000000000000D+00
399  3.9800000000000D+00  0.0000000000000D+00  0.0000000000000D+00
400  3.9900000000000D+00  0.0000000000000D+00  0.0000000000000D+00
401  4.0000000000000D+00  0.0000000000000D+00  0.0000000000000D+00
402  4.0100000000000D+00  0.0000000000000D+00  0.0000000000000D+00
403  4.0200000000000D+00  0.0000000000000D+00  0.0000000000000D+00
404  4.0300000000000D+00  0.0000000000000D+00  0.0000000000000D+00
405  4.0400000000000D+00  0.0000000000000D+00  0.0000000000000D+00
406  4.0500000000000D+00  0.0000000000000D+00  0.0000000000000D+00
407  4.0600000000000D+00  0.0000000000000D+00  0.0000000000000D+00
408  4.0700000000000D+00  0.0000000000000D+00  0.0000000000000D+00
409  4.0800000000000D+00  0.0000000000000D+00  0.0000000000000D+00
410  4.0900000000000D+00  0.0000000000000D+00  0.0000000000000D+00
411  4.1000000000000D+00  0.0000000000000D+00  0.0000000000000D+00
412  4.1100000000000D+00  0.0000000000000D+00  0.0000000000000D+00
413  4.1200000000000D+00  0.0000000000000D+00  0.0000000000000D+00
414  4.1300000000000D+00  0.0000000000000D+00  0.0000000000000D+00
415  4.1400000000000D+00  0.0000000000000D+00  0.0000000000000D+00
416  4.1500000000000D+00  0.0000000000000D+00  0.0000000000000D+00
417  4.1600000000000D+00  0.0000000000000D+00  0.0000000000000D+00
418  4.1700000000000D+00  0.0000000000000D+00  0.0000000000000D+00
419  4.1800000000000D+00  0.0000000000000D+00  0.0000000000000D+00
420  4.1900000000000D+00  0.0000000000000D+00  0.0000000000000D+00
421  4.2000000000000D+00  0.0000000000000D+00  0.0000000000000D+00
422  4.2100000000000D+00  0.0000000000000D+00  0.0000000000000D+00
423  4.2200000000000D+00  0.0000000000000D+00  0.0000000000000D+00
424  4.2300000000000D+00  0.0000000000000D+00  0.0000000000000D+00
425  4.2400000000000D+00  0.0000000000000D+00  0.0000000000000D+00
426  4.2500000000000D+00  0.0000000000000D+00  0.0000000000000D+00
427  4.2600000000000D+00  0.0000000000000D+00  0.0000000000000D+00
428  4.2700000000000D+00  0.0000000000000D+00  0.0000000000000D+00
429  4.2800000000000D+00  0.0000000000000D+00  0.0000000000000D+00
430  4.2900000000000D+00  0.0000000000000D+00  0.0000000000000D+00
431  4.3000000000000D+00  0.0000000000000D+00  0.0000000000000D+00
432  4.3100000000000D+00  0.0000000000000D+00  0.0000000000000D+00
433  4.3200000000000D+00  0.0000000000000D+00  0.0000000000000D+00
434  4.3300000000000D+00  0.0000000000000D+00  0.0000000000000D+00
435  4.3400000000000D+00  0.0000000000000D+00  0.0000000000000D+00
436  4.3500000000000D+00  0.0000000000000D+00  0.0000000000000D+00
437  4.3600000000000D+00  0.0000000000000D+00  0.0000000000000D+00
438  4.3700000000000D+00  0.0000000000000D+00  0.0000000000000D+00
439  4.3800000000000D+00  0.0000000000000D+00  0.0000000000000D+00
440  4.3900000000000D+00  0.0000000000000D+00  0.0000000000000D+00
441  4.4000000000000D+00  0.0000000000000D+00  0.0000000000000D+00
442  4.4100000000000D+00  0.0000000000000D+00  0.0000000000000D+00
443  4.4200000000000D+00  0.0000000000000D+00  0.0000000000000D+00
444  4.4300000000000D+00  0.0000000000000D+00  0.0000000000000D+00