Te    ONCVPSP-3.3.0  r_core=   2.26547   1.91704   1.80604
52.0000     16.0000      171103    zatom,zion,pspd
8   -1012   2     4   600     0    pspcod,pspxc,lmax,lloc,mmax,r2well
5.99000000  5.00000000  0.00000000    rchrg fchrg qchrg
2     2     2     0     0    nproj
1     1           extension_switch
0                         6.3781140314926D+00  8.0027537130175D-01
1  0.0000000000000D+00 -5.2186033272505D-12  2.7809657354716D-11
2  1.0000000000000D-02  1.9629654758939D-02 -9.9991881019859D-03
3  2.0000000000000D-02  3.9258377297617D-02 -1.9971669288621D-02
4  3.0000000000000D-02  5.8885238611333D-02 -2.9890901987133D-02
5  4.0000000000000D-02  7.8509315962831D-02 -3.9730674150069D-02
6  5.0000000000000D-02  9.8129695608153D-02 -4.9465265125407D-02
7  6.0000000000000D-02  1.1774547503673D-01 -5.9069604075270D-02
8  7.0000000000000D-02  1.3735576456995D-01 -6.8519423825424D-02
9  8.0000000000000D-02  1.5695968816749D-01 -7.7791409055546D-02
10  9.0000000000000D-02  1.7655638329756D-01 -8.6863337774685D-02
11  1.0000000000000D-01  1.9614499973419D-01 -9.5714215067241D-02
12  1.1000000000000D-01  2.1572469715428D-01 -1.0432439814210D-01
13  1.2000000000000D-01  2.3529464141649D-01 -1.1267571177073D-01
14  1.3000000000000D-01  2.5485399941547D-01 -1.2075155325910D-01
15  1.4000000000000D-01  2.7440193241656D-01 -1.2853698616280D-01
16  1.5000000000000D-01  2.9393758778942D-01 -1.3601882202409D-01
17  1.6000000000000D-01  3.1346008907252D-01 -1.4318568948422D-01
18  1.7000000000000D-01  3.3296852431531D-01 -1.5002809020279D-01
19  1.8000000000000D-01  3.5246193265969D-01 -1.5653844109840D-01
20  1.9000000000000D-01  3.7193928913890D-01 -1.6271110251124D-01
21  2.0000000000000D-01  3.9139948768771D-01 -1.6854239197687D-01
22  2.1000000000000D-01  4.1084132237499D-01 -1.7403058339231D-01
23  2.2000000000000D-01  4.3026346688660D-01 -1.7917589144915D-01
24  2.3000000000000D-01  4.4966445230397D-01 -1.8398044130324D-01
25  2.4000000000000D-01  4.6904264324112D-01 -1.8844822354701D-01
26  2.5000000000000D-01  4.8839621242007D-01 -1.9258503464656D-01
27  2.6000000000000D-01  5.0772311378211D-01 -1.9639840310240D-01
28  2.7000000000000D-01  5.2702105424926D-01 -1.9989750168840D-01
29  2.8000000000000D-01  5.4628746426691D-01 -2.0309304621776D-01
30  2.9000000000000D-01  5.6551946727490D-01 -2.0599718137820D-01
31  3.0000000000000D-01  5.8471384827001D-01 -2.0862335426823D-01
32  3.1000000000000D-01  6.0386702163749D-01 -2.1098617635469D-01
33  3.2000000000000D-01  6.2297499844390D-01 -2.1310127465537D-01
34  3.3000000000000D-01  6.4203335339631D-01 -2.1498513303114D-01
35  3.4000000000000D-01  6.6103719168564D-01 -2.1665492454776D-01
36  3.5000000000000D-01  6.7998111594261D-01 -2.1812833593831D-01
37  3.6000000000000D-01  6.9885919354540D-01 -2.1942338526291D-01
38  3.7000000000000D-01  7.1766492452609D-01 -2.2055823392211D-01
39  3.8000000000000D-01  7.3639121033091D-01 -2.2155099423348D-01
40  3.9000000000000D-01  7.5503032369504D-01 -2.2241953382801D-01
41  4.0000000000000D-01  7.7357387989683D-01 -2.2318127816276D-01
42  4.1000000000000D-01  7.9201280965961D-01 -2.2385301247816D-01
43  4.2000000000000D-01  8.1033733397009D-01 -2.2445068455383D-01
44  4.3000000000000D-01  8.2853694108195D-01 -2.2498920963330D-01
45  4.4000000000000D-01  8.4660036597117D-01 -2.2548227889696D-01
46  4.5000000000000D-01  8.6451557250538D-01 -2.2594217286318D-01
47  4.6000000000000D-01  8.8226973858418D-01 -2.2637958108992D-01
48  4.7000000000000D-01  8.9984924449945D-01 -2.2680342953245D-01
49  4.8000000000000D-01  9.1723966475575D-01 -2.2722071688865D-01
50  4.9000000000000D-01  9.3442576357971D-01 -2.2763636122956D-01
51  5.0000000000000D-01  9.5139149433435D-01 -2.2805305817167D-01
52  5.1000000000000D-01  9.6812000304008D-01 -2.2847115179698D-01
53  5.2000000000000D-01  9.8459363618760D-01 -2.2888851946942D-01
54  5.3000000000000D-01  1.0007939530103D+00 -2.2930047162939D-01
55  5.4000000000000D-01  1.0167017423644D+00 -2.2969966757525D-01
56  5.5000000000000D-01  1.0322970443436D+00 -2.3007604815876D-01
57  5.6000000000000D-01  1.0475591767344D+00 -2.3041678623417D-01
58  5.7000000000000D-01  1.0624667663916D+00 -2.3070625560520D-01
59  5.8000000000000D-01  1.0769977855925D+00 -2.3092601911391D-01
60  5.9000000000000D-01  1.0911295933995D+00 -2.3105483640865D-01
61  6.0000000000000D-01  1.1048389820348D+00 -2.3106869181661D-01
62  6.1000000000000D-01  1.1181022282438D+00 -2.3094084263069D-01
63  6.2000000000000D-01  1.1308951495952D+00 -2.3064188799976D-01
64  6.3000000000000D-01  1.1431931656356D+00 -2.3013985848823D-01
65  6.4000000000000D-01  1.1549713637892D+00 -2.2940032624509D-01
66  6.5000000000000D-01  1.1662045698624D+00 -2.2838653559399D-01
67  6.6000000000000D-01  1.1768674229823D+00 -2.2705955372713D-01
68  6.7000000000000D-01  1.1869344547719D+00 -2.2537844105647D-01
69  6.8000000000000D-01  1.1963801725322D+00 -2.2330044064576D-01
70  6.9000000000000D-01  1.2051791461738D+00 -2.2078118601921D-01
71  7.0000000000000D-01  1.2133060986131D+00 -2.1777492651625D-01
72  7.1000000000000D-01  1.2207359993206D+00 -2.1423476923800D-01
73  7.2000000000000D-01  1.2274441606802D+00 -2.1011293651109D-01
74  7.3000000000000D-01  1.2334063367978D+00 -2.0536103767822D-01
75  7.4000000000000D-01  1.2385988243678D+00 -1.9993035391408D-01
76  7.5000000000000D-01  1.2429985651891D+00 -1.9377213465974D-01
77  7.6000000000000D-01  1.2465832498974D+00 -1.8683790417019D-01
78  7.7000000000000D-01  1.2493314224642D+00 -1.7907977657753D-01
79  7.8000000000000D-01  1.2512225849944D+00 -1.7045077778892D-01
80  7.9000000000000D-01  1.2522373023411D+00 -1.6090517246287D-01
81  8.0000000000000D-01  1.2523573060409D+00 -1.5039879424124D-01
82  8.1000000000000D-01  1.2515655970668D+00 -1.3888937735765D-01
83  8.2000000000000D-01  1.2498465468844D+00 -1.2633688769646D-01
84  8.3000000000000D-01  1.2471859962927D+00 -1.1270385134056D-01
85  8.4000000000000D-01  1.2435713515316D+00 -9.7955678621324D-02
86  8.5000000000000D-01  1.2389916771325D+00 -8.2060981670301D-02
87  8.6000000000000D-01  1.2334377849974D+00 -6.4991883470285D-02
88  8.7000000000000D-01  1.2269023191937D+00 -4.6724316413069D-02
89  8.8000000000000D-01  1.2193798359627D+00 -2.7238308393036D-02
90  8.9000000000000D-01  1.2108668784511D+00 -6.5182544992866D-03
91  9.0000000000000D-01  1.2013620456893D+00  1.5446827585159D-02
92  9.1000000000000D-01  1.1908660553563D+00  3.8663060310867D-02
93  9.2000000000000D-01  1.1793817998947D+00  6.3131488880457D-02
94  9.3000000000000D-01  1.1669143955590D+00  8.8847885441311D-02
95  9.4000000000000D-01  1.1534712240067D+00  1.1580257644330D-01
96  9.5000000000000D-01  1.1390619660719D+00  1.4398029464902D-01
97  9.6000000000000D-01  1.1236986273904D+00  1.7336005717042D-01
98  9.7000000000000D-01  1.1073955555770D+00  2.0391507078196D-01
99  9.8000000000000D-01  1.0901694486958D+00  2.3561266562531D-01
100  9.9000000000000D-01  1.0720393547959D+00  2.6841425828359D-01
101  1.0000000000000D+00  1.0530266623289D+00  3.0227534504744D-01
102  1.0100000000000D+00  1.0331550813034D+00  3.3714552604106D-01
103  1.0200000000000D+00  1.0124506150751D+00  3.7296856071227D-01
104  1.0300000000000D+00  9.9094152271461D-01  4.0968245502109D-01
105  1.0400000000000D+00  9.6865827194141D-01  4.4721958048549D-01
106  1.0500000000000D+00  9.4563348265619D-01  4.8550682506803D-01
107  1.0600000000000D+00  9.2190186115149D-01  5.2446577570834D-01
108  1.0700000000000D+00  8.9750012512844D-01  5.6401293211652D-01
109  1.0800000000000D+00  8.7246691969232D-01  6.0405995126842D-01
110  1.0900000000000D+00  8.4684272454910D-01  6.4451392185317D-01
111  1.1000000000000D+00  8.2066975266891D-01  6.8527766775115D-01
112  1.1100000000000D+00  7.9399184072887D-01  7.2625007944144D-01
113  1.1200000000000D+00  7.6685433169485D-01  7.6732647205305D-01
114  1.1300000000000D+00  7.3930394994300D-01  8.0839896861554D-01
115  1.1400000000000D+00  7.1138866936626D-01  8.4935690689212D-01
116  1.1500000000000D+00  6.8315757494574D-01  8.9008726804357D-01
117  1.1600000000000D+00  6.5466071831493D-01  9.3047512518689D-01
118  1.1700000000000D+00  6.2594896787477D-01  9.7040410979638D-01
119  1.1800000000000D+00  5.9707385405195D-01  1.0097568937642D+00
120  1.1900000000000D+00  5.6808741032360D-01  1.0484156848185D+00
121  1.2000000000000D+00  5.3904201066471D-01  1.0862627328744D+00
122  1.2100000000000D+00  5.0999020409718D-01  1.1231808448062D+00
123  1.2200000000000D+00  4.8098454703525D-01  1.1590539050719D+00
124  1.2300000000000D+00  4.5207743415344D-01  1.1937673995072D+00
125  1.2400000000000D+00  4.2332092850983D-01  1.2272089395813D+00
126  1.2500000000000D+00  3.9476659166847D-01  1.2592687843735D+00
127  1.2600000000000D+00  3.6646531457886D-01  1.2898403574775D+00
128  1.2700000000000D+00  3.3846714996919D-01  1.3188207560598D+00
129  1.2800000000000D+00  3.1082114701035D-01  1.3461112492947D+00
130  1.2900000000000D+00  2.8357518901044D-01  1.3716177634049D+00
131  1.3000000000000D+00  2.5677583487954D-01  1.3952513506213D+00
132  1.3100000000000D+00  2.3046816510437D-01  1.4169286393812D+00
133  1.3200000000000D+00  2.0469563295782D-01  1.4365722631550D+00
134  1.3300000000000D+00  1.7949992162526D-01  1.4541112654721D+00
135  1.3400000000000D+00  1.5492080794718D-01  1.4694814786478D+00
136  1.3500000000000D+00  1.3099603341974D-01  1.4826258739590D+00
137  1.3600000000000D+00  1.0776118304814D-01  1.4934948812120D+00
138  1.3700000000000D+00  8.5249572692020D-02  1.5020466754633D+00
139  1.3800000000000D+00  6.3492145394107D-02  1.5082474292698D+00
140  1.3900000000000D+00  4.2517377224010D-02  1.5120715286765D+00
141  1.4000000000000D+00  2.2351193129442D-02  1.5135017513155D+00
142  1.4100000000000D+00  3.0168931328734D-03  1.5125294056199D+00
143  1.4200000000000D+00 -1.5464910649430D-02  1.5091544295914D+00
144  1.4300000000000D+00 -3.3076345936831D-02  1.5033854485705D+00
145  1.4400000000000D+00 -4.9802320866986D-02  1.4952397911820D+00
146  1.4500000000000D+00 -6.5630552962249D-02  1.4847434627464D+00
147  1.4600000000000D+00 -8.0551586465552D-02  1.4719310764572D+00
148  1.4700000000000D+00 -9.4558797744997D-02  1.4568457414892D+00
149  1.4800000000000D+00 -1.0764838892528D-01  1.4395389090282D+00
150  1.4900000000000D+00 -1.1981936961520D-01  1.4200701760583D+00
151  1.5000000000000D+00 -1.3107352685876D-01  1.3985070477769D+00
152  1.5100000000000D+00 -1.4141538348436D-01  1.3749246596708D+00
153  1.5200000000000D+00 -1.5085214489133D-01  1.3494054597822D+00
154  1.5300000000000D+00 -1.5939363475865D-01  1.3220388533927D+00
155  1.5400000000000D+00 -1.6705221966304D-01  1.2929208104638D+00
156  1.5500000000000D+00 -1.7384272328514D-01  1.2621534387900D+00
157  1.5600000000000D+00 -1.7978233031132D-01  1.2298445236702D+00
158  1.5700000000000D+00 -1.8489048071679D-01  1.1961070370666D+00
159  1.5800000000000D+00 -1.8918875476453D-01  1.1610586179067D+00
160  1.5900000000000D+00 -1.9270074936095D-01  1.1248210263274D+00
161  1.6000000000000D+00 -1.9545194631854D-01  1.0875195742938D+00
162  1.6100000000000D+00 -1.9746957313108D-01  1.0492825352705D+00
163  1.6200000000000D+00 -1.9878245698317D-01  1.0102405359558D+00
164  1.6300000000000D+00 -1.9942087259021D-01  9.7052593274900D-01
165  1.6400000000000D+00 -1.9941638470388D-01  9.3027217628718D-01
166  1.6500000000000D+00 -1.9880168590266D-01  8.8961316684880D-01
167  1.6600000000000D+00 -1.9761043055122D-01  8.4868260401790D-01
168  1.6700000000000D+00 -1.9587706560507D-01  8.0761333366507D-01
169  1.6800000000000D+00 -1.9363665912903D-01  7.6653669543509D-01
170  1.6900000000000D+00 -1.9092472729135D-01  7.2558187416237D-01
171  1.7000000000000D+00 -1.8777706062883D-01  6.8487525797344D-01
172  1.7100000000000D+00 -1.8422955044908D-01  6.4453980692015D-01
173  1.7200000000000D+00 -1.8031801604656D-01  6.0469443430653D-01
174  1.7300000000000D+00 -1.7607803370567D-01  5.6545340495892D-01
175  1.7400000000000D+00 -1.7154476802362D-01  5.2692575193409D-01
176  1.7500000000000D+00 -1.6675280592650D-01  4.8921471202132D-01
177  1.7600000000000D+00 -1.6173599812005D-01  4.5241720740316D-01
178  1.7700000000000D+00 -1.5652729326143D-01  4.1662328386769D-01
179  1.7800000000000D+00 -1.5115860784564D-01  3.8191575333951D-01
180  1.7900000000000D+00 -1.4566067058191D-01  3.4836969720674D-01
181  1.8000000000000D+00 -1.4006283245069D-01  3.1605173643230D-01
182  1.8100000000000D+00 -1.3439299510607D-01  2.8502001533586D-01
183  1.8200000000000D+00 -1.2867761811032D-01  2.5532468518569D-01
184  1.8300000000000D+00 -1.2294171441694D-01  2.2700823130062D-01
185  1.8400000000000D+00 -1.1720890040386D-01  2.0010599573423D-01
186  1.8500000000000D+00 -1.1150145919739D-01  1.7464678985147D-01
187  1.8600000000000D+00 -1.0584025060498D-01  1.5065252799512D-01
188  1.8700000000000D+00 -1.0024466145103D-01  1.2813805125896D-01
189  1.8800000000000D+00 -9.4732614708986D-02  1.0711136419740D-01
190  1.8900000000000D+00 -8.9320546534157D-02  8.7573626790174D-02
191  1.9000000000000D+00 -8.4023405155264D-02  6.9519275209969D-02
192  1.9100000000000D+00 -7.8854655150171D-02  5.2936162190828D-02
193  1.9200000000000D+00 -7.3826289267245D-02  3.7805729892695D-02
194  1.9300000000000D+00 -6.8948848012814D-02  2.4103217363312D-02
195  1.9400000000000D+00 -6.4231446287716D-02  1.1797898742055D-02
196  1.9500000000000D+00 -5.9681807566963D-02  8.5335421198311D-04
197  1.9600000000000D+00 -5.5306304100030D-02 -8.7722332618342D-03
198  1.9700000000000D+00 -5.1110004262614D-02 -1.7125750611220D-02
199  1.9800000000000D+00 -4.7096725267553D-02 -2.4258804875286D-02
200  1.9900000000000D+00 -4.3269091844979D-02 -3.0227348485630D-02
201  2.0000000000000D+00 -3.9628599965447D-02 -3.5091283897786D-02
202  2.0100000000000D+00 -3.6175685080244D-02 -3.8914050097450D-02
203  2.0200000000000D+00 -3.2909794877724D-02 -4.1762191245507D-02
204  2.0300000000000D+00 -2.9829465274604D-02 -4.3704913195218D-02
205  2.0400000000000D+00 -2.6932399909956D-02 -4.4813627080796D-02
206  2.0500000000000D+00 -2.4215551981850D-02 -4.5161485104294D-02
207  2.0600000000000D+00 -2.1675208147010D-02 -4.4822910073152D-02
208  2.0700000000000D+00 -1.9307073897872D-02 -4.3873121458353D-02
209  2.0800000000000D+00 -1.7106359765875D-02 -4.2387660862938D-02
210  2.0900000000000D+00 -1.5067867751281D-02 -4.0441920038544D-02
211  2.1000000000000D+00 -1.3186077589892D-02 -3.8110672967560D-02
212  2.1100000000000D+00 -1.1455232011557D-02 -3.5467616194898D-02
213  2.1200000000000D+00 -9.8694205273682D-03 -3.2584919520986D-02
214  2.1300000000000D+00 -8.4226615626829D-03 -2.9532787818999D-02
215  2.1400000000000D+00 -7.1089814511784D-03 -2.6379041111733D-02
216  2.1500000000000D+00 -5.9224910268674D-03 -2.3188709258710D-02
217  2.1600000000000D+00 -4.8574582926549D-03 -2.0023648484455D-02
218  2.1700000000000D+00 -3.9083768323098D-03 -1.6942181272842D-02
219  2.1800000000000D+00 -3.0700307252308D-03 -1.3998756012273D-02
220  2.1900000000000D+00 -2.3377066984959D-03 -1.1245448450368D-02
221  2.2000000000000D+00 -1.7068279690181D-03 -8.7267213907537D-03
222  2.2100000000000D+00 -1.1729043955807D-03 -6.4780113629893D-03
223  2.2200000000000D+00 -7.3219463960554D-04 -4.5216333540628D-03
224  2.2300000000000D+00 -3.8299913276968D-04 -2.9240680508456D-03
225  2.2400000000000D+00 -1.2342582894233D-04 -1.7385709501822D-03
226  2.2500000000000D+00  5.0583821770512D-05 -9.8657343040579D-04
227  2.2600000000000D+00  1.3759406090669D-04 -5.4604680734882D-04
228  2.2700000000000D+00  1.4059335754790D-04 -2.8578327245531D-04
229  2.2800000000000D+00  8.4179424346541D-05 -1.1560902952950D-04
230  2.2900000000000D+00  1.5503308219970D-05 -1.6773906363655D-05
231  2.3000000000000D+00 -1.8007051806830D-05  1.7260768709880D-05
232  2.3100000000000D+00 -1.7256824658884D-05  1.4338801414076D-05
233  2.3200000000000D+00 -3.1263042364160D-07  2.3219590207428D-07
234  2.3300000000000D+00  4.2284848780934D-06 -5.0477993316165D-06
235  2.3400000000000D+00  3.2832982605899D-06 -3.7467908664202D-06
236  2.3500000000000D+00 -1.1073686913614D-07  2.8985402571071D-07
237  2.3600000000000D+00 -4.2366368757657D-07  1.1089407380711D-06
238  2.3700000000000D+00 -2.5828775057425D-07  6.7606881863052D-07
239  2.3800000000000D+00  0.0000000000000D+00  0.0000000000000D+00
240  2.3900000000000D+00  0.0000000000000D+00  0.0000000000000D+00
241  2.4000000000000D+00  0.0000000000000D+00  0.0000000000000D+00
242  2.4100000000000D+00  0.0000000000000D+00  0.0000000000000D+00
243  2.4200000000000D+00  0.0000000000000D+00  0.0000000000000D+00
244  2.4300000000000D+00  0.0000000000000D+00  0.0000000000000D+00
245  2.4400000000000D+00  0.0000000000000D+00  0.0000000000000D+00
246  2.4500000000000D+00  0.0000000000000D+00  0.0000000000000D+00
247  2.4600000000000D+00  0.0000000000000D+00  0.0000000000000D+00
248  2.4700000000000D+00  0.0000000000000D+00  0.0000000000000D+00
249  2.4800000000000D+00  0.0000000000000D+00  0.0000000000000D+00
250  2.4900000000000D+00  0.0000000000000D+00  0.0000000000000D+00
251  2.5000000000000D+00  0.0000000000000D+00  0.0000000000000D+00
252  2.5100000000000D+00  0.0000000000000D+00  0.0000000000000D+00
253  2.5200000000000D+00  0.0000000000000D+00  0.0000000000000D+00
254  2.5300000000000D+00  0.0000000000000D+00  0.0000000000000D+00
255  2.5400000000000D+00  0.0000000000000D+00  0.0000000000000D+00
256  2.5500000000000D+00  0.0000000000000D+00  0.0000000000000D+00
257  2.5600000000000D+00  0.0000000000000D+00  0.0000000000000D+00
258  2.5700000000000D+00  0.0000000000000D+00  0.0000000000000D+00
259  2.5800000000000D+00  0.0000000000000D+00  0.0000000000000D+00
260  2.5900000000000D+00  0.0000000000000D+00  0.0000000000000D+00
261  2.6000000000000D+00  0.0000000000000D+00  0.0000000000000D+00
262  2.6100000000000D+00  0.0000000000000D+00  0.0000000000000D+00
263  2.6200000000000D+00  0.0000000000000D+00  0.0000000000000D+00
264  2.6300000000000D+00  0.0000000000000D+00  0.0000000000000D+00
265  2.6400000000000D+00  0.0000000000000D+00  0.0000000000000D+00
266  2.6500000000000D+00  0.0000000000000D+00  0.0000000000000D+00
267  2.6600000000000D+00  0.0000000000000D+00  0.0000000000000D+00
268  2.6700000000000D+00  0.0000000000000D+00  0.0000000000000D+00
269  2.6800000000000D+00  0.0000000000000D+00  0.0000000000000D+00
270  2.6900000000000D+00  0.0000000000000D+00  0.0000000000000D+00
271  2.7000000000000D+00  0.0000000000000D+00  0.0000000000000D+00
272  2.7100000000000D+00  0.0000000000000D+00  0.0000000000000D+00
273  2.7200000000000D+00  0.0000000000000D+00  0.0000000000000D+00
274  2.7300000000000D+00  0.0000000000000D+00  0.0000000000000D+00
275  2.7400000000000D+00  0.0000000000000D+00  0.0000000000000D+00
276  2.7500000000000D+00  0.0000000000000D+00  0.0000000000000D+00
277  2.7600000000000D+00  0.0000000000000D+00  0.0000000000000D+00
278  2.7700000000000D+00  0.0000000000000D+00  0.0000000000000D+00
279  2.7800000000000D+00  0.0000000000000D+00  0.0000000000000D+00
280  2.7900000000000D+00  0.0000000000000D+00  0.0000000000000D+00
281  2.8000000000000D+00  0.0000000000000D+00  0.0000000000000D+00
282  2.8100000000000D+00  0.0000000000000D+00  0.0000000000000D+00
283  2.8200000000000D+00  0.0000000000000D+00  0.0000000000000D+00
284  2.8300000000000D+00  0.0000000000000D+00  0.0000000000000D+00
285  2.8400000000000D+00  0.0000000000000D+00  0.0000000000000D+00
286  2.8500000000000D+00  0.0000000000000D+00  0.0000000000000D+00
287  2.8600000000000D+00  0.0000000000000D+00  0.0000000000000D+00
288  2.8700000000000D+00  0.0000000000000D+00  0.0000000000000D+00
289  2.8800000000000D+00  0.0000000000000D+00  0.0000000000000D+00
290  2.8900000000000D+00  0.0000000000000D+00  0.0000000000000D+00
291  2.9000000000000D+00  0.0000000000000D+00  0.0000000000000D+00
292  2.9100000000000D+00  0.0000000000000D+00  0.0000000000000D+00
293  2.9200000000000D+00  0.0000000000000D+00  0.0000000000000D+00
294  2.9300000000000D+00  0.0000000000000D+00  0.0000000000000D+00
295  2.9400000000000D+00  0.0000000000000D+00  0.0000000000000D+00
296  2.9500000000000D+00  0.0000000000000D+00  0.0000000000000D+00
297  2.9600000000000D+00  0.0000000000000D+00  0.0000000000000D+00
298  2.9700000000000D+00  0.0000000000000D+00  0.0000000000000D+00
299  2.9800000000000D+00  0.0000000000000D+00  0.0000000000000D+00
300  2.9900000000000D+00  0.0000000000000D+00  0.0000000000000D+00
301  3.0000000000000D+00  0.0000000000000D+00  0.0000000000000D+00
302  3.0100000000000D+00  0.0000000000000D+00  0.0000000000000D+00
303  3.0200000000000D+00  0.0000000000000D+00  0.0000000000000D+00
304  3.0300000000000D+00  0.0000000000000D+00  0.0000000000000D+00
305  3.0400000000000D+00  0.0000000000000D+00  0.0000000000000D+00
306  3.0500000000000D+00  0.0000000000000D+00  0.0000000000000D+00
307  3.0600000000000D+00  0.0000000000000D+00  0.0000000000000D+00
308  3.0700000000000D+00  0.0000000000000D+00  0.0000000000000D+00
309  3.0800000000000D+00  0.0000000000000D+00  0.0000000000000D+00
310  3.0900000000000D+00  0.0000000000000D+00  0.0000000000000D+00
311  3.1000000000000D+00  0.0000000000000D+00  0.0000000000000D+00
312  3.1100000000000D+00  0.0000000000000D+00  0.0000000000000D+00
313  3.1200000000000D+00  0.0000000000000D+00  0.0000000000000D+00
314  3.1300000000000D+00  0.0000000000000D+00  0.0000000000000D+00
315  3.1400000000000D+00  0.0000000000000D+00  0.0000000000000D+00
316  3.1500000000000D+00  0.0000000000000D+00  0.0000000000000D+00
317  3.1600000000000D+00  0.0000000000000D+00  0.0000000000000D+00
318  3.1700000000000D+00  0.0000000000000D+00  0.0000000000000D+00
319  3.1800000000000D+00  0.0000000000000D+00  0.0000000000000D+00
320  3.1900000000000D+00  0.0000000000000D+00  0.0000000000000D+00
321  3.2000000000000D+00  0.0000000000000D+00  0.0000000000000D+00
322  3.2100000000000D+00  0.0000000000000D+00  0.0000000000000D+00
323  3.2200000000000D+00  0.0000000000000D+00  0.0000000000000D+00
324  3.2300000000000D+00  0.0000000000000D+00  0.0000000000000D+00
325  3.2400000000000D+00  0.0000000000000D+00  0.0000000000000D+00
326  3.2500000000000D+00  0.0000000000000D+00  0.0000000000000D+00
327  3.2600000000000D+00  0.0000000000000D+00  0.0000000000000D+00
328  3.2700000000000D+00  0.0000000000000D+00  0.0000000000000D+00
329  3.2800000000000D+00  0.0000000000000D+00  0.0000000000000D+00
330  3.2900000000000D+00  0.0000000000000D+00  0.0000000000000D+00
331  3.3000000000000D+00  0.0000000000000D+00  0.0000000000000D+00
332  3.3100000000000D+00  0.0000000000000D+00  0.0000000000000D+00
333  3.3200000000000D+00  0.0000000000000D+00  0.0000000000000D+00
334  3.3300000000000D+00  0.0000000000000D+00  0.0000000000000D+00
335  3.3400000000000D+00  0.0000000000000D+00  0.0000000000000D+00
336  3.3500000000000D+00  0.0000000000000D+00  0.0000000000000D+00
337  3.3600000000000D+00  0.0000000000000D+00  0.0000000000000D+00
338  3.3700000000000D+00  0.0000000000000D+00  0.0000000000000D+00
339  3.3800000000000D+00  0.0000000000000D+00  0.0000000000000D+00
340  3.3900000000000D+00  0.0000000000000D+00  0.0000000000000D+00
341  3.4000000000000D+00  0.0000000000000D+00  0.0000000000000D+00
342  3.4100000000000D+00  0.0000000000000D+00  0.0000000000000D+00
343  3.4200000000000D+00  0.0000000000000D+00  0.0000000000000D+00
344  3.4300000000000D+00  0.0000000000000D+00  0.0000000000000D+00
345  3.4400000000000D+00  0.0000000000000D+00  0.0000000000000D+00
346  3.4500000000000D+00  0.0000000000000D+00  0.0000000000000D+00
347  3.4600000000000D+00  0.0000000000000D+00  0.0000000000000D+00
348  3.4700000000000D+00  0.0000000000000D+00  0.0000000000000D+00
349  3.4800000000000D+00  0.0000000000000D+00  0.0000000000000D+00
350  3.4900000000000D+00  0.0000000000000D+00  0.0000000000000D+00
351  3.5000000000000D+00  0.0000000000000D+00  0.0000000000000D+00
352  3.5100000000000D+00  0.0000000000000D+00  0.0000000000000D+00
353  3.5200000000000D+00  0.0000000000000D+00  0.0000000000000D+00
354  3.5300000000000D+00  0.0000000000000D+00  0.0000000000000D+00
355  3.5400000000000D+00  0.0000000000000D+00  0.0000000000000D+00
356  3.5500000000000D+00  0.0000000000000D+00  0.0000000000000D+00
357  3.5600000000000D+00  0.0000000000000D+00  0.0000000000000D+00
358  3.5700000000000D+00  0.0000000000000D+00  0.0000000000000D+00
359  3.5800000000000D+00  0.0000000000000D+00  0.0000000000000D+00
360  3.5900000000000D+00  0.0000000000000D+00  0.0000000000000D+00
361  3.6000000000000D+00  0.0000000000000D+00  0.0000000000000D+00
362  3.6100000000000D+00  0.0000000000000D+00  0.0000000000000D+00
363  3.6200000000000D+00  0.0000000000000D+00  0.0000000000000D+00
364  3.6300000000000D+00  0.0000000000000D+00  0.0000000000000D+00
365  3.6400000000000D+00  0.0000000000000D+00  0.0000000000000D+00
366  3.6500000000000D+00  0.0000000000000D+00  0.0000000000000D+00
367  3.6600000000000D+00  0.0000000000000D+00  0.0000000000000D+00
368  3.6700000000000D+00  0.0000000000000D+00  0.0000000000000D+00
369  3.6800000000000D+00  0.0000000000000D+00  0.0000000000000D+00
370  3.6900000000000D+00  0.0000000000000D+00  0.0000000000000D+00
371  3.7000000000000D+00  0.0000000000000D+00  0.0000000000000D+00
372  3.7100000000000D+00  0.0000000000000D+00  0.0000000000000D+00
373  3.7200000000000D+00  0.0000000000000D+00  0.0000000000000D+00
374  3.7300000000000D+00  0.0000000000000D+00  0.0000000000000D+00
375  3.7400000000000D+00  0.0000000000000D+00  0.0000000000000D+00
376  3.7500000000000D+00  0.0000000000000D+00  0.0000000000000D+00
377  3.7600000000000D+00  0.0000000000000D+00  0.0000000000000D+00
378  3.7700000000000D+00  0.0000000000000D+00  0.0000000000000D+00
379  3.7800000000000D+00  0.0000000000000D+00  0.0000000000000D+00
380  3.7900000000000D+00  0.0000000000000D+00  0.0000000000000D+00
381  3.8000000000000D+00  0.0000000000000D+00  0.0000000000000D+00
382  3.8100000000000D+00  0.0000000000000D+00  0.0000000000000D+00
383  3.8200000000000D+00  0.0000000000000D+00  0.0000000000000D+00
384  3.8300000000000D+00  0.0000000000000D+00  0.0000000000000D+00
385  3.8400000000000D+00  0.0000000000000D+00  0.0000000000000D+00
386  3.8500000000000D+00  0.0000000000000D+00  0.0000000000000D+00
387  3.8600000000000D+00  0.0000000000000D+00  0.0000000000000D+00
388  3.8700000000000D+00  0.0000000000000D+00  0.0000000000000D+00
389  3.8800000000000D+00  0.0000000000000D+00  0.0000000000000D+00
390  3.8900000000000D+00  0.0000000000000D+00  0.0000000000000D+00
391  3.9000000000000D+00  0.0000000000000D+00  0.0000000000000D+00
392  3.9100000000000D+00  0.0000000000000D+00  0.0000000000000D+00
393  3.9200000000000D+00  0.0000000000000D+00  0.0000000000000D+00
394  3.9300000000000D+00  0.0000000000000D+00  0.0000000000000D+00
395  3.9400000000000D+00  0.0000000000000D+00  0.0000000000000D+00
396  3.9500000000000D+00  0.0000000000000D+00  0.0000000000000D+00
397  3.9600000000000D+00  0.0000000000000D+00  0.0000000000000D+00
398  3.9700000000000D+00  0.0000000000000D+00  0.0000000000000D+00
399  3.9800000000000D+00  0.0000000000000D+00  0.0000000000000D+00
400  3.9900000000000D+00  0.0000000000000D+00  0.0000000000000D+00
401  4.0000000000000D+00  0.0000000000000D+00  0.0000000000000D+00
402  4.0100000000000D+00  0.0000000000000D+00  0.0000000000000D+00
403  4.0200000000000D+00  0.0000000000000D+00  0.0000000000000D+00
404  4.0300000000000D+00  0.0000000000000D+00  0.0000000000000D+00
405  4.0400000000000D+00  0.0000000000000D+00  0.0000000000000D+00
406  4.0500000000000D+00  0.0000000000000D+00  0.0000000000000D+00
407  4.0600000000000D+00  0.0000000000000D+00  0.0000000000000D+00
408  4.0700000000000D+00  0.0000000000000D+00  0.0000000000000D+00
409  4.0800000000000D+00  0.0000000000000D+00  0.0000000000000D+00
410  4.0900000000000D+00  0.0000000000000D+00  0.0000000000000D+00
411  4.1000000000000D+00  0.0000000000000D+00  0.0000000000000D+00
412  4.1100000000000D+00  0.0000000000000D+00  0.0000000000000D+00
413  4.1200000000000D+00  0.0000000000000D+00  0.0000000000000D+00
414  4.1300000000000D+00  0.0000000000000D+00  0.0000000000000D+00
415  4.1400000000000D+00  0.0000000000000D+00  0.0000000000000D+00
416  4.1500000000000D+00  0.0000000000000D+00  0.0000000000000D+00
417  4.1600000000000D+00  0.0000000000000D+00  0.0000000000000D+00
418  4.1700000000000D+00  0.0000000000000D+00  0.0000000000000D+00
419  4.1800000000000D+00  0.0000000000000D+00  0.0000000000000D+00
420  4.1900000000000D+00  0.0000000000000D+00  0.0000000000000D+00
421  4.2000000000000D+00  0.0000000000000D+00  0.0000000000000D+00
422  4.2100000000000D+00  0.0000000000000D+00  0.0000000000000D+00
423  4.2200000000000D+00  0.0000000000000D+00  0.0000000000000D+00
424  4.2300000000000D+00  0.0000000000000D+00  0.0000000000000D+00
425  4.2400000000000D+00  0.0000000000000D+00  0.0000000000000D+00
426  4.2500000000000D+00  0.0000000000000D+00  0.0000000000000D+00
427  4.2600000000000D+00  0.0000000000000D+00  0.0000000000000D+00
428  4.2700000000000D+00  0.0000000000000D+00  0.0000000000000D+00
429  4.2800000000000D+00  0.0000000000000D+00  0.0000000000000D+00
430  4.2900000000000D+00  0.0000000000000D+00  0.0000000000000D+00
431  4.3000000000000D+00  0.0000000000000D+00  0.0000000000000D+00
432  4.3100000000000D+00  0.0000000000000D+00  0.0000000000000D+00
433  4.3200000000000D+00  0.0000000000000D+00  0.0000000000000D+00
434  4.3300000000000D+00  0.0000000000000D+00  0.0000000000000D+00
435  4.3400000000000D+00  0.0000000000000D+00  0.0000000000000D+00
436  4.3500000000000D+00  0.0000000000000D+00  0.0000000000000D+00
437  4.3600000000000D+00  0.0000000000000D+00  0.0000000000000D+00
438  4.3700000000000D+00  0.0000000000000D+00  0.0000000000000D+00
439  4.3800000000000D+00  0.0000000000000D+00  0.0000000000000D+00
440  4.3900000000000D+00  0.0000000000000D+00  0.0000000000000D+00
441  4.4000000000000D+00  0.0000000000000D+00  0.0000000000000D+00
442  4.4100000000000D+00  0.0000000000000D+00  0.0000000000000D+00
443  4.4200000000000D+00  0.0000000000000D+00  0.0000000000000D+00