Te    ONCVPSP-3.3.0  r_core=   1.30874   1.30874   1.51015
52.0000     24.0000      171103    zatom,zion,pspd
8   -1012   2     4   600     0    pspcod,pspxc,lmax,lloc,mmax,r2well
5.99000000  5.00000000  0.00000000    rchrg fchrg qchrg
2     2     2     0     0    nproj
1     1           extension_switch
0                         9.0694225484029D+00 -3.7275573389747D-01
1  0.0000000000000D+00 -5.8700933003308D-10 -1.0645947512433D-08
2  1.0000000000000D-02  9.2600929434883D-02  6.5443845282685D-02
3  2.0000000000000D-02  1.8491454964822D-01  1.3022669014821D-01
4  3.0000000000000D-02  2.7665486798398D-01  1.9369684803095D-01
5  4.0000000000000D-02  3.6753851406361D-01  2.5522110330336D-01
6  5.0000000000000D-02  4.5728602394424D-01  3.1419355761551D-01
7  6.0000000000000D-02  5.4562309232665D-01  3.7004401702163D-01
8  7.0000000000000D-02  6.3228178286604D-01  4.2224577958121D-01
9  8.0000000000000D-02  7.1700168722545D-01  4.7032269376787D-01
10  9.0000000000000D-02  7.9953102422652D-01  5.1385537097072D-01
11  1.0000000000000D-01  8.7962767128209D-01  5.5248645040080D-01
12  1.1000000000000D-01  9.5706012122657D-01  5.8592483155491D-01
13  1.2000000000000D-01  1.0316083586763D+00  6.1394880774120D-01
14  1.3000000000000D-01  1.1030646511359D+00  6.3640805371285D-01
15  1.4000000000000D-01  1.1712342512014D+00  6.5322444083780D-01
16  1.5000000000000D-01  1.2359360073719D+00  6.6439167409438D-01
17  1.6000000000000D-01  1.2970028821579D+00  6.6997376615094D-01
18  1.7000000000000D-01  1.3542823773353D+00  6.7010238448751D-01
19  1.8000000000000D-01  1.4076368673302D+00  6.6497312757860D-01
20  1.9000000000000D-01  1.4569438428028D+00  6.5484080521559D-01
21  2.0000000000000D-01  1.5020960675192D+00  6.4001381576166D-01
22  2.1000000000000D-01  1.5430016525315D+00  6.2084772917743D-01
23  2.2000000000000D-01  1.5795840525242D+00  5.9773819873902D-01
24  2.3000000000000D-01  1.6117819899045D+00  5.7111333623075D-01
25  2.4000000000000D-01  1.6395493128137D+00  5.4142569480991D-01
26  2.5000000000000D-01  1.6628547936980D+00  5.0914401053239D-01
27  2.6000000000000D-01  1.6816818754044D+00  4.7474485756016D-01
28  2.7000000000000D-01  1.6960283719425D+00  4.3870437326169D-01
29  2.8000000000000D-01  1.7059061310903D+00  4.0149020772775D-01
30  2.9000000000000D-01  1.7113406659074D+00  3.6355384767610D-01
31  3.0000000000000D-01  1.7123707619723D+00  3.2532345737693D-01
32  3.1000000000000D-01  1.7090480667716D+00  2.8719736921552D-01
33  3.2000000000000D-01  1.7014366671629D+00  2.4953834398862D-01
34  3.3000000000000D-01  1.6896126602127D+00  2.1266870621916D-01
35  3.4000000000000D-01  1.6736637219891D+00  1.7686644292923D-01
36  3.5000000000000D-01  1.6536886780901D+00  1.4236233573040D-01
37  3.6000000000000D-01  1.6297970788209D+00  1.0933817610070D-01
38  3.7000000000000D-01  1.6021087810220D+00  7.7926092682965D-02
39  3.8000000000000D-01  1.5707535376142D+00  4.8208997733691D-02
40  3.9000000000000D-01  1.5358705949826D+00  2.0222137878453D-02
41  4.0000000000000D-01  1.4976082973978D+00 -6.0442875112507D-03
42  4.1000000000000D-01  1.4561236967829D+00 -3.0641498303865D-02
43  4.2000000000000D-01  1.4115821653061D+00 -5.3657574298971D-02
44  4.3000000000000D-01  1.3641570075215D+00 -7.5212061993611D-02
45  4.4000000000000D-01  1.3140290681261D+00 -9.5449862125908D-02
46  4.5000000000000D-01  1.2613863308511D+00 -1.1453452799086D-01
47  4.6000000000000D-01  1.2064235035865D+00 -1.3264111747172D-01
48  4.7000000000000D-01  1.1493415845561D+00 -1.4994875206647D-01
49  4.8000000000000D-01  1.0903474042255D+00 -1.6663304368894D-01
50  4.9000000000000D-01  1.0296531376470D+00 -1.8285855451465D-01
51  5.0000000000000D-01  9.6747578212380D-01 -1.9877145650243D-01
52  5.1000000000000D-01  9.0403659541776D-01 -2.1449255538954D-01
53  5.2000000000000D-01  8.3956049021671D-01 -2.3011083892310D-01
54  5.3000000000000D-01  7.7427538122798D-01 -2.4567770090091D-01
55  5.4000000000000D-01  7.0841148205108D-01 -2.6120198138445D-01
56  5.5000000000000D-01  6.4220054990354D-01 -2.7664594933403D-01
57  5.6000000000000D-01  5.7587507730761D-01 -2.9192233718828D-01
58  5.7000000000000D-01  5.0966743097752D-01 -3.0689251779316D-01
59  5.8000000000000D-01  4.4380893935846D-01 -3.2136589290475D-01
60  5.9000000000000D-01  3.7852893153197D-01 -3.3510053966831D-01
61  6.0000000000000D-01  3.1405373150253D-01 -3.4780513730415D-01
62  6.1000000000000D-01  2.5060561318290D-01 -3.5914217126775D-01
63  6.2000000000000D-01  1.8840172268117D-01 -3.6873238676597D-01
64  6.3000000000000D-01  1.2765297573515D-01 -3.7616043812617D-01
65  6.4000000000000D-01  6.8562939302867D-02 -3.8098165584721D-01
66  6.5000000000000D-01  1.1326707394412D-02 -3.8272982925516D-01
67  6.6000000000000D-01 -4.3870217823498D-02 -3.8092588044941D-01
68  6.7000000000000D-01 -9.6853027815885D-02 -3.7508728485259D-01
69  6.8000000000000D-01 -1.4745867988509D-01 -3.6473807551529D-01
70  6.9000000000000D-01 -1.9553692686704D-01 -3.4941925300294D-01
71  7.0000000000000D-01 -2.4095129113752D-01 -3.2869941032319D-01
72  7.1000000000000D-01 -2.8357996970646D-01 -3.0218537328787D-01
73  7.2000000000000D-01 -3.2331665735992D-01 -2.6953265118786D-01
74  7.3000000000000D-01 -3.6007127521643D-01 -2.3045549084732D-01
75  7.4000000000000D-01 -3.9377059270066D-01 -1.8473632910339D-01
76  7.5000000000000D-01 -4.2435873179707D-01 -1.3223444456269D-01
77  7.6000000000000D-01 -4.5179754352331D-01 -7.2893619068484D-02
78  7.7000000000000D-01 -4.7606684785149D-01 -6.7486326382998D-03
79  7.8000000000000D-01 -4.9716452977958D-01  6.6069567604371D-02
80  7.9000000000000D-01 -5.1510648590568D-01  1.4533016390543D-01
81  8.0000000000000D-01 -5.2992641765763D-01  2.3070034614233D-01
82  8.1000000000000D-01 -5.4167546925472D-01  3.2174486263252D-01
83  8.2000000000000D-01 -5.5042171049843D-01  4.1792730644963D-01
84  8.3000000000000D-01 -5.5624946657419D-01  5.1861317069541D-01
85  8.4000000000000D-01 -5.5925849916322D-01  6.2307467544971D-01
86  8.5000000000000D-01 -5.5956304527822D-01  7.3049733771359D-01
87  8.6000000000000D-01 -5.5729072231425D-01  8.3998822412600D-01
88  8.7000000000000D-01 -5.5258130981084D-01  9.5058579513447D-01
89  8.8000000000000D-01 -5.4558542031882D-01  1.0612712192006D+00
90  8.9000000000000D-01 -5.3646307352182D-01  1.1709810070759D+00
91  9.0000000000000D-01 -5.2538218934521D-01  1.2786207897275D+00
92  9.1000000000000D-01 -5.1251701716564D-01  1.3830800396375D+00
93  9.2000000000000D-01 -4.9804651938405D-01  1.4832475144001D+00
94  9.3000000000000D-01 -4.8215272852186D-01  1.5780271842319D+00
95  9.4000000000000D-01 -4.6501909762276D-01  1.6663543915406D+00
96  9.5000000000000D-01 -4.4682886407694D-01  1.7472119813734D+00
97  9.6000000000000D-01 -4.2776344701876D-01  1.8196461366201D+00
98  9.7000000000000D-01 -4.0800089818094D-01  1.8827816513763D+00
99  9.8000000000000D-01 -3.8771442549009D-01  1.9358363802939D+00
100  9.9000000000000D-01 -3.6707100784663D-01  1.9781346100760D+00
101  1.0000000000000D+00 -3.4623011831792D-01  2.0091191129959D+00
102  1.0100000000000D+00 -3.2534257153710D-01  2.0283616597964D+00
103  1.0200000000000D+00 -3.0454950938488D-01  2.0355717910669D+00
104  1.0300000000000D+00 -2.8398153708656D-01  2.0306036716493D+00
105  1.0400000000000D+00 -2.6375801966470D-01  2.0134608820000D+00
106  1.0500000000000D+00 -2.4398654639470D-01  1.9842990317374D+00
107  1.0600000000000D+00 -2.2476256847003D-01  1.9434261143388D+00
108  1.0700000000000D+00 -2.0616921238510D-01  1.8913005598059D+00
109  1.0800000000000D+00 -1.8827726903612D-01  1.8285269776408D+00
110  1.0900000000000D+00 -1.7114535575974D-01  1.7558496222083D+00
111  1.1000000000000D+00 -1.5482024602973D-01  1.6741436485740D+00
112  1.1100000000000D+00 -1.3933735892816D-01  1.5844042646384D+00
113  1.1200000000000D+00 -1.2472139791423D-01  1.4877339233098D+00
114  1.1300000000000D+00 -1.1098712624860D-01  1.3853277302996D+00
115  1.1400000000000D+00 -9.8140264222945D-02  1.2784572758031D+00
116  1.1500000000000D+00 -8.6178491648667D-02  1.1684531235047D+00
117  1.1600000000000D+00 -7.5092537016639D-02  1.0566862209887D+00
118  1.1700000000000D+00 -6.4867333696896D-02  9.4454851148748D-01
119  1.1800000000000D+00 -5.5483222472204D-02  8.3343304329787D-01
120  1.1900000000000D+00 -4.6917178833867D-02  7.2471388655098D-01
121  1.2000000000000D+00 -3.9144043079047D-02  6.1972617350778D-01
122  1.2100000000000D+00 -3.2137731508022D-02  5.1974657529969D-01
123  1.2200000000000D+00 -2.5872406847212D-02  4.2597453094576D-01
124  1.2300000000000D+00 -2.0323586981739D-02  3.3951453121075D-01
125  1.2400000000000D+00 -1.5469172326163D-02  2.6135974173572D-01
126  1.2500000000000D+00 -1.1290372831965D-02  1.9237724030986D-01
127  1.2600000000000D+00 -7.7725175160902D-03  1.3329511578542D-01
128  1.2700000000000D+00 -4.9074108050923D-03  8.4721217258161D-02
129  1.2800000000000D+00 -2.6818586835734D-03  4.6916241785849D-02
130  1.2900000000000D+00 -1.1056026587278D-03  2.0295123559040D-02
131  1.3000000000000D+00 -2.2459078678132D-04  5.7596559667139D-03
132  1.3100000000000D+00  7.3390875994187D-05  5.6451310729386D-04
133  1.3200000000000D+00  4.0646869706142D-05 -1.6214862067310D-04
134  1.3300000000000D+00 -1.8263147995701D-05  1.0490184136034D-04
135  1.3400000000000D+00 -1.0708735492904D-06  7.0951944038118D-06
136  1.3500000000000D+00  3.4359895079878D-06 -1.5714102592654D-05
137  1.3600000000000D+00 -1.2016931805553D-07 -1.7592950457087D-06
138  1.3700000000000D+00 -8.1089781223136D-08 -1.1871653486254D-06
139  1.3800000000000D+00  0.0000000000000D+00  0.0000000000000D+00
140  1.3900000000000D+00  0.0000000000000D+00  0.0000000000000D+00
141  1.4000000000000D+00  0.0000000000000D+00  0.0000000000000D+00
142  1.4100000000000D+00  0.0000000000000D+00  0.0000000000000D+00
143  1.4200000000000D+00  0.0000000000000D+00  0.0000000000000D+00
144  1.4300000000000D+00  0.0000000000000D+00  0.0000000000000D+00
145  1.4400000000000D+00  0.0000000000000D+00  0.0000000000000D+00
146  1.4500000000000D+00  0.0000000000000D+00  0.0000000000000D+00
147  1.4600000000000D+00  0.0000000000000D+00  0.0000000000000D+00
148  1.4700000000000D+00  0.0000000000000D+00  0.0000000000000D+00
149  1.4800000000000D+00  0.0000000000000D+00  0.0000000000000D+00
150  1.4900000000000D+00  0.0000000000000D+00  0.0000000000000D+00
151  1.5000000000000D+00  0.0000000000000D+00  0.0000000000000D+00
152  1.5100000000000D+00  0.0000000000000D+00  0.0000000000000D+00
153  1.5200000000000D+00  0.0000000000000D+00  0.0000000000000D+00
154  1.5300000000000D+00  0.0000000000000D+00  0.0000000000000D+00
155  1.5400000000000D+00  0.0000000000000D+00  0.0000000000000D+00
156  1.5500000000000D+00  0.0000000000000D+00  0.0000000000000D+00
157  1.5600000000000D+00  0.0000000000000D+00  0.0000000000000D+00
158  1.5700000000000D+00  0.0000000000000D+00  0.0000000000000D+00
159  1.5800000000000D+00  0.0000000000000D+00  0.0000000000000D+00
160  1.5900000000000D+00  0.0000000000000D+00  0.0000000000000D+00
161  1.6000000000000D+00  0.0000000000000D+00  0.0000000000000D+00
162  1.6100000000000D+00  0.0000000000000D+00  0.0000000000000D+00
163  1.6200000000000D+00  0.0000000000000D+00  0.0000000000000D+00
164  1.6300000000000D+00  0.0000000000000D+00  0.0000000000000D+00
165  1.6400000000000D+00  0.0000000000000D+00  0.0000000000000D+00
166  1.6500000000000D+00  0.0000000000000D+00  0.0000000000000D+00
167  1.6600000000000D+00  0.0000000000000D+00  0.0000000000000D+00
168  1.6700000000000D+00  0.0000000000000D+00  0.0000000000000D+00
169  1.6800000000000D+00  0.0000000000000D+00  0.0000000000000D+00
170  1.6900000000000D+00  0.0000000000000D+00  0.0000000000000D+00
171  1.7000000000000D+00  0.0000000000000D+00  0.0000000000000D+00
172  1.7100000000000D+00  0.0000000000000D+00  0.0000000000000D+00
173  1.7200000000000D+00  0.0000000000000D+00  0.0000000000000D+00
174  1.7300000000000D+00  0.0000000000000D+00  0.0000000000000D+00
175  1.7400000000000D+00  0.0000000000000D+00  0.0000000000000D+00
176  1.7500000000000D+00  0.0000000000000D+00  0.0000000000000D+00
177  1.7600000000000D+00  0.0000000000000D+00  0.0000000000000D+00
178  1.7700000000000D+00  0.0000000000000D+00  0.0000000000000D+00
179  1.7800000000000D+00  0.0000000000000D+00  0.0000000000000D+00
180  1.7900000000000D+00  0.0000000000000D+00  0.0000000000000D+00
181  1.8000000000000D+00  0.0000000000000D+00  0.0000000000000D+00
182  1.8100000000000D+00  0.0000000000000D+00  0.0000000000000D+00
183  1.8200000000000D+00  0.0000000000000D+00  0.0000000000000D+00
184  1.8300000000000D+00  0.0000000000000D+00  0.0000000000000D+00
185  1.8400000000000D+00  0.0000000000000D+00  0.0000000000000D+00
186  1.8500000000000D+00  0.0000000000000D+00  0.0000000000000D+00
187  1.8600000000000D+00  0.0000000000000D+00  0.0000000000000D+00
188  1.8700000000000D+00  0.0000000000000D+00  0.0000000000000D+00
189  1.8800000000000D+00  0.0000000000000D+00  0.0000000000000D+00
190  1.8900000000000D+00  0.0000000000000D+00  0.0000000000000D+00
191  1.9000000000000D+00  0.0000000000000D+00  0.0000000000000D+00
192  1.9100000000000D+00  0.0000000000000D+00  0.0000000000000D+00
193  1.9200000000000D+00  0.0000000000000D+00  0.0000000000000D+00
194  1.9300000000000D+00  0.0000000000000D+00  0.0000000000000D+00
195  1.9400000000000D+00  0.0000000000000D+00  0.0000000000000D+00
196  1.9500000000000D+00  0.0000000000000D+00  0.0000000000000D+00
197  1.9600000000000D+00  0.0000000000000D+00  0.0000000000000D+00
198  1.9700000000000D+00  0.0000000000000D+00  0.0000000000000D+00
199  1.9800000000000D+00  0.0000000000000D+00  0.0000000000000D+00
200  1.9900000000000D+00  0.0000000000000D+00  0.0000000000000D+00
201  2.0000000000000D+00  0.0000000000000D+00  0.0000000000000D+00
202  2.0100000000000D+00  0.0000000000000D+00  0.0000000000000D+00
203  2.0200000000000D+00  0.0000000000000D+00  0.0000000000000D+00
204  2.0300000000000D+00  0.0000000000000D+00  0.0000000000000D+00
205  2.0400000000000D+00  0.0000000000000D+00  0.0000000000000D+00
206  2.0500000000000D+00  0.0000000000000D+00  0.0000000000000D+00
207  2.0600000000000D+00  0.0000000000000D+00  0.0000000000000D+00
208  2.0700000000000D+00  0.0000000000000D+00  0.0000000000000D+00
209  2.0800000000000D+00  0.0000000000000D+00  0.0000000000000D+00
210  2.0900000000000D+00  0.0000000000000D+00  0.0000000000000D+00
211  2.1000000000000D+00  0.0000000000000D+00  0.0000000000000D+00
212  2.1100000000000D+00  0.0000000000000D+00  0.0000000000000D+00
213  2.1200000000000D+00  0.0000000000000D+00  0.0000000000000D+00
214  2.1300000000000D+00  0.0000000000000D+00  0.0000000000000D+00
215  2.1400000000000D+00  0.0000000000000D+00  0.0000000000000D+00
216  2.1500000000000D+00  0.0000000000000D+00  0.0000000000000D+00
217  2.1600000000000D+00  0.0000000000000D+00  0.0000000000000D+00
218  2.1700000000000D+00  0.0000000000000D+00  0.0000000000000D+00
219  2.1800000000000D+00  0.0000000000000D+00  0.0000000000000D+00
220  2.1900000000000D+00  0.0000000000000D+00  0.0000000000000D+00
221  2.2000000000000D+00  0.0000000000000D+00  0.0000000000000D+00
222  2.2100000000000D+00  0.0000000000000D+00  0.0000000000000D+00
223  2.2200000000000D+00  0.0000000000000D+00  0.0000000000000D+00
224  2.2300000000000D+00  0.0000000000000D+00  0.0000000000000D+00
225  2.2400000000000D+00  0.0000000000000D+00  0.0000000000000D+00
226  2.2500000000000D+00  0.0000000000000D+00  0.0000000000000D+00
227  2.2600000000000D+00  0.0000000000000D+00  0.0000000000000D+00
228  2.2700000000000D+00  0.0000000000000D+00  0.0000000000000D+00
229  2.2800000000000D+00  0.0000000000000D+00  0.0000000000000D+00
230  2.2900000000000D+00  0.0000000000000D+00  0.0000000000000D+00
231  2.3000000000000D+00  0.0000000000000D+00  0.0000000000000D+00
232  2.3100000000000D+00  0.0000000000000D+00  0.0000000000000D+00
233  2.3200000000000D+00  0.0000000000000D+00  0.0000000000000D+00
234  2.3300000000000D+00  0.0000000000000D+00  0.0000000000000D+00
235  2.3400000000000D+00  0.0000000000000D+00  0.0000000000000D+00
236  2.3500000000000D+00  0.0000000000000D+00  0.0000000000000D+00
237  2.3600000000000D+00  0.0000000000000D+00  0.0000000000000D+00
238  2.3700000000000D+00  0.0000000000000D+00  0.0000000000000D+00
239  2.3800000000000D+00  0.0000000000000D+00  0.0000000000000D+00
240  2.3900000000000D+00  0.0000000000000D+00  0.0000000000000D+00
241  2.4000000000000D+00  0.0000000000000D+00  0.0000000000000D+00
242  2.4100000000000D+00  0.0000000000000D+00  0.0000000000000D+00
243  2.4200000000000D+00  0.0000000000000D+00  0.0000000000000D+00
244  2.4300000000000D+00  0.0000000000000D+00  0.0000000000000D+00
245  2.4400000000000D+00  0.0000000000000D+00  0.0000000000000D+00
246  2.4500000000000D+00  0.0000000000000D+00  0.0000000000000D+00
247  2.4600000000000D+00  0.0000000000000D+00  0.0000000000000D+00
248  2.4700000000000D+00  0.0000000000000D+00  0.0000000000000D+00
249  2.4800000000000D+00  0.0000000000000D+00  0.0000000000000D+00
250  2.4900000000000D+00  0.0000000000000D+00  0.0000000000000D+00
251  2.5000000000000D+00  0.0000000000000D+00  0.0000000000000D+00
252  2.5100000000000D+00  0.0000000000000D+00  0.0000000000000D+00
253  2.5200000000000D+00  0.0000000000000D+00  0.0000000000000D+00
254  2.5300000000000D+00  0.0000000000000D+00  0.0000000000000D+00
255  2.5400000000000D+00  0.0000000000000D+00  0.0000000000000D+00
256  2.5500000000000D+00  0.0000000000000D+00  0.0000000000000D+00
257  2.5600000000000D+00  0.0000000000000D+00  0.0000000000000D+00
258  2.5700000000000D+00  0.0000000000000D+00  0.0000000000000D+00
259  2.5800000000000D+00  0.0000000000000D+00  0.0000000000000D+00
260  2.5900000000000D+00  0.0000000000000D+00  0.0000000000000D+00
261  2.6000000000000D+00  0.0000000000000D+00  0.0000000000000D+00
262  2.6100000000000D+00  0.0000000000000D+00  0.0000000000000D+00
263  2.6200000000000D+00  0.0000000000000D+00  0.0000000000000D+00
264  2.6300000000000D+00  0.0000000000000D+00  0.0000000000000D+00
265  2.6400000000000D+00  0.0000000000000D+00  0.0000000000000D+00
266  2.6500000000000D+00  0.0000000000000D+00  0.0000000000000D+00
267  2.6600000000000D+00  0.0000000000000D+00  0.0000000000000D+00
268  2.6700000000000D+00  0.0000000000000D+00  0.0000000000000D+00
269  2.6800000000000D+00  0.0000000000000D+00  0.0000000000000D+00
270  2.6900000000000D+00  0.0000000000000D+00  0.0000000000000D+00
271  2.7000000000000D+00  0.0000000000000D+00  0.0000000000000D+00
272  2.7100000000000D+00  0.0000000000000D+00  0.0000000000000D+00
273  2.7200000000000D+00  0.0000000000000D+00  0.0000000000000D+00
274  2.7300000000000D+00  0.0000000000000D+00  0.0000000000000D+00
275  2.7400000000000D+00  0.0000000000000D+00  0.0000000000000D+00
276  2.7500000000000D+00  0.0000000000000D+00  0.0000000000000D+00
277  2.7600000000000D+00  0.0000000000000D+00  0.0000000000000D+00
278  2.7700000000000D+00  0.0000000000000D+00  0.0000000000000D+00
279  2.7800000000000D+00  0.0000000000000D+00  0.0000000000000D+00
280  2.7900000000000D+00  0.0000000000000D+00  0.0000000000000D+00
281  2.8000000000000D+00  0.0000000000000D+00  0.0000000000000D+00
282  2.8100000000000D+00  0.0000000000000D+00  0.0000000000000D+00
283  2.8200000000000D+00  0.0000000000000D+00  0.0000000000000D+00
284  2.8300000000000D+00  0.0000000000000D+00  0.0000000000000D+00
285  2.8400000000000D+00  0.0000000000000D+00  0.0000000000000D+00
286  2.8500000000000D+00  0.0000000000000D+00  0.0000000000000D+00
287  2.8600000000000D+00  0.0000000000000D+00  0.0000000000000D+00
288  2.8700000000000D+00  0.0000000000000D+00  0.0000000000000D+00
289  2.8800000000000D+00  0.0000000000000D+00  0.0000000000000D+00
290  2.8900000000000D+00  0.0000000000000D+00  0.0000000000000D+00
291  2.9000000000000D+00  0.0000000000000D+00  0.0000000000000D+00
292  2.9100000000000D+00  0.0000000000000D+00  0.0000000000000D+00
293  2.9200000000000D+00  0.0000000000000D+00  0.0000000000000D+00
294  2.9300000000000D+00  0.0000000000000D+00  0.0000000000000D+00
295  2.9400000000000D+00  0.0000000000000D+00  0.0000000000000D+00
296  2.9500000000000D+00  0.0000000000000D+00  0.0000000000000D+00
297  2.9600000000000D+00  0.0000000000000D+00  0.0000000000000D+00
298  2.9700000000000D+00  0.0000000000000D+00  0.0000000000000D+00
299  2.9800000000000D+00  0.0000000000000D+00  0.0000000000000D+00
300  2.9900000000000D+00  0.0000000000000D+00  0.0000000000000D+00
301  3.0000000000000D+00  0.0000000000000D+00  0.0000000000000D+00
302  3.0100000000000D+00  0.0000000000000D+00  0.0000000000000D+00
303  3.0200000000000D+00  0.0000000000000D+00  0.0000000000000D+00
304  3.0300000000000D+00  0.0000000000000D+00  0.0000000000000D+00
305  3.0400000000000D+00  0.0000000000000D+00  0.0000000000000D+00
306  3.0500000000000D+00  0.0000000000000D+00  0.0000000000000D+00
307  3.0600000000000D+00  0.0000000000000D+00  0.0000000000000D+00
308  3.0700000000000D+00  0.0000000000000D+00  0.0000000000000D+00
309  3.0800000000000D+00  0.0000000000000D+00  0.0000000000000D+00
310  3.0900000000000D+00  0.0000000000000D+00  0.0000000000000D+00
311  3.1000000000000D+00  0.0000000000000D+00  0.0000000000000D+00
312  3.1100000000000D+00  0.0000000000000D+00  0.0000000000000D+00
313  3.1200000000000D+00  0.0000000000000D+00  0.0000000000000D+00
314  3.1300000000000D+00  0.0000000000000D+00  0.0000000000000D+00
315  3.1400000000000D+00  0.0000000000000D+00  0.0000000000000D+00
316  3.1500000000000D+00  0.0000000000000D+00  0.0000000000000D+00
317  3.1600000000000D+00  0.0000000000000D+00  0.0000000000000D+00
318  3.1700000000000D+00  0.0000000000000D+00  0.0000000000000D+00
319  3.1800000000000D+00  0.0000000000000D+00  0.0000000000000D+00
320  3.1900000000000D+00  0.0000000000000D+00  0.0000000000000D+00
321  3.2000000000000D+00  0.0000000000000D+00  0.0000000000000D+00
322  3.2100000000000D+00  0.0000000000000D+00  0.0000000000000D+00
323  3.2200000000000D+00  0.0000000000000D+00  0.0000000000000D+00
324  3.2300000000000D+00  0.0000000000000D+00  0.0000000000000D+00
325  3.2400000000000D+00  0.0000000000000D+00  0.0000000000000D+00
326  3.2500000000000D+00  0.0000000000000D+00  0.0000000000000D+00
327  3.2600000000000D+00  0.0000000000000D+00  0.0000000000000D+00
328  3.2700000000000D+00  0.0000000000000D+00  0.0000000000000D+00
329  3.2800000000000D+00  0.0000000000000D+00  0.0000000000000D+00
330  3.2900000000000D+00  0.0000000000000D+00  0.0000000000000D+00
331  3.3000000000000D+00  0.0000000000000D+00  0.0000000000000D+00
332  3.3100000000000D+00  0.0000000000000D+00  0.0000000000000D+00
333  3.3200000000000D+00  0.0000000000000D+00  0.0000000000000D+00
334  3.3300000000000D+00  0.0000000000000D+00  0.0000000000000D+00
335  3.3400000000000D+00  0.0000000000000D+00  0.0000000000000D+00
336  3.3500000000000D+00  0.0000000000000D+00  0.0000000000000D+00
337  3.3600000000000D+00  0.0000000000000D+00  0.0000000000000D+00
338  3.3700000000000D+00  0.0000000000000D+00  0.0000000000000D+00
339  3.3800000000000D+00  0.0000000000000D+00  0.0000000000000D+00
340  3.3900000000000D+00  0.0000000000000D+00  0.0000000000000D+00
341  3.4000000000000D+00  0.0000000000000D+00  0.0000000000000D+00
342  3.4100000000000D+00  0.0000000000000D+00  0.0000000000000D+00
343  3.4200000000000D+00  0.0000000000000D+00  0.0000000000000D+00
344  3.4300000000000D+00  0.0000000000000D+00  0.0000000000000D+00
345  3.4400000000000D+00  0.0000000000000D+00  0.0000000000000D+00
346  3.4500000000000D+00  0.0000000000000D+00  0.0000000000000D+00
347  3.4600000000000D+00  0.0000000000000D+00  0.0000000000000D+00
348  3.4700000000000D+00  0.0000000000000D+00  0.0000000000000D+00
349  3.4800000000000D+00  0.0000000000000D+00  0.0000000000000D+00
350  3.4900000000000D+00  0.0000000000000D+00  0.0000000000000D+00
351  3.5000000000000D+00  0.0000000000000D+00  0.0000000000000D+00
352  3.5100000000000D+00  0.0000000000000D+00  0.0000000000000D+00
353  3.5200000000000D+00  0.0000000000000D+00  0.0000000000000D+00
354  3.5300000000000D+00  0.0000000000000D+00  0.0000000000000D+00
355  3.5400000000000D+00  0.0000000000000D+00  0.0000000000000D+00
356  3.5500000000000D+00  0.0000000000000D+00  0.0000000000000D+00
357  3.5600000000000D+00  0.0000000000000D+00  0.0000000000000D+00
358  3.5700000000000D+00  0.0000000000000D+00  0.0000000000000D+00
359  3.5800000000000D+00  0.0000000000000D+00  0.0000000000000D+00
360  3.5900000000000D+00  0.0000000000000D+00  0.0000000000000D+00
361  3.6000000000000D+00  0.0000000000000D+00  0.0000000000000D+00
362  3.6100000000000D+00  0.0000000000000D+00  0.0000000000000D+00
363  3.6200000000000D+00  0.0000000000000D+00  0.0000000000000D+00
364  3.6300000000000D+00  0.0000000000000D+00  0.0000000000000D+00
365  3.6400000000000D+00  0.0000000000000D+00  0.0000000000000D+00
366  3.6500000000000D+00  0.0000000000000D+00  0.0000000000000D+00
367  3.6600000000000D+00  0.0000000000000D+00  0.0000000000000D+00
368  3.6700000000000D+00  0.0000000000000D+00  0.0000000000000D+00
369  3.6800000000000D+00  0.0000000000000D+00  0.0000000000000D+00
370  3.6900000000000D+00  0.0000000000000D+00  0.0000000000000D+00
371  3.7000000000000D+00  0.0000000000000D+00  0.0000000000000D+00
372  3.7100000000000D+00  0.0000000000000D+00  0.0000000000000D+00
373  3.7200000000000D+00  0.0000000000000D+00  0.0000000000000D+00
374  3.7300000000000D+00  0.0000000000000D+00  0.0000000000000D+00
375  3.7400000000000D+00  0.0000000000000D+00  0.0000000000000D+00
376  3.7500000000000D+00  0.0000000000000D+00  0.0000000000000D+00
377  3.7600000000000D+00  0.0000000000000D+00  0.0000000000000D+00
378  3.7700000000000D+00  0.0000000000000D+00  0.0000000000000D+00
379  3.7800000000000D+00  0.0000000000000D+00  0.0000000000000D+00
380  3.7900000000000D+00  0.0000000000000D+00  0.0000000000000D+00
381  3.8000000000000D+00  0.0000000000000D+00  0.0000000000000D+00
382  3.8100000000000D+00  0.0000000000000D+00  0.0000000000000D+00
383  3.8200000000000D+00  0.0000000000000D+00  0.0000000000000D+00
384  3.8300000000000D+00  0.0000000000000D+00  0.0000000000000D+00
385  3.8400000000000D+00  0.0000000000000D+00  0.0000000000000D+00
386  3.8500000000000D+00  0.0000000000000D+00  0.0000000000000D+00
387  3.8600000000000D+00  0.0000000000000D+00  0.0000000000000D+00
388  3.8700000000000D+00  0.0000000000000D+00  0.0000000000000D+00
389  3.8800000000000D+00  0.0000000000000D+00  0.0000000000000D+00
390  3.8900000000000D+00  0.0000000000000D+00  0.0000000000000D+00
391  3.9000000000000D+00  0.0000000000000D+00  0.0000000000000D+00
392  3.9100000000000D+00  0.0000000000000D+00  0.0000000000000D+00
393  3.9200000000000D+00  0.0000000000000D+00  0.0000000000000D+00
394  3.9300000000000D+00  0.0000000000000D+00  0.0000000000000D+00
395  3.9400000000000D+00  0.0000000000000D+00  0.0000000000000D+00
396  3.9500000000000D+00  0.0000000000000D+00  0.0000000000000D+00
397  3.9600000000000D+00  0.0000000000000D+00  0.0000000000000D+00
398  3.9700000000000D+00  0.0000000000000D+00  0.0000000000000D+00
399  3.9800000000000D+00  0.0000000000000D+00  0.0000000000000D+00
400  3.9900000000000D+00  0.0000000000000D+00  0.0000000000000D+00
401  4.0000000000000D+00  0.0000000000000D+00  0.0000000000000D+00
402  4.0100000000000D+00  0.0000000000000D+00  0.0000000000000D+00
403  4.0200000000000D+00  0.0000000000000D+00  0.0000000000000D+00
404  4.0300000000000D+00  0.0000000000000D+00  0.0000000000000D+00
405  4.0400000000000D+00  0.0000000000000D+00  0.0000000000000D+00
406  4.0500000000000D+00  0.0000000000000D+00  0.0000000000000D+00
407  4.0600000000000D+00  0.0000000000000D+00  0.0000000000000D+00
408  4.0700000000000D+00  0.0000000000000D+00  0.0000000000000D+00
409  4.0800000000000D+00  0.0000000000000D+00  0.0000000000000D+00
410  4.0900000000000D+00  0.0000000000000D+00  0.0000000000000D+00
411  4.1000000000000D+00  0.0000000000000D+00  0.0000000000000D+00
412  4.1100000000000D+00  0.0000000000000D+00  0.0000000000000D+00
413  4.1200000000000D+00  0.0000000000000D+00  0.0000000000000D+00
414  4.1300000000000D+00  0.0000000000000D+00  0.0000000000000D+00
415  4.1400000000000D+00  0.0000000000000D+00  0.0000000000000D+00
416  4.1500000000000D+00  0.0000000000000D+00  0.0000000000000D+00
417  4.1600000000000D+00  0.0000000000000D+00  0.0000000000000D+00
418  4.1700000000000D+00  0.0000000000000D+00  0.0000000000000D+00
419  4.1800000000000D+00  0.0000000000000D+00  0.0000000000000D+00
420  4.1900000000000D+00  0.0000000000000D+00  0.0000000000000D+00
421  4.2000000000000D+00  0.0000000000000D+00  0.0000000000000D+00
422  4.2100000000000D+00  0.0000000000000D+00  0.0000000000000D+00
423  4.2200000000000D+00  0.0000000000000D+00  0.0000000000000D+00
424  4.2300000000000D+00  0.0000000000000D+00  0.0000000000000D+00
425  4.2400000000000D+00  0.0000000000000D+00  0.0000000000000D+00
426  4.2500000000000D+00  0.0000000000000D+00  0.0000000000000D+00
427  4.2600000000000D+00  0.0000000000000D+00  0.0000000000000D+00
428  4.2700000000000D+00  0.0000000000000D+00  0.0000000000000D+00
429  4.2800000000000D+00  0.0000000000000D+00  0.0000000000000D+00
430  4.2900000000000D+00  0.0000000000000D+00  0.0000000000000D+00
431  4.3000000000000D+00  0.0000000000000D+00  0.0000000000000D+00
432  4.3100000000000D+00  0.0000000000000D+00  0.0000000000000D+00
433  4.3200000000000D+00  0.0000000000000D+00  0.0000000000000D+00
434  4.3300000000000D+00  0.0000000000000D+00  0.0000000000000D+00
435  4.3400000000000D+00  0.0000000000000D+00  0.0000000000000D+00
436  4.3500000000000D+00  0.0000000000000D+00  0.0000000000000D+00
437  4.3600000000000D+00  0.0000000000000D+00  0.0000000000000D+00
438  4.3700000000000D+00  0.0000000000000D+00  0.0000000000000D+00
439  4.3800000000000D+00  0.0000000000000D+00  0.0000000000000D+00
440  4.3900000000000D+00  0.0000000000000D+00  0.0000000000000D+00
441  4.4000000000000D+00  0.0000000000000D+00  0.0000000000000D+00
442  4.4100000000000D+00  0.0000000000000D+00  0.0000000000000D+00
443  4.4200000000000D+00  0.0000000000000D+00  0.0000000000000D+00