Te    ONCVPSP-3.3.0  r_core=   2.40470   2.21206   2.61411
52.0000      6.0000      171103    zatom,zion,pspd
8   -1012   2     4   600     0    pspcod,pspxc,lmax,lloc,mmax,r2well
5.99000000  9.00000000  0.00000000    rchrg fchrg qchrg
2     2     2     0     0    nproj
1     1           extension_switch
0                         4.5364324484430D+00  4.2869217888466D-01
1  0.0000000000000D+00 -1.0075662526532D-11  4.3879094802080D-11
2  1.0000000000000D-02  2.4575029134785D-02 -1.1576676230794D-02
3  2.0000000000000D-02  4.9128748623551D-02 -2.3089664560296D-02
4  3.0000000000000D-02  7.3639932006650D-02 -3.4475649364654D-02
5  4.0000000000000D-02  9.8087518724658D-02 -4.5672057474995D-02
6  5.0000000000000D-02  1.2245069588978D-01 -5.6617424166297D-02
7  6.0000000000000D-02  1.4670897864991D-01 -6.7251752890965D-02
8  7.0000000000000D-02  1.7084228868810D-01 -7.7516866723676D-02
9  8.0000000000000D-02  1.9483103041024D-01 -8.7356749527906D-02
10  9.0000000000000D-02  2.1865616438624D-01 -9.6717874909068D-02
11  1.0000000000000D-01  2.4229927762494D-01 -1.0554952108395D-01
12  1.1000000000000D-01  2.6574265027998D-01 -1.1380406987085D-01
13  1.2000000000000D-01  2.8896931840334D-01 -1.2143728808920D-01
14  1.3000000000000D-01  3.1196313238455D-01 -1.2840858975076D-01
15  1.4000000000000D-01  3.3470881073722D-01 -1.3468127752694D-01
16  1.5000000000000D-01  3.5719198891958D-01 -1.4022276208685D-01
17  1.6000000000000D-01  3.7939926290298D-01 -1.4500475801888D-01
18  1.7000000000000D-01  4.0131822723071D-01 -1.4900345517341D-01
19  1.8000000000000D-01  4.2293750733993D-01 -1.5219966439587D-01
20  1.9000000000000D-01  4.4424678595062D-01 -1.5457893675621D-01
21  2.0000000000000D-01  4.6523682335807D-01 -1.5613165552321D-01
22  2.1000000000000D-01  4.8589947149908D-01 -1.5685310027841D-01
23  2.2000000000000D-01  5.0622768169630D-01 -1.5674348271434D-01
24  2.3000000000000D-01  5.2621550601994D-01 -1.5580795381490D-01
25  2.4000000000000D-01  5.4585809224186D-01 -1.5405658227002D-01
26  2.5000000000000D-01  5.6515167239223D-01 -1.5150430413325D-01
27  2.6000000000000D-01  5.8409354496515D-01 -1.4817084388716D-01
28  2.7000000000000D-01  6.0268205085493D-01 -1.4408060723762D-01
29  2.8000000000000D-01  6.2091654314024D-01 -1.3926254611270D-01
30  2.9000000000000D-01  6.3879735086808D-01 -1.3374999649521D-01
31  3.0000000000000D-01  6.5632573702393D-01 -1.2758048986763D-01
32  3.1000000000000D-01  6.7350385090744D-01 -1.2079553919492D-01
33  3.2000000000000D-01  6.9033467516571D-01 -1.1344040051285D-01
34  3.3000000000000D-01  7.0682196776709D-01 -1.0556381132673D-01
35  3.4000000000000D-01  7.2297019922841D-01 -9.7217707156328D-02
36  3.5000000000000D-01  7.3878448543647D-01 -8.8456917688186D-02
37  3.6000000000000D-01  7.5427051643167D-01 -7.9338844113494D-02
38  3.7000000000000D-01  7.6943448154590D-01 -6.9923119339958D-02
39  3.8000000000000D-01  7.8428299130997D-01 -6.0271252867272D-02
40  3.9000000000000D-01  7.9882299656644D-01 -5.0446262208244D-02
41  4.0000000000000D-01  8.1306170524203D-01 -4.0512292820577D-02
42  4.1000000000000D-01  8.2700649725026D-01 -3.0534228587288D-02
43  4.2000000000000D-01  8.4066483800850D-01 -2.0577294946408D-02
44  4.3000000000000D-01  8.5404419106496D-01 -1.0706656822305D-02
45  4.4000000000000D-01  8.6715193033983D-01 -9.8701355197039D-04
46  4.5000000000000D-01  8.7999525249088D-01  8.5178069709902D-03
47  4.6000000000000D-01  8.9258108991711D-01  1.7745252694024D-02
48  4.7000000000000D-01  9.0491602491487D-01  2.6634448097931D-02
49  4.8000000000000D-01  9.1700620549867D-01  3.5126588942346D-02
50  4.9000000000000D-01  9.2885726339423D-01  4.3165328840228D-02
51  5.0000000000000D-01  9.4047423470378D-01  5.0697155466232D-02
52  5.1000000000000D-01  9.5186148373331D-01  5.7671754244534D-02
53  5.2000000000000D-01  9.6302263045869D-01  6.4042357414242D-02
54  5.3000000000000D-01  9.7396048209209D-01  6.9766076433519D-02
55  5.4000000000000D-01  9.8467696919189D-01  7.4804215759132D-02
56  5.5000000000000D-01  9.9517308673905D-01  7.9122566122560D-02
57  5.6000000000000D-01  1.0054488405795D+00  8.2691675520465D-02
58  5.7000000000000D-01  1.0155031996073D+00  8.5487096242287D-02
59  5.8000000000000D-01  1.0253340540358D+00  8.7489606373471D-02
60  5.9000000000000D-01  1.0349381800748D+00  8.8685404336327D-02
61  6.0000000000000D-01  1.0443112112992D+00  8.9066275163418D-02
62  6.1000000000000D-01  1.0534476169633D+00  8.8629727337871D-02
63  6.2000000000000D-01  1.0623406874796D+00  8.7379099182361D-02
64  6.3000000000000D-01  1.0709825272429D+00  8.5323633931978D-02
65  6.4000000000000D-01  1.0793640549469D+00  8.2478522784262D-02
66  6.5000000000000D-01  1.0874750114970D+00  7.8864915384568D-02
67  6.6000000000000D-01  1.0953039755901D+00  7.4509897371330D-02
68  6.7000000000000D-01  1.1028383869839D+00  6.9446434776868D-02
69  6.8000000000000D-01  1.1100645774468D+00  6.3713285252545D-02
70  6.9000000000000D-01  1.1169678093302D+00  5.7354876260891D-02
71  7.0000000000000D-01  1.1235323216703D+00  5.0421150552562D-02
72  7.1000000000000D-01  1.1297413836820D+00  4.2967379419354D-02
73  7.2000000000000D-01  1.1355773554693D+00  3.5053944388952D-02
74  7.3000000000000D-01  1.1410217557352D+00  2.6746088196559D-02
75  7.4000000000000D-01  1.1460553362351D+00  1.8113636036899D-02
76  7.5000000000000D-01  1.1506581626815D+00  9.2306882635856D-03
77  7.6000000000000D-01  1.1548097017677D+00  1.7528586156539D-04
78  7.7000000000000D-01  1.1584889139448D+00 -8.9709498283819D-03
79  7.8000000000000D-01  1.1616743515520D+00 -1.8123201507732D-02
80  7.9000000000000D-01  1.1643442618673D+00 -2.7193862676222D-02
81  8.0000000000000D-01  1.1664766946148D+00 -3.6092964850113D-02
82  8.1000000000000D-01  1.1680496134387D+00 -4.4728623224771D-02
83  8.2000000000000D-01  1.1690410108257D+00 -5.3007498650783D-02
84  8.3000000000000D-01  1.1694290259350D+00 -6.0835273690542D-02
85  8.4000000000000D-01  1.1691920647743D+00 -6.8117140430058D-02
86  8.5000000000000D-01  1.1683089221413D+00 -7.4758297640779D-02
87  8.6000000000000D-01  1.1667589047349D+00 -8.0664454816952D-02
88  8.7000000000000D-01  1.1645219548270D+00 -8.5742340558303D-02
89  8.8000000000000D-01  1.1615787738777D+00 -8.9900212723396D-02
90  8.9000000000000D-01  1.1579109454681D+00 -9.3048367748521D-02
91  9.0000000000000D-01  1.1535010569223D+00 -9.5099646509178D-02
92  9.1000000000000D-01  1.1483328189906D+00 -9.5969934096834D-02
93  9.2000000000000D-01  1.1423911829670D+00 -9.5578650892731D-02
94  9.3000000000000D-01  1.1356624546213D+00 -9.3849232343252D-02
95  9.4000000000000D-01  1.1281344043352D+00 -9.0709594877465D-02
96  9.5000000000000D-01  1.1197963728439D+00 -8.6092585456891D-02
97  9.6000000000000D-01  1.1106393719994D+00 -7.9936412310357D-02
98  9.7000000000000D-01  1.1006561799926D+00 -7.2185054482325D-02
99  9.8000000000000D-01  1.0898414304894D+00 -6.2788647913173D-02
100  9.9000000000000D-01  1.0781916951643D+00 -5.1703845867022D-02
101  1.0000000000000D+00  1.0657055591380D+00 -3.8894151639331D-02
102  1.0100000000000D+00  1.0523836888600D+00 -2.4330221598626D-02
103  1.0200000000000D+00  1.0382288920056D+00 -7.9901367517292D-03
104  1.0300000000000D+00  1.0232461689950D+00  1.0140358833223D-02
105  1.0400000000000D+00  1.0074427557760D+00  3.0067654254693D-02
106  1.0500000000000D+00  9.9082815755533D-01  5.1790104004645D-02
107  1.0600000000000D+00  9.7341417319942D-01  7.5297897373333D-02
108  1.0700000000000D+00  9.5521491007368D-01  1.0057296602382D-01
109  1.0800000000000D+00  9.3624678912957D-01  1.2758893055210D-01
110  1.0900000000000D+00  9.1652854009778D-01  1.5631108664926D-01
111  1.1000000000000D+00  8.9608118668946D-01  1.8669643129658D-01
112  1.1100000000000D+00  8.7492802175557D-01  2.1869372922581D-01
113  1.1200000000000D+00  8.5309457240517D-01  2.5224361966377D-01
114  1.1300000000000D+00  8.3060855512922D-01  2.8727876319050D-01
115  1.1400000000000D+00  8.0749982102783D-01  3.2372402832497D-01
116  1.1500000000000D+00  7.8380029127981D-01  3.6149671728258D-01
117  1.1600000000000D+00  7.5954388305299D-01  4.0050683009933D-01
118  1.1700000000000D+00  7.3476642609442D-01  4.4065736614903D-01
119  1.1800000000000D+00  7.0950557028579D-01  4.8184466188608D-01
120  1.1900000000000D+00  6.8380068449377D-01  5.2395876346398D-01
121  1.2000000000000D+00  6.5769274709563D-01  5.6688383266574D-01
122  1.2100000000000D+00  6.3122422860269D-01  6.1049858441102D-01
123  1.2200000000000D+00  6.0443896682808D-01  6.5467675400156D-01
124  1.2300000000000D+00  5.7738203510917D-01  6.9928759200520D-01
125  1.2400000000000D+00  5.5009960411917D-01  7.4419638457632D-01
126  1.2500000000000D+00  5.2263879782901D-01  7.8926499690260D-01
127  1.2600000000000D+00  4.9504754422457D-01  8.3435243728506D-01
128  1.2700000000000D+00  4.6737442141330D-01  8.7931543924134D-01
129  1.2800000000000D+00  4.3966849976646D-01  9.2400905897084D-01
130  1.2900000000000D+00  4.1197918077808D-01  9.6828728537880D-01
131  1.3000000000000D+00  3.8435603334282D-01  1.0120036597715D+00
132  1.3100000000000D+00  3.5684862815687D-01  1.0550119023278D+00
133  1.3200000000000D+00  3.2950637097412D-01  1.0971665423371D+00
134  1.3300000000000D+00  3.0237833545178D-01  1.1383235491949D+00
135  1.3400000000000D+00  2.7551309632224D-01  1.1783409611296D+00
136  1.3500000000000D+00  2.4895856364102D-01  1.2170795085919D+00
137  1.3600000000000D+00  2.2276181883973D-01  1.2544032293279D+00
138  1.3700000000000D+00  1.9696895333511D-01  1.2901800720607D+00
139  1.3800000000000D+00  1.7162491040700D-01  1.3242824858806D+00
140  1.3900000000000D+00  1.4677333106025D-01  1.3565879924322D+00
141  1.4000000000000D+00  1.2245640458737D-01  1.3869797379798D+00
142  1.4100000000000D+00  9.8714724467675D-02  1.4153470227900D+00
143  1.4200000000000D+00  7.5587150311792D-02  1.4415858049476D+00
144  1.4300000000000D+00  5.3110676435717D-02  1.4655991762677D+00
145  1.4400000000000D+00  3.1320307670694D-02  1.4872978078665D+00
146  1.4500000000000D+00  1.0248943019823D-02  1.5066003629364D+00
147  1.4600000000000D+00 -1.0072732410821D-02  1.5234338750571D+00
148  1.4700000000000D+00 -2.9616346572255D-02  1.5377340894884D+00
149  1.4800000000000D+00 -4.8355930417124D-02  1.5494457662948D+00
150  1.4900000000000D+00 -6.6267998118691D-02  1.5585229432795D+00
151  1.5000000000000D+00 -8.3331617234773D-02  1.5649291574797D+00
152  1.5100000000000D+00 -9.9528468552835D-02  1.5686376242514D+00
153  1.5200000000000D+00 -1.1484289520754D-01  1.5696313723581D+00
154  1.5300000000000D+00 -1.2926194108913D-01  1.5679033352893D+00
155  1.5400000000000D+00 -1.4277537807431D-01  1.5634563969722D+00
156  1.5500000000000D+00 -1.5537572229598D-01  1.5563033929393D+00
157  1.5600000000000D+00 -1.6705823909138D-01  1.5464670655725D+00
158  1.5700000000000D+00 -1.7782093686737D-01  1.5339799745794D+00
159  1.5800000000000D+00 -1.8766454975854D-01  1.5188843623202D+00
160  1.5900000000000D+00 -1.9659250927566D-01  1.5012319749646D+00
161  1.6000000000000D+00 -2.0461090508086D-01  1.4810838401934D+00
162  1.6100000000000D+00 -2.1172843503807D-01  1.4585100022207D+00
163  1.6200000000000D+00 -2.1795634492666D-01  1.4335892158993D+00
164  1.6300000000000D+00 -2.2330835792956D-01  1.4064086005342D+00
165  1.6400000000000D+00 -2.2780059450650D-01  1.3770632560911D+00
166  1.6500000000000D+00 -2.3145148275067D-01  1.3456558423746D+00
167  1.6600000000000D+00 -2.3428166001949D-01  1.3122961246010D+00
168  1.6700000000000D+00 -2.3631386595628D-01  1.2771004860287D+00
169  1.6800000000000D+00 -2.3757282782160D-01  1.2401914115819D+00
170  1.6900000000000D+00 -2.3808513830532D-01  1.2016969433706D+00
171  1.7000000000000D+00 -2.3787912680776D-01  1.1617501123057D+00
172  1.7100000000000D+00 -2.3698472445239D-01  1.1204883471042D+00
173  1.7200000000000D+00 -2.3543332382760D-01  1.0780528648920D+00
174  1.7300000000000D+00 -2.3325763384421D-01  1.0345880452273D+00
175  1.7400000000000D+00 -2.3049153066043D-01  9.9024079152843D-01
176  1.7500000000000D+00 -2.2716990520651D-01  9.4515988234100D-01
177  1.7600000000000D+00 -2.2332850817305D-01  8.9949531603425D-01
178  1.7700000000000D+00 -2.1900379314270D-01  8.5339765196788D-01
179  1.7800000000000D+00 -2.1423275862350D-01  8.0701735126453D-01
180  1.7900000000000D+00 -2.0905278978063D-01  7.6050412068574D-01
181  1.8000000000000D+00 -2.0350150054050D-01  7.1400626240214D-01
182  1.8100000000000D+00 -1.9761657690306D-01  6.6767003325897D-01
183  1.8200000000000D+00 -1.9143562212726D-01  6.2163901632722D-01
184  1.8300000000000D+00 -1.8499600452744D-01  5.7605350783324D-01
185  1.8400000000000D+00 -1.7833470867540D-01  5.3104992287591D-01
186  1.8500000000000D+00 -1.7148819044740D-01  4.8676022163293D-01
187  1.8600000000000D+00 -1.6449223703973D-01  4.4331136096103D-01
188  1.8700000000000D+00 -1.5738183185828D-01  4.0082477067554D-01
189  1.8800000000000D+00 -1.5019102586748D-01  3.5941586147178D-01
190  1.8900000000000D+00 -1.4295281482647D-01  3.1919356165753D-01
191  1.9000000000000D+00 -1.3569902408963D-01  2.8025989001914D-01
192  1.9100000000000D+00 -1.2846020046763D-01  2.4270956234698D-01
193  1.9200000000000D+00 -1.2126551229870D-01  2.0662963653990D-01
194  1.9300000000000D+00 -1.1414265786449D-01  1.7209919668811D-01
195  1.9400000000000D+00 -1.0711778222600D-01  1.3918907626488D-01
196  1.9500000000000D+00 -1.0021540373468D-01  1.0796162579067D-01
197  1.9600000000000D+00 -9.3458348835946D-02  7.8470518669975D-02
198  1.9700000000000D+00 -8.6867697533829D-02  5.0760605448629D-02
199  1.9800000000000D+00 -8.0462737457815D-02  2.4867807246663D-02
200  1.9900000000000D+00 -7.4260928385799D-02  8.1905631703218D-04
201  2.0000000000000D+00 -6.8277876351986D-02 -2.1367720272184D-02
202  2.0100000000000D+00 -6.2527317254987D-02 -4.1683574391754D-02
203  2.0200000000000D+00 -5.7021111044999D-02 -6.0128463518842D-02
204  2.0300000000000D+00 -5.1769244340480D-02 -7.6711139869627D-02
205  2.0400000000000D+00 -4.6779843828551D-02 -9.1448991950119D-02
206  2.0500000000000D+00 -4.2059197971963D-02 -1.0436784946760D-01
207  2.0600000000000D+00 -3.7611788095216D-02 -1.1550174714822D-01
208  2.0700000000000D+00 -3.3440328513223D-02 -1.2489264911222D-01
209  2.0800000000000D+00 -2.9545814071628D-02 -1.3259014103599D-01
210  2.0900000000000D+00 -2.5927576888229D-02 -1.3865108260754D-01
211  2.1000000000000D+00 -2.2583349546407D-02 -1.4313923227856D-01
212  2.1100000000000D+00 -1.9509335876484D-02 -1.4612483966580D-01
213  2.1200000000000D+00 -1.6700288357142D-02 -1.4768420995215D-01
214  2.1300000000000D+00 -1.4149590848159D-02 -1.4789924597807D-01
215  2.1400000000000D+00 -1.1849346841773D-02 -1.4685696859594D-01
216  2.1500000000000D+00 -9.7904751727646D-03 -1.4464900131869D-01
217  2.1600000000000D+00 -7.9628060123948D-03 -1.4137106070812D-01
218  2.1700000000000D+00 -6.3551696817848D-03 -1.3712249204626D-01
219  2.1800000000000D+00 -4.9555424129736D-03 -1.3200549703433D-01
220  2.1900000000000D+00 -3.7511136974416D-03 -1.2612479157680D-01
221  2.2000000000000D+00 -2.7283707144294D-03 -1.1958718759091D-01
222  2.2100000000000D+00 -1.8732129459246D-03 -1.1250100387646D-01
223  2.2200000000000D+00 -1.1711717192611D-03 -1.0497488528151D-01
224  2.2300000000000D+00 -6.0756422505095D-04 -9.7116968580254D-02
225  2.2400000000000D+00 -1.6767420756570D-04 -8.9033974323243D-02
226  2.2500000000000D+00  1.6307655543572D-04 -8.0830338964634D-02
227  2.2600000000000D+00  3.9888786855536D-04 -7.2606959727588D-02
228  2.2700000000000D+00  5.5354416917835D-04 -6.4461092316807D-02
229  2.2800000000000D+00  6.4029851690301D-04 -5.6485812584110D-02
230  2.2900000000000D+00  6.7177424690196D-04 -4.8769568553362D-02
231  2.3000000000000D+00  6.5984258302294D-04 -4.1395577227315D-02
232  2.3100000000000D+00  6.1553774854239D-04 -3.4441443251027D-02
233  2.3200000000000D+00  5.4896655252821D-04 -2.7978734065754D-02
234  2.3300000000000D+00  4.6943740769032D-04 -2.2079078529660D-02
235  2.3400000000000D+00  3.8454084384266D-04 -1.6787827894230D-02
236  2.3500000000000D+00  3.0074597769588D-04 -1.2147330391449D-02
237  2.3600000000000D+00  2.2336246807795D-04 -8.1962679584162D-03
238  2.3700000000000D+00  1.5975511380998D-04 -5.0374622025108D-03
239  2.3800000000000D+00  1.1512623334163D-04 -2.7336487874584D-03
240  2.3900000000000D+00  8.8727724613208D-05 -1.2549848688487D-03
241  2.4000000000000D+00  7.0712288171865D-05 -4.2622882647608D-04
242  2.4100000000000D+00  5.0578478115907D-05 -5.0133995540331D-05
243  2.4200000000000D+00  2.6744653938026D-05  5.2981921269662D-05
244  2.4300000000000D+00  5.8103466422257D-06  2.1401906662968D-05
245  2.4400000000000D+00 -4.4983904322244D-06 -2.0663419411672D-05
246  2.4500000000000D+00 -5.1353785573952D-06 -2.8494779164875D-05
247  2.4600000000000D+00 -1.2828950704576D-06 -8.0333960962519D-06
248  2.4700000000000D+00  1.0301414177571D-06  3.1473316256185D-06
249  2.4800000000000D+00  1.2221318415372D-06  4.1542947985995D-06
250  2.4900000000000D+00  2.8420116376103D-07  1.0483332091439D-06
251  2.5000000000000D+00 -1.3903651785554D-07  4.6196609010707D-07
252  2.5100000000000D+00 -1.6678115346598D-07  5.5415108604978D-07
253  2.5200000000000D+00 -3.8754204555021D-08  1.2876565545243D-07
254  2.5300000000000D+00  0.0000000000000D+00  0.0000000000000D+00
255  2.5400000000000D+00  0.0000000000000D+00  0.0000000000000D+00
256  2.5500000000000D+00  0.0000000000000D+00  0.0000000000000D+00
257  2.5600000000000D+00  0.0000000000000D+00  0.0000000000000D+00
258  2.5700000000000D+00  0.0000000000000D+00  0.0000000000000D+00
259  2.5800000000000D+00  0.0000000000000D+00  0.0000000000000D+00
260  2.5900000000000D+00  0.0000000000000D+00  0.0000000000000D+00
261  2.6000000000000D+00  0.0000000000000D+00  0.0000000000000D+00
262  2.6100000000000D+00  0.0000000000000D+00  0.0000000000000D+00
263  2.6200000000000D+00  0.0000000000000D+00  0.0000000000000D+00
264  2.6300000000000D+00  0.0000000000000D+00  0.0000000000000D+00
265  2.6400000000000D+00  0.0000000000000D+00  0.0000000000000D+00
266  2.6500000000000D+00  0.0000000000000D+00  0.0000000000000D+00
267  2.6600000000000D+00  0.0000000000000D+00  0.0000000000000D+00
268  2.6700000000000D+00  0.0000000000000D+00  0.0000000000000D+00
269  2.6800000000000D+00  0.0000000000000D+00  0.0000000000000D+00
270  2.6900000000000D+00  0.0000000000000D+00  0.0000000000000D+00
271  2.7000000000000D+00  0.0000000000000D+00  0.0000000000000D+00
272  2.7100000000000D+00  0.0000000000000D+00  0.0000000000000D+00
273  2.7200000000000D+00  0.0000000000000D+00  0.0000000000000D+00
274  2.7300000000000D+00  0.0000000000000D+00  0.0000000000000D+00
275  2.7400000000000D+00  0.0000000000000D+00  0.0000000000000D+00
276  2.7500000000000D+00  0.0000000000000D+00  0.0000000000000D+00
277  2.7600000000000D+00  0.0000000000000D+00  0.0000000000000D+00
278  2.7700000000000D+00  0.0000000000000D+00  0.0000000000000D+00
279  2.7800000000000D+00  0.0000000000000D+00  0.0000000000000D+00
280  2.7900000000000D+00  0.0000000000000D+00  0.0000000000000D+00
281  2.8000000000000D+00  0.0000000000000D+00  0.0000000000000D+00
282  2.8100000000000D+00  0.0000000000000D+00  0.0000000000000D+00
283  2.8200000000000D+00  0.0000000000000D+00  0.0000000000000D+00
284  2.8300000000000D+00  0.0000000000000D+00  0.0000000000000D+00
285  2.8400000000000D+00  0.0000000000000D+00  0.0000000000000D+00
286  2.8500000000000D+00  0.0000000000000D+00  0.0000000000000D+00
287  2.8600000000000D+00  0.0000000000000D+00  0.0000000000000D+00
288  2.8700000000000D+00  0.0000000000000D+00  0.0000000000000D+00
289  2.8800000000000D+00  0.0000000000000D+00  0.0000000000000D+00
290  2.8900000000000D+00  0.0000000000000D+00  0.0000000000000D+00
291  2.9000000000000D+00  0.0000000000000D+00  0.0000000000000D+00
292  2.9100000000000D+00  0.0000000000000D+00  0.0000000000000D+00
293  2.9200000000000D+00  0.0000000000000D+00  0.0000000000000D+00
294  2.9300000000000D+00  0.0000000000000D+00  0.0000000000000D+00
295  2.9400000000000D+00  0.0000000000000D+00  0.0000000000000D+00
296  2.9500000000000D+00  0.0000000000000D+00  0.0000000000000D+00
297  2.9600000000000D+00  0.0000000000000D+00  0.0000000000000D+00
298  2.9700000000000D+00  0.0000000000000D+00  0.0000000000000D+00
299  2.9800000000000D+00  0.0000000000000D+00  0.0000000000000D+00
300  2.9900000000000D+00  0.0000000000000D+00  0.0000000000000D+00
301  3.0000000000000D+00  0.0000000000000D+00  0.0000000000000D+00
302  3.0100000000000D+00  0.0000000000000D+00  0.0000000000000D+00
303  3.0200000000000D+00  0.0000000000000D+00  0.0000000000000D+00
304  3.0300000000000D+00  0.0000000000000D+00  0.0000000000000D+00
305  3.0400000000000D+00  0.0000000000000D+00  0.0000000000000D+00
306  3.0500000000000D+00  0.0000000000000D+00  0.0000000000000D+00
307  3.0600000000000D+00  0.0000000000000D+00  0.0000000000000D+00
308  3.0700000000000D+00  0.0000000000000D+00  0.0000000000000D+00
309  3.0800000000000D+00  0.0000000000000D+00  0.0000000000000D+00
310  3.0900000000000D+00  0.0000000000000D+00  0.0000000000000D+00
311  3.1000000000000D+00  0.0000000000000D+00  0.0000000000000D+00
312  3.1100000000000D+00  0.0000000000000D+00  0.0000000000000D+00
313  3.1200000000000D+00  0.0000000000000D+00  0.0000000000000D+00
314  3.1300000000000D+00  0.0000000000000D+00  0.0000000000000D+00
315  3.1400000000000D+00  0.0000000000000D+00  0.0000000000000D+00
316  3.1500000000000D+00  0.0000000000000D+00  0.0000000000000D+00
317  3.1600000000000D+00  0.0000000000000D+00  0.0000000000000D+00
318  3.1700000000000D+00  0.0000000000000D+00  0.0000000000000D+00
319  3.1800000000000D+00  0.0000000000000D+00  0.0000000000000D+00
320  3.1900000000000D+00  0.0000000000000D+00  0.0000000000000D+00
321  3.2000000000000D+00  0.0000000000000D+00  0.0000000000000D+00
322  3.2100000000000D+00  0.0000000000000D+00  0.0000000000000D+00
323  3.2200000000000D+00  0.0000000000000D+00  0.0000000000000D+00
324  3.2300000000000D+00  0.0000000000000D+00  0.0000000000000D+00
325  3.2400000000000D+00  0.0000000000000D+00  0.0000000000000D+00
326  3.2500000000000D+00  0.0000000000000D+00  0.0000000000000D+00
327  3.2600000000000D+00  0.0000000000000D+00  0.0000000000000D+00
328  3.2700000000000D+00  0.0000000000000D+00  0.0000000000000D+00
329  3.2800000000000D+00  0.0000000000000D+00  0.0000000000000D+00
330  3.2900000000000D+00  0.0000000000000D+00  0.0000000000000D+00
331  3.3000000000000D+00  0.0000000000000D+00  0.0000000000000D+00
332  3.3100000000000D+00  0.0000000000000D+00  0.0000000000000D+00
333  3.3200000000000D+00  0.0000000000000D+00  0.0000000000000D+00
334  3.3300000000000D+00  0.0000000000000D+00  0.0000000000000D+00
335  3.3400000000000D+00  0.0000000000000D+00  0.0000000000000D+00
336  3.3500000000000D+00  0.0000000000000D+00  0.0000000000000D+00
337  3.3600000000000D+00  0.0000000000000D+00  0.0000000000000D+00
338  3.3700000000000D+00  0.0000000000000D+00  0.0000000000000D+00
339  3.3800000000000D+00  0.0000000000000D+00  0.0000000000000D+00
340  3.3900000000000D+00  0.0000000000000D+00  0.0000000000000D+00
341  3.4000000000000D+00  0.0000000000000D+00  0.0000000000000D+00
342  3.4100000000000D+00  0.0000000000000D+00  0.0000000000000D+00
343  3.4200000000000D+00  0.0000000000000D+00  0.0000000000000D+00
344  3.4300000000000D+00  0.0000000000000D+00  0.0000000000000D+00
345  3.4400000000000D+00  0.0000000000000D+00  0.0000000000000D+00
346  3.4500000000000D+00  0.0000000000000D+00  0.0000000000000D+00
347  3.4600000000000D+00  0.0000000000000D+00  0.0000000000000D+00
348  3.4700000000000D+00  0.0000000000000D+00  0.0000000000000D+00
349  3.4800000000000D+00  0.0000000000000D+00  0.0000000000000D+00
350  3.4900000000000D+00  0.0000000000000D+00  0.0000000000000D+00
351  3.5000000000000D+00  0.0000000000000D+00  0.0000000000000D+00
352  3.5100000000000D+00  0.0000000000000D+00  0.0000000000000D+00
353  3.5200000000000D+00  0.0000000000000D+00  0.0000000000000D+00
354  3.5300000000000D+00  0.0000000000000D+00  0.0000000000000D+00
355  3.5400000000000D+00  0.0000000000000D+00  0.0000000000000D+00
356  3.5500000000000D+00  0.0000000000000D+00  0.0000000000000D+00
357  3.5600000000000D+00  0.0000000000000D+00  0.0000000000000D+00
358  3.5700000000000D+00  0.0000000000000D+00  0.0000000000000D+00
359  3.5800000000000D+00  0.0000000000000D+00  0.0000000000000D+00
360  3.5900000000000D+00  0.0000000000000D+00  0.0000000000000D+00
361  3.6000000000000D+00  0.0000000000000D+00  0.0000000000000D+00
362  3.6100000000000D+00  0.0000000000000D+00  0.0000000000000D+00
363  3.6200000000000D+00  0.0000000000000D+00  0.0000000000000D+00
364  3.6300000000000D+00  0.0000000000000D+00  0.0000000000000D+00
365  3.6400000000000D+00  0.0000000000000D+00  0.0000000000000D+00
366  3.6500000000000D+00  0.0000000000000D+00  0.0000000000000D+00
367  3.6600000000000D+00  0.0000000000000D+00  0.0000000000000D+00
368  3.6700000000000D+00  0.0000000000000D+00  0.0000000000000D+00
369  3.6800000000000D+00  0.0000000000000D+00  0.0000000000000D+00
370  3.6900000000000D+00  0.0000000000000D+00  0.0000000000000D+00
371  3.7000000000000D+00  0.0000000000000D+00  0.0000000000000D+00
372  3.7100000000000D+00  0.0000000000000D+00  0.0000000000000D+00
373  3.7200000000000D+00  0.0000000000000D+00  0.0000000000000D+00
374  3.7300000000000D+00  0.0000000000000D+00  0.0000000000000D+00
375  3.7400000000000D+00  0.0000000000000D+00  0.0000000000000D+00
376  3.7500000000000D+00  0.0000000000000D+00  0.0000000000000D+00
377  3.7600000000000D+00  0.0000000000000D+00  0.0000000000000D+00
378  3.7700000000000D+00  0.0000000000000D+00  0.0000000000000D+00
379  3.7800000000000D+00  0.0000000000000D+00  0.0000000000000D+00
380  3.7900000000000D+00  0.0000000000000D+00  0.0000000000000D+00
381  3.8000000000000D+00  0.0000000000000D+00  0.0000000000000D+00
382  3.8100000000000D+00  0.0000000000000D+00  0.0000000000000D+00
383  3.8200000000000D+00  0.0000000000000D+00  0.0000000000000D+00
384  3.8300000000000D+00  0.0000000000000D+00  0.0000000000000D+00
385  3.8400000000000D+00  0.0000000000000D+00  0.0000000000000D+00
386  3.8500000000000D+00  0.0000000000000D+00  0.0000000000000D+00
387  3.8600000000000D+00  0.0000000000000D+00  0.0000000000000D+00
388  3.8700000000000D+00  0.0000000000000D+00  0.0000000000000D+00
389  3.8800000000000D+00  0.0000000000000D+00  0.0000000000000D+00
390  3.8900000000000D+00  0.0000000000000D+00  0.0000000000000D+00
391  3.9000000000000D+00  0.0000000000000D+00  0.0000000000000D+00
392  3.9100000000000D+00  0.0000000000000D+00  0.0000000000000D+00
393  3.9200000000000D+00  0.0000000000000D+00  0.0000000000000D+00
394  3.9300000000000D+00  0.0000000000000D+00  0.0000000000000D+00
395  3.9400000000000D+00  0.0000000000000D+00  0.0000000000000D+00
396  3.9500000000000D+00  0.0000000000000D+00  0.0000000000000D+00
397  3.9600000000000D+00  0.0000000000000D+00  0.0000000000000D+00
398  3.9700000000000D+00  0.0000000000000D+00  0.0000000000000D+00
399  3.9800000000000D+00  0.0000000000000D+00  0.0000000000000D+00
400  3.9900000000000D+00  0.0000000000000D+00  0.0000000000000D+00
401  4.0000000000000D+00  0.0000000000000D+00  0.0000000000000D+00
402  4.0100000000000D+00  0.0000000000000D+00  0.0000000000000D+00
403  4.0200000000000D+00  0.0000000000000D+00  0.0000000000000D+00
404  4.0300000000000D+00  0.0000000000000D+00  0.0000000000000D+00
405  4.0400000000000D+00  0.0000000000000D+00  0.0000000000000D+00
406  4.0500000000000D+00  0.0000000000000D+00  0.0000000000000D+00
407  4.0600000000000D+00  0.0000000000000D+00  0.0000000000000D+00
408  4.0700000000000D+00  0.0000000000000D+00  0.0000000000000D+00
409  4.0800000000000D+00  0.0000000000000D+00  0.0000000000000D+00
410  4.0900000000000D+00  0.0000000000000D+00  0.0000000000000D+00
411  4.1000000000000D+00  0.0000000000000D+00  0.0000000000000D+00
412  4.1100000000000D+00  0.0000000000000D+00  0.0000000000000D+00
413  4.1200000000000D+00  0.0000000000000D+00  0.0000000000000D+00
414  4.1300000000000D+00  0.0000000000000D+00  0.0000000000000D+00
415  4.1400000000000D+00  0.0000000000000D+00  0.0000000000000D+00
416  4.1500000000000D+00  0.0000000000000D+00  0.0000000000000D+00
417  4.1600000000000D+00  0.0000000000000D+00  0.0000000000000D+00
418  4.1700000000000D+00  0.0000000000000D+00  0.0000000000000D+00
419  4.1800000000000D+00  0.0000000000000D+00  0.0000000000000D+00
420  4.1900000000000D+00  0.0000000000000D+00  0.0000000000000D+00
421  4.2000000000000D+00  0.0000000000000D+00  0.0000000000000D+00
422  4.2100000000000D+00  0.0000000000000D+00  0.0000000000000D+00
423  4.2200000000000D+00  0.0000000000000D+00  0.0000000000000D+00
424  4.2300000000000D+00  0.0000000000000D+00  0.0000000000000D+00
425  4.2400000000000D+00  0.0000000000000D+00  0.0000000000000D+00
426  4.2500000000000D+00  0.0000000000000D+00  0.0000000000000D+00
427  4.2600000000000D+00  0.0000000000000D+00  0.0000000000000D+00
428  4.2700000000000D+00  0.0000000000000D+00  0.0000000000000D+00
429  4.2800000000000D+00  0.0000000000000D+00  0.0000000000000D+00
430  4.2900000000000D+00  0.0000000000000D+00  0.0000000000000D+00
431  4.3000000000000D+00  0.0000000000000D+00  0.0000000000000D+00
432  4.3100000000000D+00  0.0000000000000D+00  0.0000000000000D+00
433  4.3200000000000D+00  0.0000000000000D+00  0.0000000000000D+00
434  4.3300000000000D+00  0.0000000000000D+00  0.0000000000000D+00
435  4.3400000000000D+00  0.0000000000000D+00  0.0000000000000D+00
436  4.3500000000000D+00  0.0000000000000D+00  0.0000000000000D+00
437  4.3600000000000D+00  0.0000000000000D+00  0.0000000000000D+00
438  4.3700000000000D+00  0.0000000000000D+00  0.0000000000000D+00
439  4.3800000000000D+00  0.0000000000000D+00  0.0000000000000D+00
440  4.3900000000000D+00  0.0000000000000D+00  0.0000000000000D+00
441  4.4000000000000D+00  0.0000000000000D+00  0.0000000000000D+00
442  4.4100000000000D+00  0.0000000000000D+00  0.0000000000000D+00
443  4.4200000000000D+00  0.0000000000000D+00  0.0000000000000D+00