Kr    ONCVPSP  r_core=  1.72  1.51  1.80
36.0000     18.0000      141222    zatom,zion,pspd
8    11     2     4   601     0    pspcod,pspxc,lmax,lloc,mmax,r2well
6.00000000  0.25000000  0.00000000    rchrg fchrg qchrg
2     2     2     0     0    nproj
0                 extension_switch
0                         8.3001099302687D+00  8.0458769082541D-01
1  0.0000000000000D+00 -0.0000000000000D+00  0.0000000000000D+00
2  1.0000000000000D-02 -4.0769502591882D-02  2.1624456064030D-02
3  2.0000000000000D-02 -8.1469746829368D-02  4.3051964023863D-02
4  3.0000000000000D-02 -1.2203199007394D-01  6.4087717252239D-02
5  4.0000000000000D-02 -1.6238851549113D-01  8.4541168814457D-02
6  5.0000000000000D-02 -2.0247313094210D-01  1.0422810340022D-01
7  6.0000000000000D-02 -2.4222165122740D-01  1.2297264042743D-01
8  7.0000000000000D-02 -2.8157235840475D-01  1.4060914647600D-01
9  8.0000000000000D-02 -3.2046643513598D-01  1.5698403615892D-01
10  9.0000000000000D-02 -3.5884836629277D-01  1.7195744165110D-01
11  1.0000000000000D-01 -3.9666630440193D-01  1.8540473252552D-01
12  1.1000000000000D-01 -4.3387239486673D-01  1.9721786899020D-01
13  1.2000000000000D-01 -4.7042305734725D-01  2.0730657343541D-01
14  1.3000000000000D-01 -5.0627922011587D-01  2.1559930695997D-01
15  1.4000000000000D-01 -5.4140650478882D-01  2.2204403993151D-01
16  1.5000000000000D-01 -5.7577535916122D-01  2.2660880694484D-01
17  1.6000000000000D-01 -6.0936113674263D-01  2.2928204011274D-01
18  1.7000000000000D-01 -6.4214412175194D-01  2.3007267524120D-01
19  1.8000000000000D-01 -6.7410949939905D-01  2.2901002984352D-01
20  1.9000000000000D-01 -7.0524727136040D-01  2.2614345222052D-01
21  2.0000000000000D-01 -7.3555211732957D-01  2.2154174484470D-01
22  2.1000000000000D-01 -7.6502320398807D-01  2.1529236716678D-01
23  2.2000000000000D-01 -7.9366394327517D-01  2.0750042514171D-01
24  2.3000000000000D-01 -8.2148170232184D-01  1.9828745675073D-01
25  2.4000000000000D-01 -8.4848746810271D-01  1.8779002562517D-01
26  2.5000000000000D-01 -8.7469547139696D-01  1.7615814128891D-01
27  2.6000000000000D-01 -9.0012277034290D-01  1.6355350641861D-01
28  2.7000000000000D-01 -9.2478880421644D-01  1.5014763489654D-01
29  2.8000000000000D-01 -9.4871491651899D-01  1.3611983597551D-01
30  2.9000000000000D-01 -9.7192385514733D-01  1.2165509628370D-01
31  3.0000000000000D-01 -9.9443925479291D-01  1.0694188039369D-01
32  3.1000000000000D-01 -1.0162851070548D+00  9.2169872079366D-02
33  3.2000000000000D-01 -1.0374852243246D+00  7.7527680812813D-02
34  3.3000000000000D-01 -1.0580627081621D+00  6.3200558001636D-02
35  3.4000000000000D-01 -1.0780394094319D+00  4.9368067467991D-02
36  3.5000000000000D-01 -1.0974354219362D+00  3.6201886936221D-02
37  3.6000000000000D-01 -1.1162685690016D+00  2.3863566253517D-02
38  3.7000000000000D-01 -1.1345539458548D+00  1.2502510535039D-02
39  3.8000000000000D-01 -1.1523034495444D+00  2.2538933597690D-03
40  3.9000000000000D-01 -1.1695253837984D+00 -6.7631243216132D-03
41  4.0000000000000D-01 -1.1862240839179D+00 -1.4447107192443D-02
42  4.1000000000000D-01 -1.2023995892364D+00 -2.0715872838315D-02
43  4.2000000000000D-01 -1.2180473659073D+00 -2.5507821920681D-02
44  4.3000000000000D-01 -1.2331580831383D+00 -2.8783058295870D-02
45  4.4000000000000D-01 -1.2477174461269D+00 -3.0524285364820D-02
46  4.5000000000000D-01 -1.2617060885149D+00 -3.0737466635533D-02
47  4.6000000000000D-01 -1.2750995267420D+00 -2.9452240180394D-02
48  4.7000000000000D-01 -1.2878681781535D+00 -2.6722078632207D-02
49  4.8000000000000D-01 -1.2999774440228D+00 -2.2624188994639D-02
50  4.9000000000000D-01 -1.3113878613544D+00 -1.7259128272596D-02
51  5.0000000000000D-01 -1.3220553005952D+00 -1.0750258589809D-02
52  5.1000000000000D-01 -1.3319312524376D+00 -3.2428206688809D-03
53  5.2000000000000D-01 -1.3409631672154D+00  5.0972215462068D-03
54  5.3000000000000D-01 -1.3490948414106D+00  1.4084482867089D-02
55  5.4000000000000D-01 -1.3562668856444D+00  2.3515816516470D-02
56  5.5000000000000D-01 -1.3624172046598D+00  3.3172077024134D-02
57  5.6000000000000D-01 -1.3674816058759D+00  4.2820259711338D-02
58  5.7000000000000D-01 -1.3713943093824D+00  5.2215482985066D-02
59  5.8000000000000D-01 -1.3740887188404D+00  6.1103737572508D-02
60  5.9000000000000D-01 -1.3754979220818D+00  6.9223881480836D-02
61  6.0000000000000D-01 -1.3755555852888D+00  7.6310900562516D-02
62  6.1000000000000D-01 -1.3741964961379D+00  8.2098058417597D-02
63  6.2000000000000D-01 -1.3713573903976D+00  8.6320004507631D-02
64  6.3000000000000D-01 -1.3669777385413D+00  8.8715782438013D-02
65  6.4000000000000D-01 -1.3610002991044D+00  8.9031018042584D-02
66  6.5000000000000D-01 -1.3533720678418D+00  8.7021529522968D-02
67  6.6000000000000D-01 -1.3440449220313D+00  8.2455863164927D-02
68  6.7000000000000D-01 -1.3329762231964D+00  7.5117672633925D-02
69  6.8000000000000D-01 -1.3201294882305D+00  6.4808350033868D-02
70  6.9000000000000D-01 -1.3054752671602D+00  5.1350443382356D-02
71  7.0000000000000D-01 -1.2889914437231D+00  3.4588932960636D-02
72  7.1000000000000D-01 -1.2706638583682D+00  1.4393706360459D-02
73  7.2000000000000D-01 -1.2504867415677D+00 -9.3386709445367D-03
74  7.3000000000000D-01 -1.2284632305634D+00 -3.6682860339998D-02
75  7.4000000000000D-01 -1.2046057461104D+00 -6.7683174102854D-02
76  7.5000000000000D-01 -1.1789361376467D+00 -1.0235288155157D-01
77  7.6000000000000D-01 -1.1514859466204D+00 -1.4067305794522D-01
78  7.7000000000000D-01 -1.1222965341797D+00 -1.8259194381910D-01
79  7.8000000000000D-01 -1.0914191278545D+00 -2.2802460754878D-01
80  7.9000000000000D-01 -1.0589147854890D+00 -2.7685291811083D-01
81  8.0000000000000D-01 -1.0248542754845D+00 -3.2892583188603D-01
82  8.1000000000000D-01 -9.8931787321148D-01 -3.8405999422023D-01
83  8.2000000000000D-01 -9.5239507424236D-01 -4.4204065334989D-01
84  8.3000000000000D-01 -9.1418422583988D-01 -5.0262288124808D-01
85  8.4000000000000D-01 -8.7479207889238D-01 -5.6553309297504D-01
86  8.5000000000000D-01 -8.3433326322612D-01 -6.3047085324088D-01
87  8.6000000000000D-01 -7.9292968993444D-01 -6.9711095611678D-01
88  8.7000000000000D-01 -7.5070988504763D-01 -7.6510576116942D-01
89  8.8000000000000D-01 -7.0780825952616D-01 -8.3408776673617D-01
90  8.9000000000000D-01 -6.6436432119402D-01 -9.0367239860756D-01
91  9.0000000000000D-01 -6.2052183483943D-01 -9.7346099003190D-01
92  9.1000000000000D-01 -5.7642793729686D-01 -1.0430439267131D+00
93  9.2000000000000D-01 -5.3223221488284D-01 -1.1120039283477D+00
94  9.3000000000000D-01 -4.8808575108181D-01 -1.1799194362765D+00
95  9.4000000000000D-01 -4.4414015285390D-01 -1.2463680750574D+00
96  9.5000000000000D-01 -4.0054656434427D-01 -1.3109301542777D+00
97  9.6000000000000D-01 -3.5745467708745D-01 -1.3731921758259D+00
98  9.7000000000000D-01 -3.1501174598537D-01 -1.4327503112543D+00
99  9.8000000000000D-01 -2.7336182786982D-01 -1.4892131082236D+00
100  9.9000000000000D-01 -2.3264444624723D-01 -1.5422061270660D+00
101  1.0000000000000D+00 -1.9299360706544D-01 -1.5913753790782D+00
102  1.0100000000000D+00 -1.5453727290673D-01 -1.6363891659826D+00
103  1.0200000000000D+00 -1.1739638120108D-01 -1.6769414436849D+00
104  1.0300000000000D+00 -8.1684069209692D-02 -1.7127544547765D+00
105  1.0400000000000D+00 -4.7505368302230D-02 -1.7435797396736D+00
106  1.0500000000000D+00 -1.4955743286746D-02 -1.7692030462663D+00
107  1.0600000000000D+00  1.5879699535377D-02 -1.7894468915548D+00
108  1.0700000000000D+00  4.4925780336608D-02 -1.8041689561429D+00
109  1.0800000000000D+00  7.2118021141084D-02 -1.8132645400043D+00
110  1.0900000000000D+00  9.7402190558416D-02 -1.8166648911380D+00
111  1.1000000000000D+00  1.2073674974190D-01 -1.8143451050845D+00
112  1.1100000000000D+00  1.4209170932800D-01 -1.8063199487470D+00
113  1.1200000000000D+00  1.6144826460829D-01 -1.7926423596385D+00
114  1.1300000000000D+00  1.7879843359424D-01 -1.7734020301744D+00
115  1.1400000000000D+00  1.9414668705553D-01 -1.7487302419984D+00
116  1.1500000000000D+00  2.0750935809265D-01 -1.7187972470673D+00
117  1.1600000000000D+00  2.1891305694718D-01 -1.6838068086995D+00
118  1.1700000000000D+00  2.2839410075852D-01 -1.6439942686179D+00
119  1.1800000000000D+00  2.3600091152511D-01 -1.5996326960480D+00
120  1.1900000000000D+00  2.4179097300842D-01 -1.5510228711981D+00
121  1.2000000000000D+00  2.4583016600108D-01 -1.4984910519185D+00
122  1.2100000000000D+00  2.4819315484090D-01 -1.4423893643467D+00
123  1.2200000000000D+00  2.4896299533866D-01 -1.3830922421247D+00
124  1.2300000000000D+00  2.4822880874333D-01 -1.3209902818128D+00
125  1.2400000000000D+00  2.4608601262900D-01 -1.2564910253538D+00
126  1.2500000000000D+00  2.4263563273566D-01 -1.1900115317751D+00
127  1.2600000000000D+00  2.3798242536082D-01 -1.1219759774004D+00
128  1.2700000000000D+00  2.3223552077055D-01 -1.0528181989591D+00
129  1.2800000000000D+00  2.2550546133784D-01 -9.8296436560677D-01
130  1.2900000000000D+00  2.1790456722089D-01 -9.1284051843447D-01
131  1.3000000000000D+00  2.0954744331893D-01 -8.4287375806497D-01
132  1.3100000000000D+00  2.0054563186058D-01 -7.7346652233914D-01
133  1.3200000000000D+00  1.9101127969816D-01 -7.0501715470850D-01
134  1.3300000000000D+00  1.8105548956368D-01 -6.3791103476280D-01
135  1.3400000000000D+00  1.7078307928909D-01 -5.7249810819431D-01
136  1.3500000000000D+00  1.6029924049351D-01 -5.0912391056843D-01
137  1.3600000000000D+00  1.4970246367965D-01 -4.4809779329353D-01
138  1.3700000000000D+00  1.3908475585691D-01 -3.8969575955667D-01
139  1.3800000000000D+00  1.2853869649614D-01 -3.3419031805790D-01
140  1.3900000000000D+00  1.1814200819384D-01 -2.8178580979987D-01
141  1.4000000000000D+00  1.0797195558877D-01 -2.3267995334210D-01
142  1.4100000000000D+00  9.8097519849861D-02 -1.8703075381772D-01
143  1.4200000000000D+00  8.8576347533344D-02 -1.4494579252897D-01
144  1.4300000000000D+00  7.9467051298398D-02 -1.0653122370922D-01
145  1.4400000000000D+00  7.0809553797325D-02 -7.1814574550344D-02
146  1.4500000000000D+00  6.2644371266854D-02 -4.0821382223366D-02
147  1.4600000000000D+00  5.5000099205523D-02 -1.3526169346012D-02
148  1.4700000000000D+00  4.7896912501323D-02  1.0132174642677D-02
149  1.4800000000000D+00  4.1351948580669D-02  3.0231392846708D-02
150  1.4900000000000D+00  3.5366858983099D-02  4.6909241462860D-02
151  1.5000000000000D+00  2.9945474807166D-02  6.0300762646884D-02
152  1.5100000000000D+00  2.5075360664055D-02  7.0601444023854D-02
153  1.5200000000000D+00  2.0744969167415D-02  7.8007209190296D-02
154  1.5300000000000D+00  1.6932688628942D-02  8.2749548763697D-02
155  1.5400000000000D+00  1.3614458687406D-02  8.5067687860734D-02
156  1.5500000000000D+00  1.0761549580189D-02  8.5217674103103D-02
157  1.5600000000000D+00  8.3416224424452D-03  8.3461312383537D-02
158  1.5700000000000D+00  6.3202305566909D-03  8.0072344497254D-02
159  1.5800000000000D+00  4.6606294332487D-03  7.5317868160134D-02
160  1.5900000000000D+00  3.3243926589387D-03  6.9480694400253D-02
161  1.6000000000000D+00  2.2740187935364D-03  6.2817583475017D-02
162  1.6100000000000D+00  1.4693197147241D-03  5.5608785592106D-02
163  1.6200000000000D+00  8.7493903362705D-04  4.8089579715174D-02
164  1.6300000000000D+00  4.5195490398542D-04  4.0521928618528D-02
165  1.6400000000000D+00  1.6917000729737D-04  3.3112160189973D-02
166  1.6500000000000D+00 -8.2911965196989D-06  2.6091263382013D-02
167  1.6600000000000D+00 -1.0543680869463D-04  1.9627152981280D-02
168  1.6700000000000D+00 -1.5090093136153D-04  1.3910493274535D-02
169  1.6800000000000D+00 -1.6169182135756D-04  9.0622764665604D-03
170  1.6900000000000D+00 -1.5861695108312D-04  5.2262447312241D-03
171  1.7000000000000D+00 -1.5150833570015D-04  2.5166441358541D-03
172  1.7100000000000D+00 -1.5452331133428D-04  1.0707842440066D-03
173  1.7200000000000D+00 -1.3366227681839D-04  3.6818584478372D-04
174  1.7300000000000D+00 -6.1896120519846D-05  4.7618920263746D-05
175  1.7400000000000D+00  2.2756224583607D-06 -7.2888825644313D-06
176  1.7500000000000D+00  9.1768336081808D-06 -2.9393655453524D-05
177  1.7600000000000D+00  0.0000000000000D+00  0.0000000000000D+00
178  1.7700000000000D+00  0.0000000000000D+00  0.0000000000000D+00
179  1.7800000000000D+00  0.0000000000000D+00  0.0000000000000D+00
180  1.7900000000000D+00  0.0000000000000D+00  0.0000000000000D+00
181  1.8000000000000D+00  0.0000000000000D+00  0.0000000000000D+00
182  1.8100000000000D+00  0.0000000000000D+00  0.0000000000000D+00
183  1.8200000000000D+00  0.0000000000000D+00  0.0000000000000D+00
184  1.8300000000000D+00  0.0000000000000D+00  0.0000000000000D+00
185  1.8400000000000D+00  0.0000000000000D+00  0.0000000000000D+00
186  1.8500000000000D+00  0.0000000000000D+00  0.0000000000000D+00
187  1.8600000000000D+00  0.0000000000000D+00  0.0000000000000D+00
188  1.8700000000000D+00  0.0000000000000D+00  0.0000000000000D+00
189  1.8800000000000D+00  0.0000000000000D+00  0.0000000000000D+00
190  1.8900000000000D+00  0.0000000000000D+00  0.0000000000000D+00
191  1.9000000000000D+00  0.0000000000000D+00  0.0000000000000D+00
192  1.9100000000000D+00  0.0000000000000D+00  0.0000000000000D+00
193  1.9200000000000D+00  0.0000000000000D+00  0.0000000000000D+00
194  1.9300000000000D+00  0.0000000000000D+00  0.0000000000000D+00
195  1.9400000000000D+00  0.0000000000000D+00  0.0000000000000D+00
196  1.9500000000000D+00  0.0000000000000D+00  0.0000000000000D+00
197  1.9600000000000D+00  0.0000000000000D+00  0.0000000000000D+00
198  1.9700000000000D+00  0.0000000000000D+00  0.0000000000000D+00
199  1.9800000000000D+00  0.0000000000000D+00  0.0000000000000D+00
200  1.9900000000000D+00  0.0000000000000D+00  0.0000000000000D+00
201  2.0000000000000D+00  0.0000000000000D+00  0.0000000000000D+00
202  2.0100000000000D+00  0.0000000000000D+00  0.0000000000000D+00
203  2.0200000000000D+00  0.0000000000000D+00  0.0000000000000D+00
204  2.0300000000000D+00  0.0000000000000D+00  0.0000000000000D+00
205  2.0400000000000D+00  0.0000000000000D+00  0.0000000000000D+00
206  2.0500000000000D+00  0.0000000000000D+00  0.0000000000000D+00
207  2.0600000000000D+00  0.0000000000000D+00  0.0000000000000D+00
208  2.0700000000000D+00  0.0000000000000D+00  0.0000000000000D+00
209  2.0800000000000D+00  0.0000000000000D+00  0.0000000000000D+00
210  2.0900000000000D+00  0.0000000000000D+00  0.0000000000000D+00
211  2.1000000000000D+00  0.0000000000000D+00  0.0000000000000D+00
212  2.1100000000000D+00  0.0000000000000D+00  0.0000000000000D+00
213  2.1200000000000D+00  0.0000000000000D+00  0.0000000000000D+00
214  2.1300000000000D+00  0.0000000000000D+00  0.0000000000000D+00
215  2.1400000000000D+00  0.0000000000000D+00  0.0000000000000D+00
216  2.1500000000000D+00  0.0000000000000D+00  0.0000000000000D+00
217  2.1600000000000D+00  0.0000000000000D+00  0.0000000000000D+00
218  2.1700000000000D+00  0.0000000000000D+00  0.0000000000000D+00
219  2.1800000000000D+00  0.0000000000000D+00  0.0000000000000D+00
220  2.1900000000000D+00  0.0000000000000D+00  0.0000000000000D+00
221  2.2000000000000D+00  0.0000000000000D+00  0.0000000000000D+00
222  2.2100000000000D+00  0.0000000000000D+00  0.0000000000000D+00
223  2.2200000000000D+00  0.0000000000000D+00  0.0000000000000D+00
224  2.2300000000000D+00  0.0000000000000D+00  0.0000000000000D+00
225  2.2400000000000D+00  0.0000000000000D+00  0.0000000000000D+00
226  2.2500000000000D+00  0.0000000000000D+00  0.0000000000000D+00
227  2.2600000000000D+00  0.0000000000000D+00  0.0000000000000D+00
228  2.2700000000000D+00  0.0000000000000D+00  0.0000000000000D+00
229  2.2800000000000D+00  0.0000000000000D+00  0.0000000000000D+00
230  2.2900000000000D+00  0.0000000000000D+00  0.0000000000000D+00
231  2.3000000000000D+00  0.0000000000000D+00  0.0000000000000D+00
232  2.3100000000000D+00  0.0000000000000D+00  0.0000000000000D+00
233  2.3200000000000D+00  0.0000000000000D+00  0.0000000000000D+00
234  2.3300000000000D+00  0.0000000000000D+00  0.0000000000000D+00
235  2.3400000000000D+00  0.0000000000000D+00  0.0000000000000D+00
236  2.3500000000000D+00  0.0000000000000D+00  0.0000000000000D+00
237  2.3600000000000D+00  0.0000000000000D+00  0.0000000000000D+00
238  2.3700000000000D+00  0.0000000000000D+00  0.0000000000000D+00
239  2.3800000000000D+00  0.0000000000000D+00  0.0000000000000D+00
240  2.3900000000000D+00  0.0000000000000D+00  0.0000000000000D+00
241  2.4000000000000D+00  0.0000000000000D+00  0.0000000000000D+00
242  2.4100000000000D+00  0.0000000000000D+00  0.0000000000000D+00
243  2.4200000000000D+00  0.0000000000000D+00  0.0000000000000D+00
244  2.4300000000000D+00  0.0000000000000D+00  0.0000000000000D+00
245  2.4400000000000D+00  0.0000000000000D+00  0.0000000000000D+00
246  2.4500000000000D+00  0.0000000000000D+00  0.0000000000000D+00
247  2.4600000000000D+00  0.0000000000000D+00  0.0000000000000D+00
248  2.4700000000000D+00  0.0000000000000D+00  0.0000000000000D+00
249  2.4800000000000D+00  0.0000000000000D+00  0.0000000000000D+00
250  2.4900000000000D+00  0.0000000000000D+00  0.0000000000000D+00
251  2.5000000000000D+00  0.0000000000000D+00  0.0000000000000D+00
252  2.5100000000000D+00  0.0000000000000D+00  0.0000000000000D+00
253  2.5200000000000D+00  0.0000000000000D+00  0.0000000000000D+00
254  2.5300000000000D+00  0.0000000000000D+00  0.0000000000000D+00
255  2.5400000000000D+00  0.0000000000000D+00  0.0000000000000D+00
256  2.5500000000000D+00  0.0000000000000D+00  0.0000000000000D+00
257  2.5600000000000D+00  0.0000000000000D+00  0.0000000000000D+00
258  2.5700000000000D+00  0.0000000000000D+00  0.0000000000000D+00
259  2.5800000000000D+00  0.0000000000000D+00  0.0000000000000D+00
260  2.5900000000000D+00  0.0000000000000D+00  0.0000000000000D+00
261  2.6000000000000D+00  0.0000000000000D+00  0.0000000000000D+00
262  2.6100000000000D+00  0.0000000000000D+00  0.0000000000000D+00
263  2.6200000000000D+00  0.0000000000000D+00  0.0000000000000D+00
264  2.6300000000000D+00  0.0000000000000D+00  0.0000000000000D+00
265  2.6400000000000D+00  0.0000000000000D+00  0.0000000000000D+00
266  2.6500000000000D+00  0.0000000000000D+00  0.0000000000000D+00
267  2.6600000000000D+00  0.0000000000000D+00  0.0000000000000D+00
268  2.6700000000000D+00  0.0000000000000D+00  0.0000000000000D+00
269  2.6800000000000D+00  0.0000000000000D+00  0.0000000000000D+00
270  2.6900000000000D+00  0.0000000000000D+00  0.0000000000000D+00
271  2.7000000000000D+00  0.0000000000000D+00  0.0000000000000D+00
272  2.7100000000000D+00  0.0000000000000D+00  0.0000000000000D+00
273  2.7200000000000D+00  0.0000000000000D+00  0.0000000000000D+00
274  2.7300000000000D+00  0.0000000000000D+00  0.0000000000000D+00
275  2.7400000000000D+00  0.0000000000000D+00  0.0000000000000D+00
276  2.7500000000000D+00  0.0000000000000D+00  0.0000000000000D+00
277  2.7600000000000D+00  0.0000000000000D+00  0.0000000000000D+00
278  2.7700000000000D+00  0.0000000000000D+00  0.0000000000000D+00
279  2.7800000000000D+00  0.0000000000000D+00  0.0000000000000D+00
280  2.7900000000000D+00  0.0000000000000D+00  0.0000000000000D+00
281  2.8000000000000D+00  0.0000000000000D+00  0.0000000000000D+00
282  2.8100000000000D+00  0.0000000000000D+00  0.0000000000000D+00
283  2.8200000000000D+00  0.0000000000000D+00  0.0000000000000D+00
284  2.8300000000000D+00  0.0000000000000D+00  0.0000000000000D+00
285  2.8400000000000D+00  0.0000000000000D+00  0.0000000000000D+00
286  2.8500000000000D+00  0.0000000000000D+00  0.0000000000000D+00
287  2.8600000000000D+00  0.0000000000000D+00  0.0000000000000D+00
288  2.8700000000000D+00  0.0000000000000D+00  0.0000000000000D+00
289  2.8800000000000D+00  0.0000000000000D+00  0.0000000000000D+00
290  2.8900000000000D+00  0.0000000000000D+00  0.0000000000000D+00
291  2.9000000000000D+00  0.0000000000000D+00  0.0000000000000D+00
292  2.9100000000000D+00  0.0000000000000D+00  0.0000000000000D+00
293  2.9200000000000D+00  0.0000000000000D+00  0.0000000000000D+00
294  2.9300000000000D+00  0.0000000000000D+00  0.0000000000000D+00
295  2.9400000000000D+00  0.0000000000000D+00  0.0000000000000D+00
296  2.9500000000000D+00  0.0000000000000D+00  0.0000000000000D+00
297  2.9600000000000D+00  0.0000000000000D+00  0.0000000000000D+00
298  2.9700000000000D+00  0.0000000000000D+00  0.0000000000000D+00
299  2.9800000000000D+00  0.0000000000000D+00  0.0000000000000D+00
300  2.9900000000000D+00  0.0000000000000D+00  0.0000000000000D+00
301  3.0000000000000D+00  0.0000000000000D+00  0.0000000000000D+00
302  3.0100000000000D+00  0.0000000000000D+00  0.0000000000000D+00
303  3.0200000000000D+00  0.0000000000000D+00  0.0000000000000D+00
304  3.0300000000000D+00  0.0000000000000D+00  0.0000000000000D+00
305  3.0400000000000D+00  0.0000000000000D+00  0.0000000000000D+00
306  3.0500000000000D+00  0.0000000000000D+00  0.0000000000000D+00
307  3.0600000000000D+00  0.0000000000000D+00  0.0000000000000D+00
308  3.0700000000000D+00  0.0000000000000D+00  0.0000000000000D+00
309  3.0800000000000D+00  0.0000000000000D+00  0.0000000000000D+00
310  3.0900000000000D+00  0.0000000000000D+00  0.0000000000000D+00
311  3.1000000000000D+00  0.0000000000000D+00  0.0000000000000D+00
312  3.1100000000000D+00  0.0000000000000D+00  0.0000000000000D+00
313  3.1200000000000D+00  0.0000000000000D+00  0.0000000000000D+00
314  3.1300000000000D+00  0.0000000000000D+00  0.0000000000000D+00
315  3.1400000000000D+00  0.0000000000000D+00  0.0000000000000D+00
316  3.1500000000000D+00  0.0000000000000D+00  0.0000000000000D+00
317  3.1600000000000D+00  0.0000000000000D+00  0.0000000000000D+00
318  3.1700000000000D+00  0.0000000000000D+00  0.0000000000000D+00
319  3.1800000000000D+00  0.0000000000000D+00  0.0000000000000D+00
320  3.1900000000000D+00  0.0000000000000D+00  0.0000000000000D+00
321  3.2000000000000D+00  0.0000000000000D+00  0.0000000000000D+00
322  3.2100000000000D+00  0.0000000000000D+00  0.0000000000000D+00
323  3.2200000000000D+00  0.0000000000000D+00  0.0000000000000D+00
324  3.2300000000000D+00  0.0000000000000D+00  0.0000000000000D+00
325  3.2400000000000D+00  0.0000000000000D+00  0.0000000000000D+00
326  3.2500000000000D+00  0.0000000000000D+00  0.0000000000000D+00
327  3.2600000000000D+00  0.0000000000000D+00  0.0000000000000D+00
328  3.2700000000000D+00  0.0000000000000D+00  0.0000000000000D+00
329  3.2800000000000D+00  0.0000000000000D+00  0.0000000000000D+00
330  3.2900000000000D+00  0.0000000000000D+00  0.0000000000000D+00
331  3.3000000000000D+00  0.0000000000000D+00  0.0000000000000D+00
332  3.3100000000000D+00  0.0000000000000D+00  0.0000000000000D+00
333  3.3200000000000D+00  0.0000000000000D+00  0.0000000000000D+00
334  3.3300000000000D+00  0.0000000000000D+00  0.0000000000000D+00
335  3.3400000000000D+00  0.0000000000000D+00  0.0000000000000D+00
336  3.3500000000000D+00  0.0000000000000D+00  0.0000000000000D+00
337  3.3600000000000D+00  0.0000000000000D+00  0.0000000000000D+00
338  3.3700000000000D+00  0.0000000000000D+00  0.0000000000000D+00
339  3.3800000000000D+00  0.0000000000000D+00  0.0000000000000D+00
340  3.3900000000000D+00  0.0000000000000D+00  0.0000000000000D+00
341  3.4000000000000D+00  0.0000000000000D+00  0.0000000000000D+00
342  3.4100000000000D+00  0.0000000000000D+00  0.0000000000000D+00
343  3.4200000000000D+00  0.0000000000000D+00  0.0000000000000D+00
344  3.4300000000000D+00  0.0000000000000D+00  0.0000000000000D+00
345  3.4400000000000D+00  0.0000000000000D+00  0.0000000000000D+00
346  3.4500000000000D+00  0.0000000000000D+00  0.0000000000000D+00
347  3.4600000000000D+00  0.0000000000000D+00  0.0000000000000D+00
348  3.4700000000000D+00  0.0000000000000D+00  0.0000000000000D+00
349  3.4800000000000D+00  0.0000000000000D+00  0.0000000000000D+00
350  3.4900000000000D+00  0.0000000000000D+00  0.0000000000000D+00
351  3.5000000000000D+00  0.0000000000000D+00  0.0000000000000D+00
352  3.5100000000000D+00  0.0000000000000D+00  0.0000000000000D+00
353  3.5200000000000D+00  0.0000000000000D+00  0.0000000000000D+00
354  3.5300000000000D+00  0.0000000000000D+00  0.0000000000000D+00
355  3.5400000000000D+00  0.0000000000000D+00  0.0000000000000D+00
356  3.5500000000000D+00  0.0000000000000D+00  0.0000000000000D+00
357  3.5600000000000D+00  0.0000000000000D+00  0.0000000000000D+00
358  3.5700000000000D+00  0.0000000000000D+00  0.0000000000000D+00
359  3.5800000000000D+00  0.0000000000000D+00  0.0000000000000D+00
360  3.5900000000000D+00  0.0000000000000D+00  0.0000000000000D+00
361  3.6000000000000D+00  0.0000000000000D+00  0.0000000000000D+00
362  3.6100000000000D+00  0.0000000000000D+00  0.0000000000000D+00
363  3.6200000000000D+00  0.0000000000000D+00  0.0000000000000D+00
364  3.6300000000000D+00  0.0000000000000D+00  0.0000000000000D+00
365  3.6400000000000D+00  0.0000000000000D+00  0.0000000000000D+00
366  3.6500000000000D+00  0.0000000000000D+00  0.0000000000000D+00
367  3.6600000000000D+00  0.0000000000000D+00  0.0000000000000D+00
368  3.6700000000000D+00  0.0000000000000D+00  0.0000000000000D+00
369  3.6800000000000D+00  0.0000000000000D+00  0.0000000000000D+00
370  3.6900000000000D+00  0.0000000000000D+00  0.0000000000000D+00
371  3.7000000000000D+00  0.0000000000000D+00  0.0000000000000D+00
372  3.7100000000000D+00  0.0000000000000D+00  0.0000000000000D+00
373  3.7200000000000D+00  0.0000000000000D+00  0.0000000000000D+00
374  3.7300000000000D+00  0.0000000000000D+00  0.0000000000000D+00
375  3.7400000000000D+00  0.0000000000000D+00  0.0000000000000D+00
376  3.7500000000000D+00  0.0000000000000D+00  0.0000000000000D+00
377  3.7600000000000D+00  0.0000000000000D+00  0.0000000000000D+00
378  3.7700000000000D+00  0.0000000000000D+00  0.0000000000000D+00
379  3.7800000000000D+00  0.0000000000000D+00  0.0000000000000D+00
380  3.7900000000000D+00  0.0000000000000D+00  0.0000000000000D+00
381  3.8000000000000D+00  0.0000000000000D+00  0.0000000000000D+00
382  3.8100000000000D+00  0.0000000000000D+00  0.0000000000000D+00
383  3.8200000000000D+00  0.0000000000000D+00  0.0000000000000D+00
384  3.8300000000000D+00  0.0000000000000D+00  0.0000000000000D+00
385  3.8400000000000D+00  0.0000000000000D+00  0.0000000000000D+00
386  3.8500000000000D+00  0.0000000000000D+00  0.0000000000000D+00
387  3.8600000000000D+00  0.0000000000000D+00  0.0000000000000D+00
388  3.8700000000000D+00  0.0000000000000D+00  0.0000000000000D+00
389  3.8800000000000D+00  0.0000000000000D+00  0.0000000000000D+00
390  3.8900000000000D+00  0.0000000000000D+00  0.0000000000000D+00
391  3.9000000000000D+00  0.0000000000000D+00  0.0000000000000D+00
392  3.9100000000000D+00  0.0000000000000D+00  0.0000000000000D+00
393  3.9200000000000D+00  0.0000000000000D+00  0.0000000000000D+00
394  3.9300000000000D+00  0.0000000000000D+00  0.0000000000000D+00
395  3.9400000000000D+00  0.0000000000000D+00  0.0000000000000D+00
396  3.9500000000000D+00  0.0000000000000D+00  0.0000000000000D+00
397  3.9600000000000D+00  0.0000000000000D+00  0.0000000000000D+00
398  3.9700000000000D+00  0.0000000000000D+00  0.0000000000000D+00
399  3.9800000000000D+00  0.0000000000000D+00  0.0000000000000D+00
400  3.9900000000000D+00  0.0000000000000D+00  0.0000000000000D+00
401  4.0000000000000D+00  0.0000000000000D+00  0.0000000000000D+00
402  4.0100000000000D+00  0.0000000000000D+00  0.0000000000000D+00
403  4.0200000000000D+00  0.0000000000000D+00  0.0000000000000D+00
404  4.0300000000000D+00  0.0000000000000D+00  0.0000000000000D+00
405  4.0400000000000D+00  0.0000000000000D+00  0.0000000000000D+00
406  4.0500000000000D+00  0.0000000000000D+00  0.0000000000000D+00
407  4.0600000000000D+00  0.0000000000000D+00  0.0000000000000D+00
408  4.0700000000000D+00  0.0000000000000D+00  0.0000000000000D+00
409  4.0800000000000D+00  0.0000000000000D+00  0.0000000000000D+00
410  4.0900000000000D+00  0.0000000000000D+00  0.0000000000000D+00
411  4.1000000000000D+00  0.0000000000000D+00  0.0000000000000D+00
412  4.1100000000000D+00  0.0000000000000D+00  0.0000000000000D+00
413  4.1200000000000D+00  0.0000000000000D+00  0.0000000000000D+00
414  4.1300000000000D+00  0.0000000000000D+00  0.0000000000000D+00
415  4.1400000000000D+00  0.0000000000000D+00  0.0000000000000D+00
416  4.1500000000000D+00  0.0000000000000D+00  0.0000000000000D+00
417  4.1600000000000D+00  0.0000000000000D+00  0.0000000000000D+00
418  4.1700000000000D+00  0.0000000000000D+00  0.0000000000000D+00
419  4.1800000000000D+00  0.0000000000000D+00  0.0000000000000D+00
420  4.1900000000000D+00  0.0000000000000D+00  0.0000000000000D+00
421  4.2000000000000D+00  0.0000000000000D+00  0.0000000000000D+00
422  4.2100000000000D+00  0.0000000000000D+00  0.0000000000000D+00
423  4.2200000000000D+00  0.0000000000000D+00  0.0000000000000D+00
424  4.2300000000000D+00  0.0000000000000D+00  0.0000000000000D+00
425  4.2400000000000D+00  0.0000000000000D+00  0.0000000000000D+00
426  4.2500000000000D+00  0.0000000000000D+00  0.0000000000000D+00
427  4.2600000000000D+00  0.0000000000000D+00  0.0000000000000D+00
428  4.2700000000000D+00  0.0000000000000D+00  0.0000000000000D+00
429  4.2800000000000D+00  0.0000000000000D+00  0.0000000000000D+00
430  4.2900000000000D+00  0.0000000000000D+00  0.0000000000000D+00
431  4.3000000000000D+00  0.0000000000000D+00  0.0000000000000D+00
432  4.3100000000000D+00  0.0000000000000D+00  0.0000000000000D+00
433  4.3200000000000D+00  0.0000000000000D+00  0.0000000000000D+00
434  4.3300000000000D+00  0.0000000000000D+00  0.0000000000000D+00
435  4.3400000000000D+00  0.0000000000000D+00  0.0000000000000D+00
436  4.3500000000000D+00  0.0000000000000D+00  0.0000000000000D+00
437  4.3600000000000D+00  0.0000000000000D+00  0.0000000000000D+00
438  4.3700000000000D+00  0.0000000000000D+00  0.0000000000000D+00
439  4.3800000000000D+00  0.0000000000000D+00  0.0000000000000D+00
440  4.3900000000000D+00  0.0000000000000D+00  0.0000000000000D+00
441  4.4000000000000D+00  0.0000000000000D+00  0.0000000000000D+00
442  4.4100000000000D+00  0.0000000000000D+00  0.0000000000000D+00
443  4.4200000000000D+00  0.0000000000000D+00  0.0000000000000D+00
444  4.4300000000000D+00  0.0000000000000D+00  0.0000000000000D+00