Kr    ONCVPSP  r_core=  1.72  1.51  1.76
36.0000     18.0000      140827    zatom,zion,pspd
8    11     2     4   601     0    pspcod,pspxc,lmax,lloc,mmax,r2well
6.00000000  0.45000000  0.00000000    rchrg fchrg qchrg
2     2     2     0     0    nproj
0                 extension_switch
0                         8.2411277500919D+00  9.1602764628505D-01
1  0.0000000000000D+00 -0.0000000000000D+00  0.0000000000000D+00
2  1.0000000000000D-02 -3.2400875515021D-02  7.6957246261945D-03
3  2.0000000000000D-02 -6.4817606056792D-02  1.5262837513972D-02
4  3.0000000000000D-02 -9.7265754913929D-02  2.2573770453865D-02
5  4.0000000000000D-02 -1.2976030380323D-01  2.9503035470222D-02
6  5.0000000000000D-02 -1.6231536683417D-01  3.5928247918353D-02
7  6.0000000000000D-02 -1.9494391014338D-01  4.1731129272293D-02
8  7.0000000000000D-02 -2.2765747903971D-01  4.6798483019504D-02
9  8.0000000000000D-02 -2.6046593445545D-01  5.1023137246973D-02
10  9.0000000000000D-02 -2.9337720045189D-01  5.4304847682743D-02
11  1.0000000000000D-01 -3.2639702445317D-01  5.6551155232611D-02
12  1.1000000000000D-01 -3.5952875182541D-01  5.7678192269572D-02
13  1.2000000000000D-01 -3.9277311632171D-01  5.7611432290891D-02
14  1.3000000000000D-01 -4.2612804784524D-01  5.6286377819134D-02
15  1.4000000000000D-01 -4.5958849881362D-01  5.3649182043776D-02
16  1.5000000000000D-01 -4.9314629046373D-01  4.9657199517265D-02
17  1.6000000000000D-01 -5.2678998004900D-01  4.4279462623952D-02
18  1.7000000000000D-01 -5.6050475015500D-01  3.7497079576537D-02
19  1.8000000000000D-01 -5.9427232069292D-01  2.9303552102115D-02
20  1.9000000000000D-01 -6.2807088462285D-01  1.9705009232327D-02
21  2.0000000000000D-01 -6.6187506776652D-01  8.7203561142039D-03
22  2.1000000000000D-01 -6.9565591334287D-01 -3.6186642106448D-03
23  2.2000000000000D-01 -7.2938089137714D-01 -1.7267496355688D-02
24  2.3000000000000D-01 -7.6301393324533D-01 -3.2168886148412D-02
25  2.4000000000000D-01 -7.9651549140687D-01 -4.8253082117239D-02
26  2.5000000000000D-01 -8.2984262400032D-01 -6.5438123499974D-02
27  2.6000000000000D-01 -8.6294910442806D-01 -8.3630214774081D-02
28  2.7000000000000D-01 -8.9578555490486D-01 -1.0272418298064D-01
29  2.8000000000000D-01 -9.2829960387513D-01 -1.2260401694923D-01
30  2.9000000000000D-01 -9.6043606645268D-01 -1.4314348516949D-01
31  3.0000000000000D-01 -9.9213714700220D-01 -1.6420682880924D-01
32  3.1000000000000D-01 -1.0233426629315D+00 -1.8564952619831D-01
33  3.2000000000000D-01 -1.0539902885416D+00 -2.0731912431694D-01
34  3.3000000000000D-01 -1.0840158157006D+00 -2.2905612574130D-01
35  3.4000000000000D-01 -1.1133534374445D+00 -2.5069495122954D-01
36  3.5000000000000D-01 -1.1419360389503D+00 -2.7206492447935D-01
37  3.6000000000000D-01 -1.1696955133172D+00 -2.9299133770998D-01
38  3.7000000000000D-01 -1.1965630752239D+00 -3.1329650611911D-01
39  3.8000000000000D-01 -1.2224696060488D+00 -3.3280092434321D-01
40  3.9000000000000D-01 -1.2473459881561D+00 -3.5132438119448D-01
41  4.0000000000000D-01 -1.2711234560711D+00 -3.6868712591868D-01
42  4.1000000000000D-01 -1.2937339517121D+00 -3.8471104194332D-01
43  4.2000000000000D-01 -1.3151104822711D+00 -3.9922082283162D-01
44  4.3000000000000D-01 -1.3351874790791D+00 -4.1204514431196D-01
45  4.4000000000000D-01 -1.3539011554868D+00 -4.2301782524940D-01
46  4.5000000000000D-01 -1.3711898617570D+00 -4.3197897034709D-01
47  4.6000000000000D-01 -1.3869944348834D+00 -4.3877608713966D-01
48  4.7000000000000D-01 -1.4012585411182D+00 -4.4326516946142D-01
49  4.8000000000000D-01 -1.4139290088108D+00 -4.4531173907828D-01
50  4.9000000000000D-01 -1.4249561381642D+00 -4.4479180209678D-01
51  5.0000000000000D-01 -1.4342940359997D+00 -4.4159287460792D-01
52  5.1000000000000D-01 -1.4419009004503D+00 -4.3561483362521D-01
53  5.2000000000000D-01 -1.4477392688256D+00 -4.2677064023526D-01
54  5.3000000000000D-01 -1.4517763150705D+00 -4.1498720720554D-01
55  5.4000000000000D-01 -1.4539840862489D+00 -4.0020605643024D-01
56  5.5000000000000D-01 -1.4543396539262D+00 -3.8238370267238D-01
57  5.6000000000000D-01 -1.4528254370164D+00 -3.6149254672579D-01
58  5.7000000000000D-01 -1.4494291968072D+00 -3.3752075270118D-01
59  5.8000000000000D-01 -1.4441443779206D+00 -3.1047315414416D-01
60  5.9000000000000D-01 -1.4369700218428D+00 -2.8037086625772D-01
61  6.0000000000000D-01 -1.4279110457870D+00 -2.4725195640296D-01
62  6.1000000000000D-01 -1.4169781574459D+00 -2.1117103815460D-01
63  6.2000000000000D-01 -1.4041879613115D+00 -1.7219939759640D-01
64  6.3000000000000D-01 -1.3895629764624D+00 -1.3042483982165D-01
65  6.4000000000000D-01 -1.3731315320740D+00 -8.5951198262845D-02
66  6.5000000000000D-01 -1.3549278028836D+00 -3.8898178229307D-02
67  6.6000000000000D-01 -1.3349916892516D+00  1.0599225777257D-02
68  6.7000000000000D-01 -1.3133686846480D+00  6.2391350015643D-02
69  6.8000000000000D-01 -1.2901097505225D+00  1.1631448580850D-01
70  6.9000000000000D-01 -1.2652711837181D+00  1.7219160216279D-01
71  7.0000000000000D-01 -1.2389143726700D+00  2.2983326856994D-01
72  7.1000000000000D-01 -1.2111055963241D+00  2.8903854552935D-01
73  7.2000000000000D-01 -1.1819157822787D+00  3.4959596097833D-01
74  7.3000000000000D-01 -1.1514202411881D+00  4.1128460461383D-01
75  7.4000000000000D-01 -1.1196983659023D+00  4.7387530771480D-01
76  7.5000000000000D-01 -1.0868333264558D+00  5.3713176931907D-01
77  7.6000000000000D-01 -1.0529117408986D+00  6.0081181370170D-01
78  7.7000000000000D-01 -1.0180233288051D+00  6.6466867160468D-01
79  7.8000000000000D-01 -9.8226054940456D-01  7.2845229599138D-01
80  7.9000000000000D-01 -9.4571822635554D-01  7.9191070408923D-01
81  8.0000000000000D-01 -9.0849316125263D-01  8.5479133732685D-01
82  8.1000000000000D-01 -8.7068373800107D-01  9.1684243067794D-01
83  8.2000000000000D-01 -8.3238952023216D-01  9.7781438288464D-01
84  8.3000000000000D-01 -7.9371084395353D-01  1.0374611190469D+00
85  8.4000000000000D-01 -7.5474840763897D-01  1.0955414371234D+00
86  8.5000000000000D-01 -7.1560286196278D-01  1.1518203299897D+00
87  8.6000000000000D-01 -6.7637440137566D-01  1.2060702748342D+00
88  8.7000000000000D-01 -6.3716235970316D-01  1.2580724818410D+00
89  8.8000000000000D-01 -5.9806481192610D-01  1.3076180943073D+00
90  8.9000000000000D-01 -5.5917818427428D-01  1.3545093325680D+00
91  9.0000000000000D-01 -5.2059687473035D-01  1.3985605743670D+00
92  9.1000000000000D-01 -4.8241288599874D-01  1.4395993646167D+00
93  9.2000000000000D-01 -4.4471547294249D-01  1.4774673478415D+00
94  9.3000000000000D-01 -4.0759080642562D-01  1.5120211170271D+00
95  9.4000000000000D-01 -3.7112165541605D-01  1.5431329730997D+00
96  9.5000000000000D-01 -3.3538708909821D-01  1.5706915898729D+00
97  9.6000000000000D-01 -3.0046220061011D-01  1.5946025800350D+00
98  9.7000000000000D-01 -2.6641785384979D-01  1.6147889586312D+00
99  9.8000000000000D-01 -2.3332057733849D-01  1.6311911483268D+00
100  9.9000000000000D-01 -2.0123209987161D-01  1.6437680147547D+00
101  1.0000000000000D+00 -1.7020918602620D-01  1.6524969177367D+00
102  1.0100000000000D+00 -1.4030368966441D-01  1.6573731565415D+00
103  1.0200000000000D+00 -1.1156233390140D-01  1.6584101764595D+00
104  1.0300000000000D+00 -8.4026615170297D-02  1.6556393835174D+00
105  1.0400000000000D+00 -5.7732902616930D-02  1.6491094715509D+00
106  1.0500000000000D+00 -3.2712027086615D-02  1.6388869656879D+00
107  1.0600000000000D+00 -8.9892379724622D-03  1.6250556563426D+00
108  1.0700000000000D+00  1.3415402753096D-02  1.6077151318140D+00
109  1.0800000000000D+00  3.4487143531219D-02  1.5869804970212D+00
110  1.0900000000000D+00  5.4216227172615D-02  1.5629812614308D+00
111  1.1000000000000D+00  7.2598557238410D-02  1.5358617821051D+00
112  1.1100000000000D+00  8.9635080532216D-02  1.5057792229486D+00
113  1.1200000000000D+00  1.0533153648427D-01  1.4729024851795D+00
114  1.1300000000000D+00  1.1969824625623D-01  1.4374113880653D+00
115  1.1400000000000D+00  1.3275044259015D-01  1.3994959873821D+00
116  1.1500000000000D+00  1.4450788784621D-01  1.3593547190517D+00
117  1.1600000000000D+00  1.5499433598180D-01  1.3171932750319D+00
118  1.1700000000000D+00  1.6423734391901D-01  1.2732242553732D+00
119  1.1800000000000D+00  1.7226862547209D-01  1.2276644933784D+00
120  1.1900000000000D+00  1.7912318360954D-01  1.1807341237281D+00
121  1.2000000000000D+00  1.8483912592593D-01  1.1326563467034D+00
122  1.2100000000000D+00  1.8945762638475D-01  1.0836558988165D+00
123  1.2200000000000D+00  1.9302249203347D-01  1.0339549425477D+00
124  1.2300000000000D+00  1.9557978479163D-01  9.8377530642034D-01
125  1.2400000000000D+00  1.9717787879051D-01  9.3333854634468D-01
126  1.2500000000000D+00  1.9786659962351D-01  8.8285693960579D-01
127  1.2600000000000D+00  1.9769728395459D-01  8.3253980388696D-01
128  1.2700000000000D+00  1.9672298585252D-01  7.8259428445486D-01
129  1.2800000000000D+00  1.9499678394556D-01  7.3321207459092D-01
130  1.2900000000000D+00  1.9257271266740D-01  6.8458037042529D-01
131  1.3000000000000D+00  1.8950581384763D-01  6.3688107321530D-01
132  1.3100000000000D+00  1.8584983119362D-01  5.9027644928373D-01
133  1.3200000000000D+00  1.8165917760894D-01  5.4492399987826D-01
134  1.3300000000000D+00  1.7698810349662D-01  5.0097043651638D-01
135  1.3400000000000D+00  1.7188876907886D-01  4.5854223506619D-01
136  1.3500000000000D+00  1.6641399547786D-01  4.1776180475258D-01
137  1.3600000000000D+00  1.6061447620700D-01  3.7873227226033D-01
138  1.3700000000000D+00  1.5453902981485D-01  3.4154085541987D-01
139  1.3800000000000D+00  1.4823722995668D-01  3.0627122160231D-01
140  1.3900000000000D+00  1.4175367737010D-01  2.7297729519120D-01
141  1.4000000000000D+00  1.3513339640945D-01  2.4170935028966D-01
142  1.4100000000000D+00  1.2841892360599D-01  2.1250034863907D-01
143  1.4200000000000D+00  1.2164914146601D-01  1.8536316994879D-01
144  1.4300000000000D+00  1.1486389955423D-01  1.6030857306940D-01
145  1.4400000000000D+00  1.0809654567444D-01  1.3731750811997D-01
146  1.4500000000000D+00  1.0138117194292D-01  1.1636906753361D-01
147  1.4600000000000D+00  9.4747846408814D-02  9.7422961032789D-02
148  1.4700000000000D+00  8.8223680715763D-02  8.0425436580124D-02
149  1.4800000000000D+00  8.1835221760885D-02  6.5315574485537D-02
150  1.4900000000000D+00  7.5602768995991D-02  5.2010834973102D-02
151  1.5000000000000D+00  6.9548207870494D-02  4.0428123483415D-02
152  1.5100000000000D+00  6.3686270718760D-02  3.0462526831018D-02
153  1.5200000000000D+00  5.8032655267531D-02  2.2008355783601D-02
154  1.5300000000000D+00  5.2598796361545D-02  1.4948802580992D-02
155  1.5400000000000D+00  4.7395502142390D-02  9.1666272193548D-03
156  1.5500000000000D+00  4.2432046374644D-02  4.5404979287527D-03
157  1.5600000000000D+00  3.7715987226631D-02  9.5180413365168D-04
158  1.5700000000000D+00  3.3254629359212D-02 -1.7229564930057D-03
159  1.5800000000000D+00  2.9053293983564D-02 -3.5976377270010D-03
160  1.5900000000000D+00  2.5117657961027D-02 -4.7946158806576D-03
161  1.6000000000000D+00  2.1451732075326D-02 -5.4180281396634D-03
162  1.6100000000000D+00  1.8059941842165D-02 -5.5844948458577D-03
163  1.6200000000000D+00  1.4945802922251D-02 -5.3856131653491D-03
164  1.6300000000000D+00  1.2112986472071D-02 -4.9261667384553D-03
165  1.6400000000000D+00  9.5650782628362D-03 -4.2835525482124D-03
166  1.6500000000000D+00  7.3055811181766D-03 -3.5465642838991D-03
167  1.6600000000000D+00  5.3385413247601D-03 -2.7752995547052D-03
168  1.6700000000000D+00  3.6677952001378D-03 -2.0398686248054D-03
169  1.6800000000000D+00  2.2981797233933D-03 -1.3803005983928D-03
170  1.6900000000000D+00  1.2342258215941D-03 -8.4625631216998D-04
171  1.7000000000000D+00  4.9175953195080D-04 -4.6363035188609D-04
172  1.7100000000000D+00  8.5596031324061D-05 -2.6845197019580D-04
173  1.7200000000000D+00 -8.1020715429872D-05 -1.5703800082411D-04
174  1.7300000000000D+00 -7.1682001494668D-05 -5.5972398488525D-05
175  1.7400000000000D+00  1.0956839531540D-06  2.8126861430042D-06
176  1.7500000000000D+00  4.4185314168905D-06  1.1342634025936D-05
177  1.7600000000000D+00  0.0000000000000D+00  0.0000000000000D+00
178  1.7700000000000D+00  0.0000000000000D+00  0.0000000000000D+00
179  1.7800000000000D+00  0.0000000000000D+00  0.0000000000000D+00
180  1.7900000000000D+00  0.0000000000000D+00  0.0000000000000D+00
181  1.8000000000000D+00  0.0000000000000D+00  0.0000000000000D+00
182  1.8100000000000D+00  0.0000000000000D+00  0.0000000000000D+00
183  1.8200000000000D+00  0.0000000000000D+00  0.0000000000000D+00
184  1.8300000000000D+00  0.0000000000000D+00  0.0000000000000D+00
185  1.8400000000000D+00  0.0000000000000D+00  0.0000000000000D+00
186  1.8500000000000D+00  0.0000000000000D+00  0.0000000000000D+00
187  1.8600000000000D+00  0.0000000000000D+00  0.0000000000000D+00
188  1.8700000000000D+00  0.0000000000000D+00  0.0000000000000D+00
189  1.8800000000000D+00  0.0000000000000D+00  0.0000000000000D+00
190  1.8900000000000D+00  0.0000000000000D+00  0.0000000000000D+00
191  1.9000000000000D+00  0.0000000000000D+00  0.0000000000000D+00
192  1.9100000000000D+00  0.0000000000000D+00  0.0000000000000D+00
193  1.9200000000000D+00  0.0000000000000D+00  0.0000000000000D+00
194  1.9300000000000D+00  0.0000000000000D+00  0.0000000000000D+00
195  1.9400000000000D+00  0.0000000000000D+00  0.0000000000000D+00
196  1.9500000000000D+00  0.0000000000000D+00  0.0000000000000D+00
197  1.9600000000000D+00  0.0000000000000D+00  0.0000000000000D+00
198  1.9700000000000D+00  0.0000000000000D+00  0.0000000000000D+00
199  1.9800000000000D+00  0.0000000000000D+00  0.0000000000000D+00
200  1.9900000000000D+00  0.0000000000000D+00  0.0000000000000D+00
201  2.0000000000000D+00  0.0000000000000D+00  0.0000000000000D+00
202  2.0100000000000D+00  0.0000000000000D+00  0.0000000000000D+00
203  2.0200000000000D+00  0.0000000000000D+00  0.0000000000000D+00
204  2.0300000000000D+00  0.0000000000000D+00  0.0000000000000D+00
205  2.0400000000000D+00  0.0000000000000D+00  0.0000000000000D+00
206  2.0500000000000D+00  0.0000000000000D+00  0.0000000000000D+00
207  2.0600000000000D+00  0.0000000000000D+00  0.0000000000000D+00
208  2.0700000000000D+00  0.0000000000000D+00  0.0000000000000D+00
209  2.0800000000000D+00  0.0000000000000D+00  0.0000000000000D+00
210  2.0900000000000D+00  0.0000000000000D+00  0.0000000000000D+00
211  2.1000000000000D+00  0.0000000000000D+00  0.0000000000000D+00
212  2.1100000000000D+00  0.0000000000000D+00  0.0000000000000D+00
213  2.1200000000000D+00  0.0000000000000D+00  0.0000000000000D+00
214  2.1300000000000D+00  0.0000000000000D+00  0.0000000000000D+00
215  2.1400000000000D+00  0.0000000000000D+00  0.0000000000000D+00
216  2.1500000000000D+00  0.0000000000000D+00  0.0000000000000D+00
217  2.1600000000000D+00  0.0000000000000D+00  0.0000000000000D+00
218  2.1700000000000D+00  0.0000000000000D+00  0.0000000000000D+00
219  2.1800000000000D+00  0.0000000000000D+00  0.0000000000000D+00
220  2.1900000000000D+00  0.0000000000000D+00  0.0000000000000D+00
221  2.2000000000000D+00  0.0000000000000D+00  0.0000000000000D+00
222  2.2100000000000D+00  0.0000000000000D+00  0.0000000000000D+00
223  2.2200000000000D+00  0.0000000000000D+00  0.0000000000000D+00
224  2.2300000000000D+00  0.0000000000000D+00  0.0000000000000D+00
225  2.2400000000000D+00  0.0000000000000D+00  0.0000000000000D+00
226  2.2500000000000D+00  0.0000000000000D+00  0.0000000000000D+00
227  2.2600000000000D+00  0.0000000000000D+00  0.0000000000000D+00
228  2.2700000000000D+00  0.0000000000000D+00  0.0000000000000D+00
229  2.2800000000000D+00  0.0000000000000D+00  0.0000000000000D+00
230  2.2900000000000D+00  0.0000000000000D+00  0.0000000000000D+00
231  2.3000000000000D+00  0.0000000000000D+00  0.0000000000000D+00
232  2.3100000000000D+00  0.0000000000000D+00  0.0000000000000D+00
233  2.3200000000000D+00  0.0000000000000D+00  0.0000000000000D+00
234  2.3300000000000D+00  0.0000000000000D+00  0.0000000000000D+00
235  2.3400000000000D+00  0.0000000000000D+00  0.0000000000000D+00
236  2.3500000000000D+00  0.0000000000000D+00  0.0000000000000D+00
237  2.3600000000000D+00  0.0000000000000D+00  0.0000000000000D+00
238  2.3700000000000D+00  0.0000000000000D+00  0.0000000000000D+00
239  2.3800000000000D+00  0.0000000000000D+00  0.0000000000000D+00
240  2.3900000000000D+00  0.0000000000000D+00  0.0000000000000D+00
241  2.4000000000000D+00  0.0000000000000D+00  0.0000000000000D+00
242  2.4100000000000D+00  0.0000000000000D+00  0.0000000000000D+00
243  2.4200000000000D+00  0.0000000000000D+00  0.0000000000000D+00
244  2.4300000000000D+00  0.0000000000000D+00  0.0000000000000D+00
245  2.4400000000000D+00  0.0000000000000D+00  0.0000000000000D+00
246  2.4500000000000D+00  0.0000000000000D+00  0.0000000000000D+00
247  2.4600000000000D+00  0.0000000000000D+00  0.0000000000000D+00
248  2.4700000000000D+00  0.0000000000000D+00  0.0000000000000D+00
249  2.4800000000000D+00  0.0000000000000D+00  0.0000000000000D+00
250  2.4900000000000D+00  0.0000000000000D+00  0.0000000000000D+00
251  2.5000000000000D+00  0.0000000000000D+00  0.0000000000000D+00
252  2.5100000000000D+00  0.0000000000000D+00  0.0000000000000D+00
253  2.5200000000000D+00  0.0000000000000D+00  0.0000000000000D+00
254  2.5300000000000D+00  0.0000000000000D+00  0.0000000000000D+00
255  2.5400000000000D+00  0.0000000000000D+00  0.0000000000000D+00
256  2.5500000000000D+00  0.0000000000000D+00  0.0000000000000D+00
257  2.5600000000000D+00  0.0000000000000D+00  0.0000000000000D+00
258  2.5700000000000D+00  0.0000000000000D+00  0.0000000000000D+00
259  2.5800000000000D+00  0.0000000000000D+00  0.0000000000000D+00
260  2.5900000000000D+00  0.0000000000000D+00  0.0000000000000D+00
261  2.6000000000000D+00  0.0000000000000D+00  0.0000000000000D+00
262  2.6100000000000D+00  0.0000000000000D+00  0.0000000000000D+00
263  2.6200000000000D+00  0.0000000000000D+00  0.0000000000000D+00
264  2.6300000000000D+00  0.0000000000000D+00  0.0000000000000D+00
265  2.6400000000000D+00  0.0000000000000D+00  0.0000000000000D+00
266  2.6500000000000D+00  0.0000000000000D+00  0.0000000000000D+00
267  2.6600000000000D+00  0.0000000000000D+00  0.0000000000000D+00
268  2.6700000000000D+00  0.0000000000000D+00  0.0000000000000D+00
269  2.6800000000000D+00  0.0000000000000D+00  0.0000000000000D+00
270  2.6900000000000D+00  0.0000000000000D+00  0.0000000000000D+00
271  2.7000000000000D+00  0.0000000000000D+00  0.0000000000000D+00
272  2.7100000000000D+00  0.0000000000000D+00  0.0000000000000D+00
273  2.7200000000000D+00  0.0000000000000D+00  0.0000000000000D+00
274  2.7300000000000D+00  0.0000000000000D+00  0.0000000000000D+00
275  2.7400000000000D+00  0.0000000000000D+00  0.0000000000000D+00
276  2.7500000000000D+00  0.0000000000000D+00  0.0000000000000D+00
277  2.7600000000000D+00  0.0000000000000D+00  0.0000000000000D+00
278  2.7700000000000D+00  0.0000000000000D+00  0.0000000000000D+00
279  2.7800000000000D+00  0.0000000000000D+00  0.0000000000000D+00
280  2.7900000000000D+00  0.0000000000000D+00  0.0000000000000D+00
281  2.8000000000000D+00  0.0000000000000D+00  0.0000000000000D+00
282  2.8100000000000D+00  0.0000000000000D+00  0.0000000000000D+00
283  2.8200000000000D+00  0.0000000000000D+00  0.0000000000000D+00
284  2.8300000000000D+00  0.0000000000000D+00  0.0000000000000D+00
285  2.8400000000000D+00  0.0000000000000D+00  0.0000000000000D+00
286  2.8500000000000D+00  0.0000000000000D+00  0.0000000000000D+00
287  2.8600000000000D+00  0.0000000000000D+00  0.0000000000000D+00
288  2.8700000000000D+00  0.0000000000000D+00  0.0000000000000D+00
289  2.8800000000000D+00  0.0000000000000D+00  0.0000000000000D+00
290  2.8900000000000D+00  0.0000000000000D+00  0.0000000000000D+00
291  2.9000000000000D+00  0.0000000000000D+00  0.0000000000000D+00
292  2.9100000000000D+00  0.0000000000000D+00  0.0000000000000D+00
293  2.9200000000000D+00  0.0000000000000D+00  0.0000000000000D+00
294  2.9300000000000D+00  0.0000000000000D+00  0.0000000000000D+00
295  2.9400000000000D+00  0.0000000000000D+00  0.0000000000000D+00
296  2.9500000000000D+00  0.0000000000000D+00  0.0000000000000D+00
297  2.9600000000000D+00  0.0000000000000D+00  0.0000000000000D+00
298  2.9700000000000D+00  0.0000000000000D+00  0.0000000000000D+00
299  2.9800000000000D+00  0.0000000000000D+00  0.0000000000000D+00
300  2.9900000000000D+00  0.0000000000000D+00  0.0000000000000D+00
301  3.0000000000000D+00  0.0000000000000D+00  0.0000000000000D+00
302  3.0100000000000D+00  0.0000000000000D+00  0.0000000000000D+00
303  3.0200000000000D+00  0.0000000000000D+00  0.0000000000000D+00
304  3.0300000000000D+00  0.0000000000000D+00  0.0000000000000D+00
305  3.0400000000000D+00  0.0000000000000D+00  0.0000000000000D+00
306  3.0500000000000D+00  0.0000000000000D+00  0.0000000000000D+00
307  3.0600000000000D+00  0.0000000000000D+00  0.0000000000000D+00
308  3.0700000000000D+00  0.0000000000000D+00  0.0000000000000D+00
309  3.0800000000000D+00  0.0000000000000D+00  0.0000000000000D+00
310  3.0900000000000D+00  0.0000000000000D+00  0.0000000000000D+00
311  3.1000000000000D+00  0.0000000000000D+00  0.0000000000000D+00
312  3.1100000000000D+00  0.0000000000000D+00  0.0000000000000D+00
313  3.1200000000000D+00  0.0000000000000D+00  0.0000000000000D+00
314  3.1300000000000D+00  0.0000000000000D+00  0.0000000000000D+00
315  3.1400000000000D+00  0.0000000000000D+00  0.0000000000000D+00
316  3.1500000000000D+00  0.0000000000000D+00  0.0000000000000D+00
317  3.1600000000000D+00  0.0000000000000D+00  0.0000000000000D+00
318  3.1700000000000D+00  0.0000000000000D+00  0.0000000000000D+00
319  3.1800000000000D+00  0.0000000000000D+00  0.0000000000000D+00
320  3.1900000000000D+00  0.0000000000000D+00  0.0000000000000D+00
321  3.2000000000000D+00  0.0000000000000D+00  0.0000000000000D+00
322  3.2100000000000D+00  0.0000000000000D+00  0.0000000000000D+00
323  3.2200000000000D+00  0.0000000000000D+00  0.0000000000000D+00
324  3.2300000000000D+00  0.0000000000000D+00  0.0000000000000D+00
325  3.2400000000000D+00  0.0000000000000D+00  0.0000000000000D+00
326  3.2500000000000D+00  0.0000000000000D+00  0.0000000000000D+00
327  3.2600000000000D+00  0.0000000000000D+00  0.0000000000000D+00
328  3.2700000000000D+00  0.0000000000000D+00  0.0000000000000D+00
329  3.2800000000000D+00  0.0000000000000D+00  0.0000000000000D+00
330  3.2900000000000D+00  0.0000000000000D+00  0.0000000000000D+00
331  3.3000000000000D+00  0.0000000000000D+00  0.0000000000000D+00
332  3.3100000000000D+00  0.0000000000000D+00  0.0000000000000D+00
333  3.3200000000000D+00  0.0000000000000D+00  0.0000000000000D+00
334  3.3300000000000D+00  0.0000000000000D+00  0.0000000000000D+00
335  3.3400000000000D+00  0.0000000000000D+00  0.0000000000000D+00
336  3.3500000000000D+00  0.0000000000000D+00  0.0000000000000D+00
337  3.3600000000000D+00  0.0000000000000D+00  0.0000000000000D+00
338  3.3700000000000D+00  0.0000000000000D+00  0.0000000000000D+00
339  3.3800000000000D+00  0.0000000000000D+00  0.0000000000000D+00
340  3.3900000000000D+00  0.0000000000000D+00  0.0000000000000D+00
341  3.4000000000000D+00  0.0000000000000D+00  0.0000000000000D+00
342  3.4100000000000D+00  0.0000000000000D+00  0.0000000000000D+00
343  3.4200000000000D+00  0.0000000000000D+00  0.0000000000000D+00
344  3.4300000000000D+00  0.0000000000000D+00  0.0000000000000D+00
345  3.4400000000000D+00  0.0000000000000D+00  0.0000000000000D+00
346  3.4500000000000D+00  0.0000000000000D+00  0.0000000000000D+00
347  3.4600000000000D+00  0.0000000000000D+00  0.0000000000000D+00
348  3.4700000000000D+00  0.0000000000000D+00  0.0000000000000D+00
349  3.4800000000000D+00  0.0000000000000D+00  0.0000000000000D+00
350  3.4900000000000D+00  0.0000000000000D+00  0.0000000000000D+00
351  3.5000000000000D+00  0.0000000000000D+00  0.0000000000000D+00
352  3.5100000000000D+00  0.0000000000000D+00  0.0000000000000D+00
353  3.5200000000000D+00  0.0000000000000D+00  0.0000000000000D+00
354  3.5300000000000D+00  0.0000000000000D+00  0.0000000000000D+00
355  3.5400000000000D+00  0.0000000000000D+00  0.0000000000000D+00
356  3.5500000000000D+00  0.0000000000000D+00  0.0000000000000D+00
357  3.5600000000000D+00  0.0000000000000D+00  0.0000000000000D+00
358  3.5700000000000D+00  0.0000000000000D+00  0.0000000000000D+00
359  3.5800000000000D+00  0.0000000000000D+00  0.0000000000000D+00
360  3.5900000000000D+00  0.0000000000000D+00  0.0000000000000D+00
361  3.6000000000000D+00  0.0000000000000D+00  0.0000000000000D+00
362  3.6100000000000D+00  0.0000000000000D+00  0.0000000000000D+00
363  3.6200000000000D+00  0.0000000000000D+00  0.0000000000000D+00
364  3.6300000000000D+00  0.0000000000000D+00  0.0000000000000D+00
365  3.6400000000000D+00  0.0000000000000D+00  0.0000000000000D+00
366  3.6500000000000D+00  0.0000000000000D+00  0.0000000000000D+00
367  3.6600000000000D+00  0.0000000000000D+00  0.0000000000000D+00
368  3.6700000000000D+00  0.0000000000000D+00  0.0000000000000D+00
369  3.6800000000000D+00  0.0000000000000D+00  0.0000000000000D+00
370  3.6900000000000D+00  0.0000000000000D+00  0.0000000000000D+00
371  3.7000000000000D+00  0.0000000000000D+00  0.0000000000000D+00
372  3.7100000000000D+00  0.0000000000000D+00  0.0000000000000D+00
373  3.7200000000000D+00  0.0000000000000D+00  0.0000000000000D+00
374  3.7300000000000D+00  0.0000000000000D+00  0.0000000000000D+00
375  3.7400000000000D+00  0.0000000000000D+00  0.0000000000000D+00
376  3.7500000000000D+00  0.0000000000000D+00  0.0000000000000D+00
377  3.7600000000000D+00  0.0000000000000D+00  0.0000000000000D+00
378  3.7700000000000D+00  0.0000000000000D+00  0.0000000000000D+00
379  3.7800000000000D+00  0.0000000000000D+00  0.0000000000000D+00
380  3.7900000000000D+00  0.0000000000000D+00  0.0000000000000D+00
381  3.8000000000000D+00  0.0000000000000D+00  0.0000000000000D+00
382  3.8100000000000D+00  0.0000000000000D+00  0.0000000000000D+00
383  3.8200000000000D+00  0.0000000000000D+00  0.0000000000000D+00
384  3.8300000000000D+00  0.0000000000000D+00  0.0000000000000D+00
385  3.8400000000000D+00  0.0000000000000D+00  0.0000000000000D+00
386  3.8500000000000D+00  0.0000000000000D+00  0.0000000000000D+00
387  3.8600000000000D+00  0.0000000000000D+00  0.0000000000000D+00
388  3.8700000000000D+00  0.0000000000000D+00  0.0000000000000D+00
389  3.8800000000000D+00  0.0000000000000D+00  0.0000000000000D+00
390  3.8900000000000D+00  0.0000000000000D+00  0.0000000000000D+00
391  3.9000000000000D+00  0.0000000000000D+00  0.0000000000000D+00
392  3.9100000000000D+00  0.0000000000000D+00  0.0000000000000D+00
393  3.9200000000000D+00  0.0000000000000D+00  0.0000000000000D+00
394  3.9300000000000D+00  0.0000000000000D+00  0.0000000000000D+00
395  3.9400000000000D+00  0.0000000000000D+00  0.0000000000000D+00
396  3.9500000000000D+00  0.0000000000000D+00  0.0000000000000D+00
397  3.9600000000000D+00  0.0000000000000D+00  0.0000000000000D+00
398  3.9700000000000D+00  0.0000000000000D+00  0.0000000000000D+00
399  3.9800000000000D+00  0.0000000000000D+00  0.0000000000000D+00
400  3.9900000000000D+00  0.0000000000000D+00  0.0000000000000D+00
401  4.0000000000000D+00  0.0000000000000D+00  0.0000000000000D+00
402  4.0100000000000D+00  0.0000000000000D+00  0.0000000000000D+00
403  4.0200000000000D+00  0.0000000000000D+00  0.0000000000000D+00
404  4.0300000000000D+00  0.0000000000000D+00  0.0000000000000D+00
405  4.0400000000000D+00  0.0000000000000D+00  0.0000000000000D+00
406  4.0500000000000D+00  0.0000000000000D+00  0.0000000000000D+00
407  4.0600000000000D+00  0.0000000000000D+00  0.0000000000000D+00
408  4.0700000000000D+00  0.0000000000000D+00  0.0000000000000D+00
409  4.0800000000000D+00  0.0000000000000D+00  0.0000000000000D+00
410  4.0900000000000D+00  0.0000000000000D+00  0.0000000000000D+00
411  4.1000000000000D+00  0.0000000000000D+00  0.0000000000000D+00
412  4.1100000000000D+00  0.0000000000000D+00  0.0000000000000D+00
413  4.1200000000000D+00  0.0000000000000D+00  0.0000000000000D+00
414  4.1300000000000D+00  0.0000000000000D+00  0.0000000000000D+00
415  4.1400000000000D+00  0.0000000000000D+00  0.0000000000000D+00
416  4.1500000000000D+00  0.0000000000000D+00  0.0000000000000D+00
417  4.1600000000000D+00  0.0000000000000D+00  0.0000000000000D+00
418  4.1700000000000D+00  0.0000000000000D+00  0.0000000000000D+00
419  4.1800000000000D+00  0.0000000000000D+00  0.0000000000000D+00
420  4.1900000000000D+00  0.0000000000000D+00  0.0000000000000D+00
421  4.2000000000000D+00  0.0000000000000D+00  0.0000000000000D+00
422  4.2100000000000D+00  0.0000000000000D+00  0.0000000000000D+00
423  4.2200000000000D+00  0.0000000000000D+00  0.0000000000000D+00
424  4.2300000000000D+00  0.0000000000000D+00  0.0000000000000D+00
425  4.2400000000000D+00  0.0000000000000D+00  0.0000000000000D+00
426  4.2500000000000D+00  0.0000000000000D+00  0.0000000000000D+00
427  4.2600000000000D+00  0.0000000000000D+00  0.0000000000000D+00
428  4.2700000000000D+00  0.0000000000000D+00  0.0000000000000D+00
429  4.2800000000000D+00  0.0000000000000D+00  0.0000000000000D+00
430  4.2900000000000D+00  0.0000000000000D+00  0.0000000000000D+00
431  4.3000000000000D+00  0.0000000000000D+00  0.0000000000000D+00
432  4.3100000000000D+00  0.0000000000000D+00  0.0000000000000D+00
433  4.3200000000000D+00  0.0000000000000D+00  0.0000000000000D+00
434  4.3300000000000D+00  0.0000000000000D+00  0.0000000000000D+00
435  4.3400000000000D+00  0.0000000000000D+00  0.0000000000000D+00
436  4.3500000000000D+00  0.0000000000000D+00  0.0000000000000D+00
437  4.3600000000000D+00  0.0000000000000D+00  0.0000000000000D+00
438  4.3700000000000D+00  0.0000000000000D+00  0.0000000000000D+00
439  4.3800000000000D+00  0.0000000000000D+00  0.0000000000000D+00
440  4.3900000000000D+00  0.0000000000000D+00  0.0000000000000D+00
441  4.4000000000000D+00  0.0000000000000D+00  0.0000000000000D+00
442  4.4100000000000D+00  0.0000000000000D+00  0.0000000000000D+00
443  4.4200000000000D+00  0.0000000000000D+00  0.0000000000000D+00
444  4.4300000000000D+00  0.0000000000000D+00  0.0000000000000D+00