Kr    ONCVPSP  r_core=  1.76  1.51  1.72
36.0000      8.0000      140826    zatom,zion,pspd
8    11     2     4   601     0    pspcod,pspxc,lmax,lloc,mmax,r2well
6.00000000  0.15000000  0.00000000    rchrg fchrg qchrg
2     2     2     0     0    nproj
0                 extension_switch
0                         8.2324607128741D+00  8.4205660906605D-01
1  0.0000000000000D+00 -0.0000000000000D+00  0.0000000000000D+00
2  1.0000000000000D-02 -4.0510713219140D-02  2.1408897571399D-02
3  2.0000000000000D-02 -8.0962909828388D-02  4.2665673034211D-02
4  3.0000000000000D-02 -1.2129843850020D-01  6.3619692836900D-02
5  4.0000000000000D-02 -1.6145987462587D-01  8.4123285031213D-02
6  5.0000000000000D-02 -2.0139087409934D-01  1.0403318145020D-01
7  6.0000000000000D-02 -2.4103651571986D-01  1.2321191396796D-01
8  7.0000000000000D-02 -2.8034362859985D-01  1.4152915024213D-01
9  8.0000000000000D-02 -3.1926110111992D-01  1.5886295495142D-01
10  9.0000000000000D-02 -3.5774016815520D-01  1.7510096325472D-01
11  1.0000000000000D-01 -3.9573467353169D-01  1.9014145412291D-01
12  1.1000000000000D-01 -4.3320130490782D-01  2.0389431211945D-01
13  1.2000000000000D-01 -4.7009979857492D-01  2.1628186738332D-01
14  1.3000000000000D-01 -5.0639311195837D-01  2.2723960469579D-01
15  1.4000000000000D-01 -5.4204756199791D-01  2.3671673408486D-01
16  1.5000000000000D-01 -5.7703292779135D-01  2.4467661620556D-01
17  1.6000000000000D-01 -6.1132251649164D-01  2.5109703816098D-01
18  1.7000000000000D-01 -6.4489319152355D-01  2.5597033567284D-01
19  1.8000000000000D-01 -6.7772536295199D-01  2.5930336060338D-01
20  1.9000000000000D-01 -7.0980293983459D-01  2.6111729275242D-01
21  2.0000000000000D-01 -7.4111324509967D-01  2.6144729771855D-01
22  2.1000000000000D-01 -7.7164689376540D-01  2.6034203366082D-01
23  2.2000000000000D-01 -8.0139763571753D-01  2.5786301141332D-01
24  2.3000000000000D-01 -8.3036216457175D-01  2.5408381360202D-01
25  2.4000000000000D-01 -8.5853989462045D-01  2.4908918030904D-01
26  2.5000000000000D-01 -8.8593270890413D-01  2.4297397306649D-01
27  2.6000000000000D-01 -9.1254467862715D-01  2.3584201736107D-01
28  2.7000000000000D-01 -9.3838176094935D-01  2.2780485171012D-01
29  2.8000000000000D-01 -9.6345147463986D-01  2.1898038045728D-01
30  2.9000000000000D-01 -9.8776255877900D-01  2.0949145073928D-01
31  3.0000000000000D-01 -1.0113246180125D+00  1.9946436720760D-01
32  3.1000000000000D-01 -1.0341477580947D+00  1.8902735903010D-01
33  3.2000000000000D-01 -1.0562422158635D+00  1.7830901537666D-01
34  3.3000000000000D-01 -1.0776179910072D+00  1.6743671921649D-01
35  3.4000000000000D-01 -1.0982844709433D+00  1.5653504173911D-01
36  3.5000000000000D-01 -1.1182500774284D+00  1.4572421665761D-01
37  3.6000000000000D-01 -1.1375219071833D+00  1.3511857644869D-01
38  3.7000000000000D-01 -1.1561054098307D+00  1.2482513295197D-01
39  3.8000000000000D-01 -1.1740040561360D+00  1.1494210076441D-01
40  3.9000000000000D-01 -1.1912190570615D+00  1.0555762097845D-01
41  4.0000000000000D-01 -1.2077490958128D+00  9.6748522686965D-02
42  4.1000000000000D-01 -1.2235900920399D+00  8.8579203127328D-02
43  4.2000000000000D-01 -1.2387350002888D+00  8.1100634858807D-02
44  4.3000000000000D-01 -1.2531736450578D+00  7.4349509523975D-02
45  4.4000000000000D-01 -1.2668925949202D+00  6.8347528382295D-02
46  4.5000000000000D-01 -1.2798750778971D+00  6.3100848758273D-02
47  4.6000000000000D-01 -1.2921009399718D+00  5.8599694511598D-02
48  4.7000000000000D-01 -1.3035466482973D+00  5.4818137440452D-02
49  4.8000000000000D-01 -1.3141853401807D+00  5.1714054898745D-02
50  4.9000000000000D-01 -1.3239869210317D+00  4.9229284342705D-02
51  5.0000000000000D-01 -1.3329181946619D+00  4.7289879270581D-02
52  5.1000000000000D-01 -1.3409430577138D+00  4.5806636395625D-02
53  5.2000000000000D-01 -1.3480227327573D+00  4.4675789711498D-02
54  5.3000000000000D-01 -1.3541160348753D+00  4.3779791901783D-02
55  5.4000000000000D-01 -1.3591796981633D+00  4.2988357354464D-02
56  5.5000000000000D-01 -1.3631687136329D+00  4.2159603903339D-02
57  5.6000000000000D-01 -1.3660367572209D+00  4.1141404527429D-02
58  5.7000000000000D-01 -1.3677365550077D+00  3.9772732801564D-02
59  5.8000000000000D-01 -1.3682204307234D+00  3.7885434828401D-02
60  5.9000000000000D-01 -1.3674406694772D+00  3.5305619249803D-02
61  6.0000000000000D-01 -1.3653501596440D+00  3.1855810354068D-02
62  6.1000000000000D-01 -1.3619027914791D+00  2.7356457562800D-02
63  6.2000000000000D-01 -1.3570540588950D+00  2.1628051802141D-02
64  6.3000000000000D-01 -1.3507616373017D+00  1.4493209790309D-02
65  6.4000000000000D-01 -1.3429857968743D+00  5.7782379264699D-03
66  6.5000000000000D-01 -1.3336901041195D+00 -4.6843552728500D-03
67  6.6000000000000D-01 -1.3228419078927D+00 -1.7054031173501D-02
68  6.7000000000000D-01 -1.3104127975066D+00 -3.1480490332188D-02
69  6.8000000000000D-01 -1.2963791134399D+00 -4.8101761121179D-02
70  6.9000000000000D-01 -1.2807226153740D+00 -6.7041723054418D-02
71  7.0000000000000D-01 -1.2634307288984D+00 -8.8409083692952D-02
72  7.1000000000000D-01 -1.2444970322969D+00 -1.1229552273397D-01
73  7.2000000000000D-01 -1.2239216062837D+00 -1.3877430924302D-01
74  7.3000000000000D-01 -1.2017114503411D+00 -1.6789867181223D-01
75  7.4000000000000D-01 -1.1778807988615D+00 -1.9970051377609D-01
76  7.5000000000000D-01 -1.1524512646489D+00 -2.3418974879913D-01
77  7.6000000000000D-01 -1.1254520746063D+00 -2.7135329755784D-01
78  7.7000000000000D-01 -1.0969202057897D+00 -3.1115443618809D-01
79  7.8000000000000D-01 -1.0669004623413D+00 -3.5353235202745D-01
80  7.9000000000000D-01 -1.0354454913869D+00 -3.9840191415195D-01
81  8.0000000000000D-01 -1.0026157365348D+00 -4.4565366415589D-01
82  8.1000000000000D-01 -9.6847932817324D-01 -4.9515403053448D-01
83  8.2000000000000D-01 -9.3311191033125D-01 -5.4674576792420D-01
84  8.3000000000000D-01 -8.9659640443052D-01 -6.0024862035871D-01
85  8.4000000000000D-01 -8.5902271081125D-01 -6.5546020562321D-01
86  8.5000000000000D-01 -8.2048734946399D-01 -7.1215711575134D-01
87  8.6000000000000D-01 -7.8109304193515D-01 -7.7009622671138D-01
88  8.7000000000000D-01 -7.4094823689964D-01 -8.2901620837580D-01
89  8.8000000000000D-01 -7.0016658240856D-01 -8.8863922395903D-01
90  8.9000000000000D-01 -6.5886634832582D-01 -9.4867280623817D-01
91  9.0000000000000D-01 -6.1716980296504D-01 -1.0088118960374D+00
92  9.1000000000000D-01 -5.7520254842799D-01 -1.0687410266596D+00
93  9.2000000000000D-01 -5.3309281962711D-01 -1.1281366361926D+00
94  9.3000000000000D-01 -4.9097075244217D-01 -1.1866694879224D+00
95  9.4000000000000D-01 -4.4896762690769D-01 -1.2440071774779D+00
96  9.5000000000000D-01 -4.0721509173900D-01 -1.2998167038683D+00
97  9.6000000000000D-01 -3.6584437686307D-01 -1.3537670803215D+00
98  9.7000000000000D-01 -3.2498550089782D-01 -1.4055319598804D+00
99  9.8000000000000D-01 -2.8476663944157D-01 -1.4547917556444D+00
100  9.9000000000000D-01 -2.4531305149183D-01 -1.5012371203952D+00
101  1.0000000000000D+00 -2.0674624842578D-01 -1.5445716896834D+00
102  1.0100000000000D+00 -1.6918351398333D-01 -1.5845136943116D+00
103  1.0200000000000D+00 -1.3273706775295D-01 -1.6207986657585D+00
104  1.0300000000000D+00 -9.7513377485660D-02 -1.6531816602992D+00
105  1.0400000000000D+00 -6.3612843836518D-02 -1.6814382873818D+00
106  1.0500000000000D+00 -3.1128548094755D-02 -1.7053686776539D+00
107  1.0600000000000D+00 -1.4549705051645D-04 -1.7247998466708D+00
108  1.0700000000000D+00  2.9259121862561D-02 -1.7395848409174D+00
109  1.0800000000000D+00  5.7016672078612D-02 -1.7496049720237D+00
110  1.0900000000000D+00  8.3066766085941D-02 -1.7547688037221D+00
111  1.1000000000000D+00  1.0735945513585D-01 -1.7550188689297D+00
112  1.1100000000000D+00  1.2985441476668D-01 -1.7503289173633D+00
113  1.1200000000000D+00  1.5052074031981D-01 -1.7407031031819D+00
114  1.1300000000000D+00  1.6933671493700D-01 -1.7261751302670D+00
115  1.1400000000000D+00  1.8629140343646D-01 -1.7068128677768D+00
116  1.1500000000000D+00  2.0138435237199D-01 -1.6827169820101D+00
117  1.1600000000000D+00  2.1462427613566D-01 -1.6540166885352D+00
118  1.1700000000000D+00  2.2602857633101D-01 -1.6208682208631D+00
119  1.1800000000000D+00  2.3562592677032D-01 -1.5834616848934D+00
120  1.1900000000000D+00  2.4345358653267D-01 -1.5420126745817D+00
121  1.2000000000000D+00  2.4955681632278D-01 -1.4967604108517D+00
122  1.2100000000000D+00  2.5398944611001D-01 -1.4479688908838D+00
123  1.2200000000000D+00  2.5681406684176D-01 -1.3959258416367D+00
124  1.2300000000000D+00  2.5809956360069D-01 -1.3409360648622D+00
125  1.2400000000000D+00  2.5792132546075D-01 -1.2833221192629D+00
126  1.2500000000000D+00  2.5636178945284D-01 -1.2234222070818D+00
127  1.2600000000000D+00  2.5350783242463D-01 -1.1615847213216D+00
128  1.2700000000000D+00  2.4945128204280D-01 -1.0981701915191D+00
129  1.2800000000000D+00  2.4428782685951D-01 -1.0335421247908D+00
130  1.2900000000000D+00  2.3811590444457D-01 -9.6806819050052D-01
131  1.3000000000000D+00  2.3103731019018D-01 -9.0212181958282D-01
132  1.3100000000000D+00  2.2315386091909D-01 -8.3606536968058D-01
133  1.3200000000000D+00  2.1456896661163D-01 -7.7026152884796D-01
134  1.3300000000000D+00  2.0538683581894D-01 -7.0506818947335D-01
135  1.3400000000000D+00  1.9570844610637D-01 -6.4082143720643D-01
136  1.3500000000000D+00  1.8563600002190D-01 -5.7785679620177D-01
137  1.3600000000000D+00  1.7526785271234D-01 -5.1648639794552D-01
138  1.3700000000000D+00  1.6469809635318D-01 -4.5699909057235D-01
139  1.3800000000000D+00  1.5402219512789D-01 -3.9968384631419D-01
140  1.3900000000000D+00  1.4332444932776D-01 -3.4477826415192D-01
141  1.4000000000000D+00  1.3268928825303D-01 -2.9251607169989D-01
142  1.4100000000000D+00  1.2219501165598D-01 -2.4310114637926D-01
143  1.4200000000000D+00  1.1191054446239D-01 -1.9669609208407D-01
144  1.4300000000000D+00  1.0190638091845D-01 -1.5346484843944D-01
145  1.4400000000000D+00  9.2236674352230D-02 -1.1350385861926D-01
146  1.4500000000000D+00  8.2956463289665D-02 -7.6908991031783D-02
147  1.4600000000000D+00  7.4110217197916D-02 -4.3731617785513D-02
148  1.4700000000000D+00  6.5734402712306D-02 -1.3989754699865D-02
149  1.4800000000000D+00  5.7863202975507D-02  1.2311632270702D-02
150  1.4900000000000D+00  5.0515090261443D-02  3.5227935191436D-02
151  1.5000000000000D+00  4.3711426444145D-02  5.4808612692407D-02
152  1.5100000000000D+00  3.7456190961527D-02  7.1167874904300D-02
153  1.5200000000000D+00  3.1754584330531D-02  8.4418871169260D-02
154  1.5300000000000D+00  2.6600523870296D-02  9.4715517381187D-02
155  1.5400000000000D+00  2.1984646828274D-02  1.0222335578600D-01
156  1.5500000000000D+00  1.7892265187898D-02  1.0712767235722D-01
157  1.5600000000000D+00  1.4302617404896D-02  1.0963105689798D-01
158  1.5700000000000D+00  1.1193198854601D-02  1.0994620395447D-01
159  1.5800000000000D+00  8.5348929784742D-03  1.0829961333090D-01
160  1.5900000000000D+00  6.2985105664269D-03  1.0492572753375D-01
161  1.6000000000000D+00  4.4497665608825D-03  1.0006184126845D-01
162  1.6100000000000D+00  2.9542022697549D-03  9.3956527881208D-02
163  1.6200000000000D+00  1.7753873317679D-03  8.6846532008392D-02
164  1.6300000000000D+00  8.7572976570232D-04  7.8983457153420D-02
165  1.6400000000000D+00  2.1900527253806D-04  7.0594814783135D-02
166  1.6500000000000D+00 -2.3294335277159D-04  6.1924035443700D-02
167  1.6600000000000D+00 -5.1406583976804D-04  5.3180263453095D-02
168  1.6700000000000D+00 -6.6067719628192D-04  4.4588917149803D-02
169  1.6800000000000D+00 -7.0238935241814D-04  3.6331672338800D-02
170  1.6900000000000D+00 -6.7165265064748D-04  2.8607796633051D-02
171  1.7000000000000D+00 -5.9177417831675D-04  2.1562817225690D-02
172  1.7100000000000D+00 -4.8976236577760D-04  1.5363619147499D-02
173  1.7200000000000D+00 -3.8087280015271D-04  1.0111842272476D-02
174  1.7300000000000D+00 -2.8554413793611D-04  5.9376461296803D-03
175  1.7400000000000D+00 -2.1125145906092D-04  2.9178373660277D-03
176  1.7500000000000D+00 -1.7902507466398D-04  1.2641672763471D-03
177  1.7600000000000D+00 -1.4968543408378D-04  4.4940622481662D-04
178  1.7700000000000D+00 -7.4787680092074D-05  6.3365662451094D-05
179  1.7800000000000D+00 -5.4148768440688D-06 -3.2511680433585D-06
180  1.7900000000000D+00  1.0093991521884D-05 -3.0749917325341D-05
181  1.8000000000000D+00  2.8452162117056D-06 -8.6675487187591D-06
182  1.8100000000000D+00  0.0000000000000D+00  0.0000000000000D+00
183  1.8200000000000D+00  0.0000000000000D+00  0.0000000000000D+00
184  1.8300000000000D+00  0.0000000000000D+00  0.0000000000000D+00
185  1.8400000000000D+00  0.0000000000000D+00  0.0000000000000D+00
186  1.8500000000000D+00  0.0000000000000D+00  0.0000000000000D+00
187  1.8600000000000D+00  0.0000000000000D+00  0.0000000000000D+00
188  1.8700000000000D+00  0.0000000000000D+00  0.0000000000000D+00
189  1.8800000000000D+00  0.0000000000000D+00  0.0000000000000D+00
190  1.8900000000000D+00  0.0000000000000D+00  0.0000000000000D+00
191  1.9000000000000D+00  0.0000000000000D+00  0.0000000000000D+00
192  1.9100000000000D+00  0.0000000000000D+00  0.0000000000000D+00
193  1.9200000000000D+00  0.0000000000000D+00  0.0000000000000D+00
194  1.9300000000000D+00  0.0000000000000D+00  0.0000000000000D+00
195  1.9400000000000D+00  0.0000000000000D+00  0.0000000000000D+00
196  1.9500000000000D+00  0.0000000000000D+00  0.0000000000000D+00
197  1.9600000000000D+00  0.0000000000000D+00  0.0000000000000D+00
198  1.9700000000000D+00  0.0000000000000D+00  0.0000000000000D+00
199  1.9800000000000D+00  0.0000000000000D+00  0.0000000000000D+00
200  1.9900000000000D+00  0.0000000000000D+00  0.0000000000000D+00
201  2.0000000000000D+00  0.0000000000000D+00  0.0000000000000D+00
202  2.0100000000000D+00  0.0000000000000D+00  0.0000000000000D+00
203  2.0200000000000D+00  0.0000000000000D+00  0.0000000000000D+00
204  2.0300000000000D+00  0.0000000000000D+00  0.0000000000000D+00
205  2.0400000000000D+00  0.0000000000000D+00  0.0000000000000D+00
206  2.0500000000000D+00  0.0000000000000D+00  0.0000000000000D+00
207  2.0600000000000D+00  0.0000000000000D+00  0.0000000000000D+00
208  2.0700000000000D+00  0.0000000000000D+00  0.0000000000000D+00
209  2.0800000000000D+00  0.0000000000000D+00  0.0000000000000D+00
210  2.0900000000000D+00  0.0000000000000D+00  0.0000000000000D+00
211  2.1000000000000D+00  0.0000000000000D+00  0.0000000000000D+00
212  2.1100000000000D+00  0.0000000000000D+00  0.0000000000000D+00
213  2.1200000000000D+00  0.0000000000000D+00  0.0000000000000D+00
214  2.1300000000000D+00  0.0000000000000D+00  0.0000000000000D+00
215  2.1400000000000D+00  0.0000000000000D+00  0.0000000000000D+00
216  2.1500000000000D+00  0.0000000000000D+00  0.0000000000000D+00
217  2.1600000000000D+00  0.0000000000000D+00  0.0000000000000D+00
218  2.1700000000000D+00  0.0000000000000D+00  0.0000000000000D+00
219  2.1800000000000D+00  0.0000000000000D+00  0.0000000000000D+00
220  2.1900000000000D+00  0.0000000000000D+00  0.0000000000000D+00
221  2.2000000000000D+00  0.0000000000000D+00  0.0000000000000D+00
222  2.2100000000000D+00  0.0000000000000D+00  0.0000000000000D+00
223  2.2200000000000D+00  0.0000000000000D+00  0.0000000000000D+00
224  2.2300000000000D+00  0.0000000000000D+00  0.0000000000000D+00
225  2.2400000000000D+00  0.0000000000000D+00  0.0000000000000D+00
226  2.2500000000000D+00  0.0000000000000D+00  0.0000000000000D+00
227  2.2600000000000D+00  0.0000000000000D+00  0.0000000000000D+00
228  2.2700000000000D+00  0.0000000000000D+00  0.0000000000000D+00
229  2.2800000000000D+00  0.0000000000000D+00  0.0000000000000D+00
230  2.2900000000000D+00  0.0000000000000D+00  0.0000000000000D+00
231  2.3000000000000D+00  0.0000000000000D+00  0.0000000000000D+00
232  2.3100000000000D+00  0.0000000000000D+00  0.0000000000000D+00
233  2.3200000000000D+00  0.0000000000000D+00  0.0000000000000D+00
234  2.3300000000000D+00  0.0000000000000D+00  0.0000000000000D+00
235  2.3400000000000D+00  0.0000000000000D+00  0.0000000000000D+00
236  2.3500000000000D+00  0.0000000000000D+00  0.0000000000000D+00
237  2.3600000000000D+00  0.0000000000000D+00  0.0000000000000D+00
238  2.3700000000000D+00  0.0000000000000D+00  0.0000000000000D+00
239  2.3800000000000D+00  0.0000000000000D+00  0.0000000000000D+00
240  2.3900000000000D+00  0.0000000000000D+00  0.0000000000000D+00
241  2.4000000000000D+00  0.0000000000000D+00  0.0000000000000D+00
242  2.4100000000000D+00  0.0000000000000D+00  0.0000000000000D+00
243  2.4200000000000D+00  0.0000000000000D+00  0.0000000000000D+00
244  2.4300000000000D+00  0.0000000000000D+00  0.0000000000000D+00
245  2.4400000000000D+00  0.0000000000000D+00  0.0000000000000D+00
246  2.4500000000000D+00  0.0000000000000D+00  0.0000000000000D+00
247  2.4600000000000D+00  0.0000000000000D+00  0.0000000000000D+00
248  2.4700000000000D+00  0.0000000000000D+00  0.0000000000000D+00
249  2.4800000000000D+00  0.0000000000000D+00  0.0000000000000D+00
250  2.4900000000000D+00  0.0000000000000D+00  0.0000000000000D+00
251  2.5000000000000D+00  0.0000000000000D+00  0.0000000000000D+00
252  2.5100000000000D+00  0.0000000000000D+00  0.0000000000000D+00
253  2.5200000000000D+00  0.0000000000000D+00  0.0000000000000D+00
254  2.5300000000000D+00  0.0000000000000D+00  0.0000000000000D+00
255  2.5400000000000D+00  0.0000000000000D+00  0.0000000000000D+00
256  2.5500000000000D+00  0.0000000000000D+00  0.0000000000000D+00
257  2.5600000000000D+00  0.0000000000000D+00  0.0000000000000D+00
258  2.5700000000000D+00  0.0000000000000D+00  0.0000000000000D+00
259  2.5800000000000D+00  0.0000000000000D+00  0.0000000000000D+00
260  2.5900000000000D+00  0.0000000000000D+00  0.0000000000000D+00
261  2.6000000000000D+00  0.0000000000000D+00  0.0000000000000D+00
262  2.6100000000000D+00  0.0000000000000D+00  0.0000000000000D+00
263  2.6200000000000D+00  0.0000000000000D+00  0.0000000000000D+00
264  2.6300000000000D+00  0.0000000000000D+00  0.0000000000000D+00
265  2.6400000000000D+00  0.0000000000000D+00  0.0000000000000D+00
266  2.6500000000000D+00  0.0000000000000D+00  0.0000000000000D+00
267  2.6600000000000D+00  0.0000000000000D+00  0.0000000000000D+00
268  2.6700000000000D+00  0.0000000000000D+00  0.0000000000000D+00
269  2.6800000000000D+00  0.0000000000000D+00  0.0000000000000D+00
270  2.6900000000000D+00  0.0000000000000D+00  0.0000000000000D+00
271  2.7000000000000D+00  0.0000000000000D+00  0.0000000000000D+00
272  2.7100000000000D+00  0.0000000000000D+00  0.0000000000000D+00
273  2.7200000000000D+00  0.0000000000000D+00  0.0000000000000D+00
274  2.7300000000000D+00  0.0000000000000D+00  0.0000000000000D+00
275  2.7400000000000D+00  0.0000000000000D+00  0.0000000000000D+00
276  2.7500000000000D+00  0.0000000000000D+00  0.0000000000000D+00
277  2.7600000000000D+00  0.0000000000000D+00  0.0000000000000D+00
278  2.7700000000000D+00  0.0000000000000D+00  0.0000000000000D+00
279  2.7800000000000D+00  0.0000000000000D+00  0.0000000000000D+00
280  2.7900000000000D+00  0.0000000000000D+00  0.0000000000000D+00
281  2.8000000000000D+00  0.0000000000000D+00  0.0000000000000D+00
282  2.8100000000000D+00  0.0000000000000D+00  0.0000000000000D+00
283  2.8200000000000D+00  0.0000000000000D+00  0.0000000000000D+00
284  2.8300000000000D+00  0.0000000000000D+00  0.0000000000000D+00
285  2.8400000000000D+00  0.0000000000000D+00  0.0000000000000D+00
286  2.8500000000000D+00  0.0000000000000D+00  0.0000000000000D+00
287  2.8600000000000D+00  0.0000000000000D+00  0.0000000000000D+00
288  2.8700000000000D+00  0.0000000000000D+00  0.0000000000000D+00
289  2.8800000000000D+00  0.0000000000000D+00  0.0000000000000D+00
290  2.8900000000000D+00  0.0000000000000D+00  0.0000000000000D+00
291  2.9000000000000D+00  0.0000000000000D+00  0.0000000000000D+00
292  2.9100000000000D+00  0.0000000000000D+00  0.0000000000000D+00
293  2.9200000000000D+00  0.0000000000000D+00  0.0000000000000D+00
294  2.9300000000000D+00  0.0000000000000D+00  0.0000000000000D+00
295  2.9400000000000D+00  0.0000000000000D+00  0.0000000000000D+00
296  2.9500000000000D+00  0.0000000000000D+00  0.0000000000000D+00
297  2.9600000000000D+00  0.0000000000000D+00  0.0000000000000D+00
298  2.9700000000000D+00  0.0000000000000D+00  0.0000000000000D+00
299  2.9800000000000D+00  0.0000000000000D+00  0.0000000000000D+00
300  2.9900000000000D+00  0.0000000000000D+00  0.0000000000000D+00
301  3.0000000000000D+00  0.0000000000000D+00  0.0000000000000D+00
302  3.0100000000000D+00  0.0000000000000D+00  0.0000000000000D+00
303  3.0200000000000D+00  0.0000000000000D+00  0.0000000000000D+00
304  3.0300000000000D+00  0.0000000000000D+00  0.0000000000000D+00
305  3.0400000000000D+00  0.0000000000000D+00  0.0000000000000D+00
306  3.0500000000000D+00  0.0000000000000D+00  0.0000000000000D+00
307  3.0600000000000D+00  0.0000000000000D+00  0.0000000000000D+00
308  3.0700000000000D+00  0.0000000000000D+00  0.0000000000000D+00
309  3.0800000000000D+00  0.0000000000000D+00  0.0000000000000D+00
310  3.0900000000000D+00  0.0000000000000D+00  0.0000000000000D+00
311  3.1000000000000D+00  0.0000000000000D+00  0.0000000000000D+00
312  3.1100000000000D+00  0.0000000000000D+00  0.0000000000000D+00
313  3.1200000000000D+00  0.0000000000000D+00  0.0000000000000D+00
314  3.1300000000000D+00  0.0000000000000D+00  0.0000000000000D+00
315  3.1400000000000D+00  0.0000000000000D+00  0.0000000000000D+00
316  3.1500000000000D+00  0.0000000000000D+00  0.0000000000000D+00
317  3.1600000000000D+00  0.0000000000000D+00  0.0000000000000D+00
318  3.1700000000000D+00  0.0000000000000D+00  0.0000000000000D+00
319  3.1800000000000D+00  0.0000000000000D+00  0.0000000000000D+00
320  3.1900000000000D+00  0.0000000000000D+00  0.0000000000000D+00
321  3.2000000000000D+00  0.0000000000000D+00  0.0000000000000D+00
322  3.2100000000000D+00  0.0000000000000D+00  0.0000000000000D+00
323  3.2200000000000D+00  0.0000000000000D+00  0.0000000000000D+00
324  3.2300000000000D+00  0.0000000000000D+00  0.0000000000000D+00
325  3.2400000000000D+00  0.0000000000000D+00  0.0000000000000D+00
326  3.2500000000000D+00  0.0000000000000D+00  0.0000000000000D+00
327  3.2600000000000D+00  0.0000000000000D+00  0.0000000000000D+00
328  3.2700000000000D+00  0.0000000000000D+00  0.0000000000000D+00
329  3.2800000000000D+00  0.0000000000000D+00  0.0000000000000D+00
330  3.2900000000000D+00  0.0000000000000D+00  0.0000000000000D+00
331  3.3000000000000D+00  0.0000000000000D+00  0.0000000000000D+00
332  3.3100000000000D+00  0.0000000000000D+00  0.0000000000000D+00
333  3.3200000000000D+00  0.0000000000000D+00  0.0000000000000D+00
334  3.3300000000000D+00  0.0000000000000D+00  0.0000000000000D+00
335  3.3400000000000D+00  0.0000000000000D+00  0.0000000000000D+00
336  3.3500000000000D+00  0.0000000000000D+00  0.0000000000000D+00
337  3.3600000000000D+00  0.0000000000000D+00  0.0000000000000D+00
338  3.3700000000000D+00  0.0000000000000D+00  0.0000000000000D+00
339  3.3800000000000D+00  0.0000000000000D+00  0.0000000000000D+00
340  3.3900000000000D+00  0.0000000000000D+00  0.0000000000000D+00
341  3.4000000000000D+00  0.0000000000000D+00  0.0000000000000D+00
342  3.4100000000000D+00  0.0000000000000D+00  0.0000000000000D+00
343  3.4200000000000D+00  0.0000000000000D+00  0.0000000000000D+00
344  3.4300000000000D+00  0.0000000000000D+00  0.0000000000000D+00
345  3.4400000000000D+00  0.0000000000000D+00  0.0000000000000D+00
346  3.4500000000000D+00  0.0000000000000D+00  0.0000000000000D+00
347  3.4600000000000D+00  0.0000000000000D+00  0.0000000000000D+00
348  3.4700000000000D+00  0.0000000000000D+00  0.0000000000000D+00
349  3.4800000000000D+00  0.0000000000000D+00  0.0000000000000D+00
350  3.4900000000000D+00  0.0000000000000D+00  0.0000000000000D+00
351  3.5000000000000D+00  0.0000000000000D+00  0.0000000000000D+00
352  3.5100000000000D+00  0.0000000000000D+00  0.0000000000000D+00
353  3.5200000000000D+00  0.0000000000000D+00  0.0000000000000D+00
354  3.5300000000000D+00  0.0000000000000D+00  0.0000000000000D+00
355  3.5400000000000D+00  0.0000000000000D+00  0.0000000000000D+00
356  3.5500000000000D+00  0.0000000000000D+00  0.0000000000000D+00
357  3.5600000000000D+00  0.0000000000000D+00  0.0000000000000D+00
358  3.5700000000000D+00  0.0000000000000D+00  0.0000000000000D+00
359  3.5800000000000D+00  0.0000000000000D+00  0.0000000000000D+00
360  3.5900000000000D+00  0.0000000000000D+00  0.0000000000000D+00
361  3.6000000000000D+00  0.0000000000000D+00  0.0000000000000D+00
362  3.6100000000000D+00  0.0000000000000D+00  0.0000000000000D+00
363  3.6200000000000D+00  0.0000000000000D+00  0.0000000000000D+00
364  3.6300000000000D+00  0.0000000000000D+00  0.0000000000000D+00
365  3.6400000000000D+00  0.0000000000000D+00  0.0000000000000D+00
366  3.6500000000000D+00  0.0000000000000D+00  0.0000000000000D+00
367  3.6600000000000D+00  0.0000000000000D+00  0.0000000000000D+00
368  3.6700000000000D+00  0.0000000000000D+00  0.0000000000000D+00
369  3.6800000000000D+00  0.0000000000000D+00  0.0000000000000D+00
370  3.6900000000000D+00  0.0000000000000D+00  0.0000000000000D+00
371  3.7000000000000D+00  0.0000000000000D+00  0.0000000000000D+00
372  3.7100000000000D+00  0.0000000000000D+00  0.0000000000000D+00
373  3.7200000000000D+00  0.0000000000000D+00  0.0000000000000D+00
374  3.7300000000000D+00  0.0000000000000D+00  0.0000000000000D+00
375  3.7400000000000D+00  0.0000000000000D+00  0.0000000000000D+00
376  3.7500000000000D+00  0.0000000000000D+00  0.0000000000000D+00
377  3.7600000000000D+00  0.0000000000000D+00  0.0000000000000D+00
378  3.7700000000000D+00  0.0000000000000D+00  0.0000000000000D+00
379  3.7800000000000D+00  0.0000000000000D+00  0.0000000000000D+00
380  3.7900000000000D+00  0.0000000000000D+00  0.0000000000000D+00
381  3.8000000000000D+00  0.0000000000000D+00  0.0000000000000D+00
382  3.8100000000000D+00  0.0000000000000D+00  0.0000000000000D+00
383  3.8200000000000D+00  0.0000000000000D+00  0.0000000000000D+00
384  3.8300000000000D+00  0.0000000000000D+00  0.0000000000000D+00
385  3.8400000000000D+00  0.0000000000000D+00  0.0000000000000D+00
386  3.8500000000000D+00  0.0000000000000D+00  0.0000000000000D+00
387  3.8600000000000D+00  0.0000000000000D+00  0.0000000000000D+00
388  3.8700000000000D+00  0.0000000000000D+00  0.0000000000000D+00
389  3.8800000000000D+00  0.0000000000000D+00  0.0000000000000D+00
390  3.8900000000000D+00  0.0000000000000D+00  0.0000000000000D+00
391  3.9000000000000D+00  0.0000000000000D+00  0.0000000000000D+00
392  3.9100000000000D+00  0.0000000000000D+00  0.0000000000000D+00
393  3.9200000000000D+00  0.0000000000000D+00  0.0000000000000D+00
394  3.9300000000000D+00  0.0000000000000D+00  0.0000000000000D+00
395  3.9400000000000D+00  0.0000000000000D+00  0.0000000000000D+00
396  3.9500000000000D+00  0.0000000000000D+00  0.0000000000000D+00
397  3.9600000000000D+00  0.0000000000000D+00  0.0000000000000D+00
398  3.9700000000000D+00  0.0000000000000D+00  0.0000000000000D+00
399  3.9800000000000D+00  0.0000000000000D+00  0.0000000000000D+00
400  3.9900000000000D+00  0.0000000000000D+00  0.0000000000000D+00
401  4.0000000000000D+00  0.0000000000000D+00  0.0000000000000D+00
402  4.0100000000000D+00  0.0000000000000D+00  0.0000000000000D+00
403  4.0200000000000D+00  0.0000000000000D+00  0.0000000000000D+00
404  4.0300000000000D+00  0.0000000000000D+00  0.0000000000000D+00
405  4.0400000000000D+00  0.0000000000000D+00  0.0000000000000D+00
406  4.0500000000000D+00  0.0000000000000D+00  0.0000000000000D+00
407  4.0600000000000D+00  0.0000000000000D+00  0.0000000000000D+00
408  4.0700000000000D+00  0.0000000000000D+00  0.0000000000000D+00
409  4.0800000000000D+00  0.0000000000000D+00  0.0000000000000D+00
410  4.0900000000000D+00  0.0000000000000D+00  0.0000000000000D+00
411  4.1000000000000D+00  0.0000000000000D+00  0.0000000000000D+00
412  4.1100000000000D+00  0.0000000000000D+00  0.0000000000000D+00
413  4.1200000000000D+00  0.0000000000000D+00  0.0000000000000D+00
414  4.1300000000000D+00  0.0000000000000D+00  0.0000000000000D+00
415  4.1400000000000D+00  0.0000000000000D+00  0.0000000000000D+00
416  4.1500000000000D+00  0.0000000000000D+00  0.0000000000000D+00
417  4.1600000000000D+00  0.0000000000000D+00  0.0000000000000D+00
418  4.1700000000000D+00  0.0000000000000D+00  0.0000000000000D+00
419  4.1800000000000D+00  0.0000000000000D+00  0.0000000000000D+00
420  4.1900000000000D+00  0.0000000000000D+00  0.0000000000000D+00
421  4.2000000000000D+00  0.0000000000000D+00  0.0000000000000D+00
422  4.2100000000000D+00  0.0000000000000D+00  0.0000000000000D+00
423  4.2200000000000D+00  0.0000000000000D+00  0.0000000000000D+00
424  4.2300000000000D+00  0.0000000000000D+00  0.0000000000000D+00
425  4.2400000000000D+00  0.0000000000000D+00  0.0000000000000D+00
426  4.2500000000000D+00  0.0000000000000D+00  0.0000000000000D+00
427  4.2600000000000D+00  0.0000000000000D+00  0.0000000000000D+00
428  4.2700000000000D+00  0.0000000000000D+00  0.0000000000000D+00
429  4.2800000000000D+00  0.0000000000000D+00  0.0000000000000D+00
430  4.2900000000000D+00  0.0000000000000D+00  0.0000000000000D+00
431  4.3000000000000D+00  0.0000000000000D+00  0.0000000000000D+00
432  4.3100000000000D+00  0.0000000000000D+00  0.0000000000000D+00
433  4.3200000000000D+00  0.0000000000000D+00  0.0000000000000D+00
434  4.3300000000000D+00  0.0000000000000D+00  0.0000000000000D+00
435  4.3400000000000D+00  0.0000000000000D+00  0.0000000000000D+00
436  4.3500000000000D+00  0.0000000000000D+00  0.0000000000000D+00
437  4.3600000000000D+00  0.0000000000000D+00  0.0000000000000D+00
438  4.3700000000000D+00  0.0000000000000D+00  0.0000000000000D+00
439  4.3800000000000D+00  0.0000000000000D+00  0.0000000000000D+00
440  4.3900000000000D+00  0.0000000000000D+00  0.0000000000000D+00
441  4.4000000000000D+00  0.0000000000000D+00  0.0000000000000D+00
442  4.4100000000000D+00  0.0000000000000D+00  0.0000000000000D+00
443  4.4200000000000D+00  0.0000000000000D+00  0.0000000000000D+00
444  4.4300000000000D+00  0.0000000000000D+00  0.0000000000000D+00