<UPF version="2.0.1">
<PP_INFO>

This pseudopotential file has been produced using the code
ONCVPSP  (Optimized Norm-Conservinng Vanderbilt PSeudopotential)
scalar-relativistic version 3.1.1 04/06/2015 by D. R. Hamann
The code is available through a link at URL www.mat-simresearch.com.
Documentation with the package provides a full discription of the
input data below.


While it is not required under the terms of the GNU GPL, it is
suggested that you cite D. R. Hamann, Phys. Rev. B 88, 085117 (2013)
in any publication using these pseudopotentials.

<PP_INPUTFILE>
# ATOM AND REFERENCE CONFIGURATION
# atsym  z   nc   nv     iexc    psfile
Au 79.00   10    4       4      upf
#
#   n    l    f        energy (Ha)
1    0    2.00
2    0    2.00
2    1    6.00
3    0    2.00
3    1    6.00
3    2   10.00
4    0    2.00
4    1    6.00
4    2   10.00
4    3   14.00
5    0    2.00
5    1    6.00
5    2   10.00
6    0    1.00
#
# PSEUDOPOTENTIAL AND OPTIMIZATION
# lmax
3
#
#   l,   rc,     ep,   ncon, nbas, qcut
0    1.46   -3.98    4    8    8.60
1    1.56   -2.20    4    8    8.40
2    1.46   -0.25    4    8    8.40
3    1.51    0.30    4    7    5.20
#
# LOCAL POTENTIAL
# lloc, lpopt,  rc(5),   dvloc0
4    3      1.40       0.00
#
# VANDERBILT-KLEINMAN-BYLANDER PROJECTORs
# l, nproj, debl
0    2    3.7707
1    2    2.5000
2    2    1.5000
3    2    1.5000
#
# MODEL CORE CHARGE
# icmod, fcfact
1    0.25
#
# LOG DERIVATIVE ANALYSIS
# epsh1, epsh2, depsh
-14.00   12.00    0.02
#
# OUTPUT GRID
# rlmax, drl
5.00    0.01
#
# TEST CONFIGURATIONS
# ncnf
0
# nvcnf
#   n    l    f
</PP_INPUTFILE>
</PP_INFO>
<!--                               -->
<!-- END OF HUMAN READABLE SECTION -->
<!--                               -->
<PP_HEADER
generated="Generated using ONCVPSP code by D. R. Hamann"
author="anonymous"
date="150807"
comment=""
element="Au"
pseudo_type="NC"
relativistic="scalar"
is_ultrasoft="F"
is_paw="F"
is_coulomb="F"
has_so="F"
has_wfc="F"
has_gipaw="F"
core_correction="T"
functional="PBE"
z_valence="   19.00"
total_psenergy="  -1.37684253267E+02"
rho_cutoff="   4.99000000000E+00"
l_max="3"
l_local="-1"
mesh_size="   500"
number_of_wfc="0"
number_of_proj="8"/>
<PP_MESH>
<PP_R type="real"  size=" 500" columns="8">
0.0000    0.0100    0.0200    0.0300    0.0400    0.0500    0.0600    0.0700
0.0800    0.0900    0.1000    0.1100    0.1200    0.1300    0.1400    0.1500
0.1600    0.1700    0.1800    0.1900    0.2000    0.2100    0.2200    0.2300
0.2400    0.2500    0.2600    0.2700    0.2800    0.2900    0.3000    0.3100
0.3200    0.3300    0.3400    0.3500    0.3600    0.3700    0.3800    0.3900
0.4000    0.4100    0.4200    0.4300    0.4400    0.4500    0.4600    0.4700
0.4800    0.4900    0.5000    0.5100    0.5200    0.5300    0.5400    0.5500
0.5600    0.5700    0.5800    0.5900    0.6000    0.6100    0.6200    0.6300
0.6400    0.6500    0.6600    0.6700    0.6800    0.6900    0.7000    0.7100
0.7200    0.7300    0.7400    0.7500    0.7600    0.7700    0.7800    0.7900
0.8000    0.8100    0.8200    0.8300    0.8400    0.8500    0.8600    0.8700
0.8800    0.8900    0.9000    0.9100    0.9200    0.9300    0.9400    0.9500
0.9600    0.9700    0.9800    0.9900    1.0000    1.0100    1.0200    1.0300
1.0400    1.0500    1.0600    1.0700    1.0800    1.0900    1.1000    1.1100
1.1200    1.1300    1.1400    1.1500    1.1600    1.1700    1.1800    1.1900
1.2000    1.2100    1.2200    1.2300    1.2400    1.2500    1.2600    1.2700
1.2800    1.2900    1.3000    1.3100    1.3200    1.3300    1.3400    1.3500
1.3600    1.3700    1.3800    1.3900    1.4000    1.4100    1.4200    1.4300
1.4400    1.4500    1.4600    1.4700    1.4800    1.4900    1.5000    1.5100
1.5200    1.5300    1.5400    1.5500    1.5600    1.5700    1.5800    1.5900
1.6000    1.6100    1.6200    1.6300    1.6400    1.6500    1.6600    1.6700
1.6800    1.6900    1.7000    1.7100    1.7200    1.7300    1.7400    1.7500
1.7600    1.7700    1.7800    1.7900    1.8000    1.8100    1.8200    1.8300
1.8400    1.8500    1.8600    1.8700    1.8800    1.8900    1.9000    1.9100
1.9200    1.9300    1.9400    1.9500    1.9600    1.9700    1.9800    1.9900
2.0000    2.0100    2.0200    2.0300    2.0400    2.0500    2.0600    2.0700
2.0800    2.0900    2.1000    2.1100    2.1200    2.1300    2.1400    2.1500
2.1600    2.1700    2.1800    2.1900    2.2000    2.2100    2.2200    2.2300
2.2400    2.2500    2.2600    2.2700    2.2800    2.2900    2.3000    2.3100
2.3200    2.3300    2.3400    2.3500    2.3600    2.3700    2.3800    2.3900
2.4000    2.4100    2.4200    2.4300    2.4400    2.4500    2.4600    2.4700
2.4800    2.4900    2.5000    2.5100    2.5200    2.5300    2.5400    2.5500
2.5600    2.5700    2.5800    2.5900    2.6000    2.6100    2.6200    2.6300
2.6400    2.6500    2.6600    2.6700    2.6800    2.6900    2.7000    2.7100
2.7200    2.7300    2.7400    2.7500    2.7600    2.7700    2.7800    2.7900
2.8000    2.8100    2.8200    2.8300    2.8400    2.8500    2.8600    2.8700
2.8800    2.8900    2.9000    2.9100    2.9200    2.9300    2.9400    2.9500
2.9600    2.9700    2.9800    2.9900    3.0000    3.0100    3.0200    3.0300
3.0400    3.0500    3.0600    3.0700    3.0800    3.0900    3.1000    3.1100
3.1200    3.1300    3.1400    3.1500    3.1600    3.1700    3.1800    3.1900
3.2000    3.2100    3.2200    3.2300    3.2400    3.2500    3.2600    3.2700
3.2800    3.2900    3.3000    3.3100    3.3200    3.3300    3.3400    3.3500
3.3600    3.3700    3.3800    3.3900    3.4000    3.4100    3.4200    3.4300
3.4400    3.4500    3.4600    3.4700    3.4800    3.4900    3.5000    3.5100
3.5200    3.5300    3.5400    3.5500    3.5600    3.5700    3.5800    3.5900
3.6000    3.6100    3.6200    3.6300    3.6400    3.6500    3.6600    3.6700
3.6800    3.6900    3.7000    3.7100    3.7200    3.7300    3.7400    3.7500
3.7600    3.7700    3.7800    3.7900    3.8000    3.8100    3.8200    3.8300
3.8400    3.8500    3.8600    3.8700    3.8800    3.8900    3.9000    3.9100
3.9200    3.9300    3.9400    3.9500    3.9600    3.9700    3.9800    3.9900
4.0000    4.0100    4.0200    4.0300    4.0400    4.0500    4.0600    4.0700
4.0800    4.0900    4.1000    4.1100    4.1200    4.1300    4.1400    4.1500
4.1600    4.1700    4.1800    4.1900    4.2000    4.2100    4.2200    4.2300
4.2400    4.2500    4.2600    4.2700    4.2800    4.2900    4.3000    4.3100
4.3200    4.3300    4.3400    4.3500    4.3600    4.3700    4.3800    4.3900
4.4000    4.4100    4.4200    4.4300    4.4400    4.4500    4.4600    4.4700
4.4800    4.4900    4.5000    4.5100    4.5200    4.5300    4.5400    4.5500
4.5600    4.5700    4.5800    4.5900    4.6000    4.6100    4.6200    4.6300
4.6400    4.6500    4.6600    4.6700    4.6800    4.6900    4.7000    4.7100
4.7200    4.7300    4.7400    4.7500    4.7600    4.7700    4.7800    4.7900
4.8000    4.8100    4.8200    4.8300    4.8400    4.8500    4.8600    4.8700
4.8800    4.8900    4.9000    4.9100    4.9200    4.9300    4.9400    4.9500
4.9600    4.9700    4.9800    4.9900
</PP_R>
<PP_RAB type="real"  size=" 500" columns="8">
0.0100    0.0100    0.0100    0.0100    0.0100    0.0100    0.0100    0.0100
0.0100    0.0100    0.0100    0.0100    0.0100    0.0100    0.0100    0.0100
0.0100    0.0100    0.0100    0.0100    0.0100    0.0100    0.0100    0.0100
0.0100    0.0100    0.0100    0.0100    0.0100    0.0100    0.0100    0.0100
0.0100    0.0100    0.0100    0.0100    0.0100    0.0100    0.0100    0.0100
0.0100    0.0100    0.0100    0.0100    0.0100    0.0100    0.0100    0.0100
0.0100    0.0100    0.0100    0.0100    0.0100    0.0100    0.0100    0.0100
0.0100    0.0100    0.0100    0.0100    0.0100    0.0100    0.0100    0.0100
0.0100    0.0100    0.0100    0.0100    0.0100    0.0100    0.0100    0.0100
0.0100    0.0100    0.0100    0.0100    0.0100    0.0100    0.0100    0.0100
0.0100    0.0100    0.0100    0.0100    0.0100    0.0100    0.0100    0.0100
0.0100    0.0100    0.0100    0.0100    0.0100    0.0100    0.0100    0.0100
0.0100    0.0100    0.0100    0.0100    0.0100    0.0100    0.0100    0.0100
0.0100    0.0100    0.0100    0.0100    0.0100    0.0100    0.0100    0.0100
0.0100    0.0100    0.0100    0.0100    0.0100    0.0100    0.0100    0.0100
0.0100    0.0100    0.0100    0.0100    0.0100    0.0100    0.0100    0.0100
0.0100    0.0100    0.0100    0.0100    0.0100    0.0100    0.0100    0.0100
0.0100    0.0100    0.0100    0.0100    0.0100    0.0100    0.0100    0.0100
0.0100    0.0100    0.0100    0.0100    0.0100    0.0100    0.0100    0.0100
0.0100    0.0100    0.0100    0.0100    0.0100    0.0100    0.0100    0.0100
0.0100    0.0100    0.0100    0.0100    0.0100    0.0100    0.0100    0.0100
0.0100    0.0100    0.0100    0.0100    0.0100    0.0100    0.0100    0.0100
0.0100    0.0100    0.0100    0.0100    0.0100    0.0100    0.0100    0.0100
0.0100    0.0100    0.0100    0.0100    0.0100    0.0100    0.0100    0.0100
0.0100    0.0100    0.0100    0.0100    0.0100    0.0100    0.0100    0.0100
0.0100    0.0100    0.0100    0.0100    0.0100    0.0100    0.0100    0.0100
0.0100    0.0100    0.0100    0.0100    0.0100    0.0100    0.0100    0.0100
0.0100    0.0100    0.0100    0.0100    0.0100    0.0100    0.0100    0.0100
0.0100    0.0100    0.0100    0.0100    0.0100    0.0100    0.0100    0.0100
0.0100    0.0100    0.0100    0.0100    0.0100    0.0100    0.0100    0.0100
0.0100    0.0100    0.0100    0.0100    0.0100    0.0100    0.0100    0.0100
0.0100    0.0100    0.0100    0.0100    0.0100    0.0100    0.0100    0.0100
0.0100    0.0100    0.0100    0.0100    0.0100    0.0100    0.0100    0.0100
0.0100    0.0100    0.0100    0.0100    0.0100    0.0100    0.0100    0.0100
0.0100    0.0100    0.0100    0.0100    0.0100    0.0100    0.0100    0.0100
0.0100    0.0100    0.0100    0.0100    0.0100    0.0100    0.0100    0.0100
0.0100    0.0100    0.0100    0.0100    0.0100    0.0100    0.0100    0.0100
0.0100    0.0100    0.0100    0.0100    0.0100    0.0100    0.0100    0.0100
0.0100    0.0100    0.0100    0.0100    0.0100    0.0100    0.0100    0.0100
0.0100    0.0100    0.0100    0.0100    0.0100    0.0100    0.0100    0.0100
0.0100    0.0100    0.0100    0.0100    0.0100    0.0100    0.0100    0.0100
0.0100    0.0100    0.0100    0.0100    0.0100    0.0100    0.0100    0.0100
0.0100    0.0100    0.0100    0.0100    0.0100    0.0100    0.0100    0.0100
0.0100    0.0100    0.0100    0.0100    0.0100    0.0100    0.0100    0.0100
0.0100    0.0100    0.0100    0.0100    0.0100    0.0100    0.0100    0.0100
0.0100    0.0100    0.0100    0.0100    0.0100    0.0100    0.0100    0.0100
0.0100    0.0100    0.0100    0.0100    0.0100    0.0100    0.0100    0.0100
0.0100    0.0100    0.0100    0.0100    0.0100    0.0100    0.0100    0.0100
0.0100    0.0100    0.0100    0.0100    0.0100    0.0100    0.0100    0.0100
0.0100    0.0100    0.0100    0.0100    0.0100    0.0100    0.0100    0.0100
0.0100    0.0100    0.0100    0.0100    0.0100    0.0100    0.0100    0.0100
0.0100    0.0100    0.0100    0.0100    0.0100    0.0100    0.0100    0.0100
0.0100    0.0100    0.0100    0.0100    0.0100    0.0100    0.0100    0.0100
0.0100    0.0100    0.0100    0.0100    0.0100    0.0100    0.0100    0.0100
0.0100    0.0100    0.0100    0.0100    0.0100    0.0100    0.0100    0.0100
0.0100    0.0100    0.0100    0.0100    0.0100    0.0100    0.0100    0.0100
0.0100    0.0100    0.0100    0.0100    0.0100    0.0100    0.0100    0.0100
0.0100    0.0100    0.0100    0.0100    0.0100    0.0100    0.0100    0.0100
0.0100    0.0100    0.0100    0.0100    0.0100    0.0100    0.0100    0.0100
0.0100    0.0100    0.0100    0.0100    0.0100    0.0100    0.0100    0.0100
0.0100    0.0100    0.0100    0.0100    0.0100    0.0100    0.0100    0.0100
0.0100    0.0100    0.0100    0.0100    0.0100    0.0100    0.0100    0.0100
0.0100    0.0100    0.0100    0.0100
</PP_RAB>
</PP_MESH>
<PP_LOCAL type="real"  size=" 500" columns="4">
-4.6646340046E+01   -4.6646209287E+01   -4.6645816962E+01   -4.6645163009E+01
-4.6644246792E+01   -4.6643066616E+01   -4.6641619262E+01   -4.6639899495E+01
-4.6637899578E+01   -4.6635608766E+01   -4.6633012802E+01   -4.6630093437E+01
-4.6626827972E+01   -4.6623188862E+01   -4.6619143376E+01   -4.6614653332E+01
-4.6609674917E+01   -4.6604158590E+01   -4.6598049068E+01   -4.6591285401E+01
-4.6583801114E+01   -4.6575524427E+01   -4.6566378533E+01   -4.6556281933E+01
-4.6545148813E+01   -4.6532889455E+01   -4.6519410683E+01   -4.6504616323E+01
-4.6488407675E+01   -4.6470683992E+01   -4.6451342962E+01   -4.6430281174E+01
-4.6407394584E+01   -4.6382578959E+01   -4.6355730303E+01   -4.6326745267E+01
-4.6295521524E+01   -4.6261958132E+01   -4.6225955857E+01   -4.6187417480E+01
-4.6146248064E+01   -4.6102355206E+01   -4.6055649246E+01   -4.6006043465E+01
-4.5953454240E+01   -4.5897801191E+01   -4.5839007286E+01   -4.5776998935E+01
-4.5711706055E+01   -4.5643062115E+01   -4.5571004159E+01   -4.5495472811E+01
-4.5416412248E+01   -4.5333770167E+01   -4.5247497716E+01   -4.5157549407E+01
-4.5063883005E+01   -4.4966459388E+01   -4.4865242380E+01   -4.4760198552E+01
-4.4651296995E+01   -4.4538509057E+01   -4.4421808055E+01   -4.4301168946E+01
-4.4176567978E+01   -4.4047982313E+01   -4.3915389626E+01   -4.3778767700E+01
-4.3638094005E+01   -4.3493345294E+01   -4.3344497201E+01   -4.3191523871E+01
-4.3034397618E+01   -4.2873088627E+01   -4.2707564698E+01   -4.2537791045E+01
-4.2363730157E+01   -4.2185341735E+01   -4.2002582728E+01   -4.1815407518E+01
-4.1623768314E+01   -4.1427615864E+01   -4.1226900624E+01   -4.1021574538E+01
-4.0811593625E+01   -4.0596921550E+01   -4.0377534302E+01   -4.0153426028E+01
-3.9924615937E+01   -3.9691156016E+01   -3.9453139166E+01   -3.9210707265E+01
-3.8964058656E+01   -3.8713454702E+01   -3.8459225739E+01   -3.8201773521E+01
-3.7941583478E+01   -3.7679226659E+01   -3.7415265732E+01   -3.7150023629E+01
-3.6883707850E+01   -3.6616512580E+01   -3.6348635322E+01   -3.6080265918E+01
-3.5811590457E+01   -3.5542791129E+01   -3.5274046439E+01   -3.5005531334E+01
-3.4737417236E+01   -3.4469872022E+01   -3.4203059941E+01   -3.3937141496E+01
-3.3672273284E+01   -3.3408607812E+01   -3.3146293295E+01   -3.2885473427E+01
-3.2626287146E+01   -3.2368868384E+01   -3.2113345808E+01   -3.1859842555E+01
-3.1608475965E+01   -3.1359357302E+01   -3.1112591486E+01   -3.0868276814E+01
-3.0626504689E+01   -3.0387359348E+01   -3.0150917597E+01   -2.9917248542E+01
-2.9686413336E+01   -2.9458464920E+01   -2.9233447775E+01   -2.9011397674E+01
-2.8792341446E+01   -2.8576296729E+01   -2.8363271742E+01   -2.8153265043E+01
-2.7946265291E+01   -2.7742251039E+01   -2.7541190386E+01   -2.7343041143E+01
-2.7147749817E+01   -2.6955251496E+01   -2.6765474525E+01   -2.6578345122E+01
-2.6393791478E+01   -2.6211749958E+01   -2.6032169063E+01   -2.5855011464E+01
-2.5680249840E+01   -2.5507842191E+01   -2.5337733358E+01   -2.5169868809E+01
-2.5004196297E+01   -2.4840671644E+01   -2.4679251910E+01   -2.4519892180E+01
-2.4362552831E+01   -2.4207200524E+01   -2.4053810409E+01   -2.3902361601E+01
-2.3752820249E+01   -2.3605144540E+01   -2.3459298843E+01   -2.3315250347E+01
-2.3172965617E+01   -2.3032412072E+01   -2.2893558063E+01   -2.2756372709E+01
-2.2620825882E+01   -2.2486888190E+01   -2.2354530947E+01   -2.2223726157E+01
-2.2094446491E+01   -2.1966665267E+01   -2.1840356428E+01   -2.1715494529E+01
-2.1592054712E+01   -2.1470012694E+01   -2.1349344748E+01   -2.1230027686E+01
-2.1112038846E+01   -2.0995356075E+01   -2.0879957714E+01   -2.0765822585E+01
-2.0652929978E+01   -2.0541259639E+01   -2.0430791752E+01   -2.0321506933E+01
-2.0213386217E+01   -2.0106411042E+01   -2.0000563244E+01   -1.9895825043E+01
-1.9792179033E+01   -1.9689608175E+01   -1.9588095782E+01   -1.9487625514E+01
-1.9388181368E+01   -1.9289747667E+01   -1.9192309057E+01   -1.9095850492E+01
-1.9000357230E+01   -1.8905814827E+01   -1.8812209123E+01   -1.8719526243E+01
-1.8627752584E+01   -1.8536874810E+01   -1.8446879847E+01   -1.8357754873E+01
-1.8269487316E+01   -1.8182064846E+01   -1.8095475367E+01   -1.8009707017E+01
-1.7924748155E+01   -1.7840587362E+01   -1.7757213434E+01   -1.7674615374E+01
-1.7592782392E+01   -1.7511703896E+01   -1.7431369490E+01   -1.7351768968E+01
-1.7272892311E+01   -1.7194729681E+01   -1.7117271420E+01   -1.7040508040E+01
-1.6964430227E+01   -1.6889028831E+01   -1.6814294864E+01   -1.6740219498E+01
-1.6666794059E+01   -1.6594010027E+01   -1.6521859029E+01   -1.6450332836E+01
-1.6379423365E+01   -1.6309122669E+01   -1.6239422937E+01   -1.6170316494E+01
-1.6101795792E+01   -1.6033853413E+01   -1.5966482063E+01   -1.5899674570E+01
-1.5833423882E+01   -1.5767723065E+01   -1.5702565299E+01   -1.5637943877E+01
-1.5573852200E+01   -1.5510283780E+01   -1.5447232233E+01   -1.5384691278E+01
-1.5322654737E+01   -1.5261116530E+01   -1.5200070675E+01   -1.5139511285E+01
-1.5079432567E+01   -1.5019828820E+01   -1.4960694432E+01   -1.4902023880E+01
-1.4843811726E+01   -1.4786052619E+01   -1.4728741288E+01   -1.4671872546E+01
-1.4615441285E+01   -1.4559442475E+01   -1.4503871163E+01   -1.4448722473E+01
-1.4393991599E+01   -1.4339673812E+01   -1.4285764452E+01   -1.4232258928E+01
-1.4179152720E+01   -1.4126441373E+01   -1.4074120499E+01   -1.4022185775E+01
-1.3970632942E+01   -1.3919457801E+01   -1.3868656217E+01   -1.3818224115E+01
-1.3768157477E+01   -1.3718452345E+01   -1.3669104818E+01   -1.3620111049E+01
-1.3571467249E+01   -1.3523169679E+01   -1.3475214657E+01   -1.3427598551E+01
-1.3380317781E+01   -1.3333368816E+01   -1.3286748175E+01   -1.3240452426E+01
-1.3194478185E+01   -1.3148822114E+01   -1.3103480920E+01   -1.3058451359E+01
-1.3013730227E+01   -1.2969314366E+01   -1.2925200662E+01   -1.2881386041E+01
-1.2837867472E+01   -1.2794641964E+01   -1.2751706567E+01   -1.2709058369E+01
-1.2666694499E+01   -1.2624612122E+01   -1.2582808442E+01   -1.2541280700E+01
-1.2500026172E+01   -1.2459042171E+01   -1.2418326044E+01   -1.2377875174E+01
-1.2337686977E+01   -1.2297758902E+01   -1.2258088432E+01   -1.2218673082E+01
-1.2179510399E+01   -1.2140597961E+01   -1.2101933377E+01   -1.2063514286E+01
-1.2025338358E+01   -1.1987403292E+01   -1.1949706814E+01   -1.1912246682E+01
-1.1875020679E+01   -1.1838026617E+01   -1.1801262335E+01   -1.1764725698E+01
-1.1728414600E+01   -1.1692326958E+01   -1.1656460716E+01   -1.1620813841E+01
-1.1585384329E+01   -1.1550170196E+01   -1.1515169485E+01   -1.1480380262E+01
-1.1445800615E+01   -1.1411428656E+01   -1.1377262519E+01   -1.1343300362E+01
-1.1309540363E+01   -1.1275980723E+01   -1.1242619662E+01   -1.1209455425E+01
-1.1176486273E+01   -1.1143710491E+01   -1.1111126382E+01   -1.1078732270E+01
-1.1046526498E+01   -1.1014507429E+01   -1.0982673442E+01   -1.0951022939E+01
-1.0919554337E+01   -1.0888266073E+01   -1.0857156601E+01   -1.0826224393E+01
-1.0795467937E+01   -1.0764885741E+01   -1.0734476327E+01   -1.0704238236E+01
-1.0674170023E+01   -1.0644270262E+01   -1.0614537540E+01   -1.0584970461E+01
-1.0555567645E+01   -1.0526327728E+01   -1.0497249358E+01   -1.0468331202E+01
-1.0439571937E+01   -1.0410970260E+01   -1.0382524877E+01   -1.0354234511E+01
-1.0326097899E+01   -1.0298113790E+01   -1.0270280947E+01   -1.0242598149E+01
-1.0215064183E+01   -1.0187677855E+01   -1.0160437979E+01   -1.0133343383E+01
-1.0106392908E+01   -1.0079585409E+01   -1.0052919749E+01   -1.0026394806E+01
-1.0000009469E+01   -9.9737626391E+00   -9.9476532283E+00   -9.9216801602E+00
-9.8958423695E+00   -9.8701388023E+00   -9.8445684152E+00   -9.8191301759E+00
-9.7938230626E+00   -9.7686460639E+00   -9.7435981791E+00   -9.7186784175E+00
-9.6938857985E+00   -9.6692193515E+00   -9.6446781158E+00   -9.6202611405E+00
-9.5959674842E+00   -9.5717962150E+00   -9.5477464103E+00   -9.5238171569E+00
-9.5000075506E+00   -9.4763166964E+00   -9.4527437079E+00   -9.4292877077E+00
-9.4059478272E+00   -9.3827232062E+00   -9.3596129929E+00   -9.3366163441E+00
-9.3137324247E+00   -9.2909604078E+00   -9.2682994747E+00   -9.2457488145E+00
-9.2233076243E+00   -9.2009751087E+00   -9.1787504804E+00   -9.1566329594E+00
-9.1346217733E+00   -9.1127161571E+00   -9.0909153530E+00   -9.0692186107E+00
-9.0476251869E+00   -9.0261343452E+00   -9.0047453564E+00   -8.9834574982E+00
-8.9622700549E+00   -8.9411823178E+00   -8.9201935848E+00   -8.8993031601E+00
-8.8785103548E+00   -8.8578144861E+00   -8.8372148778E+00   -8.8167108598E+00
-8.7963017683E+00   -8.7759869456E+00   -8.7557657400E+00   -8.7356375059E+00
-8.7156016037E+00   -8.6956573993E+00   -8.6758042648E+00   -8.6560415778E+00
-8.6363687216E+00   -8.6167850850E+00   -8.5972900626E+00   -8.5778830543E+00
-8.5585634652E+00   -8.5393307061E+00   -8.5201841929E+00   -8.5011233468E+00
-8.4821475941E+00   -8.4632563662E+00   -8.4444490996E+00   -8.4257252359E+00
-8.4070842214E+00   -8.3885255075E+00   -8.3700485503E+00   -8.3516528108E+00
-8.3333377547E+00   -8.3151028522E+00   -8.2969475784E+00   -8.2788714127E+00
-8.2608738393E+00   -8.2429543468E+00   -8.2251124280E+00   -8.2073475804E+00
-8.1896593056E+00   -8.1720471096E+00   -8.1545105027E+00   -8.1370489992E+00
-8.1196621177E+00   -8.1023493809E+00   -8.0851103154E+00   -8.0679444522E+00
-8.0508513258E+00   -8.0338304749E+00   -8.0168814421E+00   -8.0000037739E+00
-7.9831970204E+00   -7.9664607355E+00   -7.9497944772E+00   -7.9331978066E+00
-7.9166702890E+00   -7.9002114930E+00   -7.8838209909E+00   -7.8674983585E+00
-7.8512431751E+00   -7.8350550235E+00   -7.8189334899E+00   -7.8028781640E+00
-7.7868886387E+00   -7.7709645103E+00   -7.7551053784E+00   -7.7393108459E+00
-7.7235805190E+00   -7.7079140068E+00   -7.6923109219E+00   -7.6767708798E+00
-7.6612934993E+00   -7.6458784021E+00   -7.6305252130E+00   -7.6152335597E+00
</PP_LOCAL>
<PP_NONLOCAL>
<PP_BETA.1
type="real"
size=" 500"
columns="4"
index="1"
angular_momentum="0"
cutoff_radius_index=" 160"
cutoff_radius="    1.5900000000E+00" >
-5.1123838496E-10    8.0919024121E-02    1.6161749627E-01    2.4187589941E-01
3.2147677920E-01    4.0020575569E-01    4.7785251008E-01    5.5421173797E-01
6.2908406117E-01    7.0227689061E-01    7.7360523360E-01    8.4289243954E-01
9.0997087875E-01    9.7468255019E-01    1.0368796145E+00    1.0964248498E+00
1.1531920290E+00    1.2070662164E+00    1.2579439865E+00    1.3057335625E+00
1.3503548797E+00    1.3917395739E+00    1.4298308995E+00    1.4645835817E+00
1.4959636055E+00    1.5239479489E+00    1.5485242653E+00    1.5696905195E+00
1.5874545861E+00    1.6018338148E+00    1.6128545696E+00    1.6205517488E+00
1.6249682919E+00    1.6261546788E+00    1.6241684287E+00    1.6190736036E+00
1.6109403202E+00    1.5998442777E+00    1.5858663029E+00    1.5690919176E+00
1.5496109315E+00    1.5275170609E+00    1.5029075780E+00    1.4758829891E+00
1.4465467424E+00    1.4150049675E+00    1.3813662415E+00    1.3457413846E+00
1.3082432795E+00    1.2689867141E+00    1.2280882438E+00    1.1856660706E+00
1.1418399335E+00    1.0967310090E+00    1.0504618153E+00    1.0031561168E+00
9.5493882494E-01    9.0593589140E-01    8.5627418846E-01    8.0608137441E-01
7.5548573946E-01    7.0461602952E-01    6.5360124506E-01    6.0257041301E-01
5.5165232992E-01    5.0097527552E-01    4.5066669602E-01    4.0085285760E-01
3.5165847060E-01    3.0320628623E-01    2.5561666758E-01    2.0900713793E-01
1.6349190949E-01    1.1918139655E-01    7.6181717435E-02    3.4594190033E-02
-5.4851737619E-03   -4.3966169197E-02   -8.0764889548E-02   -1.1580420076E-01
-1.4901419379E-01   -1.8033260853E-01   -2.0970522346E-01   -2.3708620506E-01
-2.6243841165E-01   -2.8573364637E-01   -3.0695285468E-01   -3.2608626211E-01
-3.4313344880E-01   -3.5810335777E-01   -3.7101423486E-01   -3.8189349873E-01
-3.9077754063E-01   -3.9771145378E-01   -4.0274869375E-01   -4.0595067173E-01
-4.0738628341E-01   -4.0713137721E-01   -4.0526816639E-01   -4.0188459009E-01
-3.9707362948E-01   -3.9093258540E-01   -3.8356232486E-01   -3.7506650384E-01
-3.6555077468E-01   -3.5512198618E-01   -3.4388738508E-01   -3.3195382746E-01
-3.1942700861E-01   -3.0641071982E-01   -2.9300614020E-01   -2.7931117119E-01
-2.6541982119E-01   -2.5142164680E-01   -2.3740125655E-01   -2.2343788254E-01
-2.0960502400E-01   -1.9597016619E-01   -1.8259457698E-01   -1.6953318240E-01
-1.5683452137E-01   -1.4454077856E-01   -1.3268789361E-01   -1.2130574362E-01
-1.1041839447E-01   -1.0004441621E-01   -9.0197256284E-02   -8.0885663486E-02
-7.2114155018E-02   -6.3883518250E-02   -5.6191337855E-02   -4.9032539073E-02
-4.2399937068E-02   -3.6284782299E-02   -3.0677291832E-02   -2.5567156201E-02
-2.0944011058E-02   -1.6797872025E-02   -1.3119487970E-02   -9.9007430870E-03
-7.1347369955E-03   -4.8171098742E-03   -2.9419821074E-03   -1.5032749340E-03
-5.3509730438E-04   -3.8458109741E-05    9.1073171589E-05    2.9066241402E-05
-1.8579209758E-05   -3.3467307163E-06    3.7861986360E-06   -4.0049389183E-08
-1.9797522301E-07    0.0000000000E+00    0.0000000000E+00    0.0000000000E+00
0.0000000000E+00    0.0000000000E+00    0.0000000000E+00    0.0000000000E+00
0.0000000000E+00    0.0000000000E+00    0.0000000000E+00    0.0000000000E+00
0.0000000000E+00    0.0000000000E+00    0.0000000000E+00    0.0000000000E+00
0.0000000000E+00    0.0000000000E+00    0.0000000000E+00    0.0000000000E+00
0.0000000000E+00    0.0000000000E+00    0.0000000000E+00    0.0000000000E+00
0.0000000000E+00    0.0000000000E+00    0.0000000000E+00    0.0000000000E+00
0.0000000000E+00    0.0000000000E+00    0.0000000000E+00    0.0000000000E+00
0.0000000000E+00    0.0000000000E+00    0.0000000000E+00    0.0000000000E+00
0.0000000000E+00    0.0000000000E+00    0.0000000000E+00    0.0000000000E+00
0.0000000000E+00    0.0000000000E+00    0.0000000000E+00    0.0000000000E+00
0.0000000000E+00    0.0000000000E+00    0.0000000000E+00    0.0000000000E+00
0.0000000000E+00    0.0000000000E+00    0.0000000000E+00    0.0000000000E+00
0.0000000000E+00    0.0000000000E+00    0.0000000000E+00    0.0000000000E+00
0.0000000000E+00    0.0000000000E+00    0.0000000000E+00    0.0000000000E+00
0.0000000000E+00    0.0000000000E+00    0.0000000000E+00    0.0000000000E+00
0.0000000000E+00    0.0000000000E+00    0.0000000000E+00    0.0000000000E+00
0.0000000000E+00    0.0000000000E+00    0.0000000000E+00    0.0000000000E+00
0.0000000000E+00    0.0000000000E+00    0.0000000000E+00    0.0000000000E+00
0.0000000000E+00    0.0000000000E+00    0.0000000000E+00    0.0000000000E+00
0.0000000000E+00    0.0000000000E+00    0.0000000000E+00    0.0000000000E+00
0.0000000000E+00    0.0000000000E+00    0.0000000000E+00    0.0000000000E+00
0.0000000000E+00    0.0000000000E+00    0.0000000000E+00    0.0000000000E+00
0.0000000000E+00    0.0000000000E+00    0.0000000000E+00    0.0000000000E+00
0.0000000000E+00    0.0000000000E+00    0.0000000000E+00    0.0000000000E+00
0.0000000000E+00    0.0000000000E+00    0.0000000000E+00    0.0000000000E+00
0.0000000000E+00    0.0000000000E+00    0.0000000000E+00    0.0000000000E+00
0.0000000000E+00    0.0000000000E+00    0.0000000000E+00    0.0000000000E+00
0.0000000000E+00    0.0000000000E+00    0.0000000000E+00    0.0000000000E+00
0.0000000000E+00    0.0000000000E+00    0.0000000000E+00    0.0000000000E+00
0.0000000000E+00    0.0000000000E+00    0.0000000000E+00    0.0000000000E+00
0.0000000000E+00    0.0000000000E+00    0.0000000000E+00    0.0000000000E+00
0.0000000000E+00    0.0000000000E+00    0.0000000000E+00    0.0000000000E+00
0.0000000000E+00    0.0000000000E+00    0.0000000000E+00    0.0000000000E+00
0.0000000000E+00    0.0000000000E+00    0.0000000000E+00    0.0000000000E+00
0.0000000000E+00    0.0000000000E+00    0.0000000000E+00    0.0000000000E+00
0.0000000000E+00    0.0000000000E+00    0.0000000000E+00    0.0000000000E+00
0.0000000000E+00    0.0000000000E+00    0.0000000000E+00    0.0000000000E+00
0.0000000000E+00    0.0000000000E+00    0.0000000000E+00    0.0000000000E+00
0.0000000000E+00    0.0000000000E+00    0.0000000000E+00    0.0000000000E+00
0.0000000000E+00    0.0000000000E+00    0.0000000000E+00    0.0000000000E+00
0.0000000000E+00    0.0000000000E+00    0.0000000000E+00    0.0000000000E+00
0.0000000000E+00    0.0000000000E+00    0.0000000000E+00    0.0000000000E+00
0.0000000000E+00    0.0000000000E+00    0.0000000000E+00    0.0000000000E+00
0.0000000000E+00    0.0000000000E+00    0.0000000000E+00    0.0000000000E+00
0.0000000000E+00    0.0000000000E+00    0.0000000000E+00    0.0000000000E+00
0.0000000000E+00    0.0000000000E+00    0.0000000000E+00    0.0000000000E+00
0.0000000000E+00    0.0000000000E+00    0.0000000000E+00    0.0000000000E+00
0.0000000000E+00    0.0000000000E+00    0.0000000000E+00    0.0000000000E+00
0.0000000000E+00    0.0000000000E+00    0.0000000000E+00    0.0000000000E+00
0.0000000000E+00    0.0000000000E+00    0.0000000000E+00    0.0000000000E+00
0.0000000000E+00    0.0000000000E+00    0.0000000000E+00    0.0000000000E+00
0.0000000000E+00    0.0000000000E+00    0.0000000000E+00    0.0000000000E+00
0.0000000000E+00    0.0000000000E+00    0.0000000000E+00    0.0000000000E+00
0.0000000000E+00    0.0000000000E+00    0.0000000000E+00    0.0000000000E+00
0.0000000000E+00    0.0000000000E+00    0.0000000000E+00    0.0000000000E+00
0.0000000000E+00    0.0000000000E+00    0.0000000000E+00    0.0000000000E+00
0.0000000000E+00    0.0000000000E+00    0.0000000000E+00    0.0000000000E+00
0.0000000000E+00    0.0000000000E+00    0.0000000000E+00    0.0000000000E+00
0.0000000000E+00    0.0000000000E+00    0.0000000000E+00    0.0000000000E+00
0.0000000000E+00    0.0000000000E+00    0.0000000000E+00    0.0000000000E+00
0.0000000000E+00    0.0000000000E+00    0.0000000000E+00    0.0000000000E+00
0.0000000000E+00    0.0000000000E+00    0.0000000000E+00    0.0000000000E+00
0.0000000000E+00    0.0000000000E+00    0.0000000000E+00    0.0000000000E+00
0.0000000000E+00    0.0000000000E+00    0.0000000000E+00    0.0000000000E+00
0.0000000000E+00    0.0000000000E+00    0.0000000000E+00    0.0000000000E+00