Zn    ONCVPSP-3.3.0  r_core=   1.35823   1.66358   1.85211
30.0000     20.0000      180112    zatom,zion,pspd
8 -116133   2     4   600     0    pspcod,pspxc,lmax,lloc,mmax,r2well
5.99000000  2.50000000  0.00000000    rchrg fchrg qchrg
2     2     2     0     0    nproj
1     1           extension_switch
0                         2.8308354242488D+00 -1.5191074296972D+00
1  0.0000000000000D+00  7.6604367293953D-09  6.2696203784185D-10
2  1.0000000000000D-02  8.8210404920879D-02  3.0551605052459D-02
3  2.0000000000000D-02  1.7620824969252D-01  6.1118149731791D-02
4  3.0000000000000D-02  2.6377893756431D-01  9.1714125951795D-02
5  4.0000000000000D-02  3.5070387789440D-01  1.2235313804112D-01
6  5.0000000000000D-02  4.3675868544772D-01  1.5304747838718D-01
7  6.0000000000000D-02  5.2171160953685D-01  1.8380772594267D-01
8  7.0000000000000D-02  6.0532226034886D-01  2.1464237445832D-01
9  8.0000000000000D-02  6.8734069214113D-01  2.4555749667838D-01
10  9.0000000000000D-02  7.6750689376316D-01  2.7655644997888D-01
11  1.0000000000000D-01  8.4555072639233D-01  3.0763962805933D-01
12  1.1000000000000D-01  9.2119233671144D-01  3.3880426233695D-01
13  1.2000000000000D-01  9.9414306128668D-01  3.7004427565915D-01
14  1.3000000000000D-01  1.0641068249256D+00  4.0135018986978D-01
15  1.4000000000000D-01  1.1307820226207D+00  4.3270908766041D-01
16  1.5000000000000D-01  1.1938638616316D+00  4.6410462803613D-01
17  1.6000000000000D-01  1.2530471276517D+00  4.9551711364949D-01
18  1.7000000000000D-01  1.3080293271385D+00  5.2692360723146D-01
19  1.8000000000000D-01  1.3585141470722D+00  5.5829809339699D-01
20  1.9000000000000D-01  1.4042151638889D+00  5.8961168124683D-01
21  2.0000000000000D-01  1.4448597253718D+00  6.2083284244479D-01
22  2.1000000000000D-01  1.4801929230686D+00  6.5192767883808D-01
23  2.2000000000000D-01  1.5099815684926D+00  6.8286021322016D-01
24  2.3000000000000D-01  1.5340180840961D+00  7.1359269652112D-01
25  2.4000000000000D-01  1.5521242198223D+00  7.4408592455621D-01
26  2.5000000000000D-01  1.5641545079901D+00  7.7429955747150D-01
27  2.6000000000000D-01  1.5699993732982D+00  8.0419243519540D-01
28  2.7000000000000D-01  1.5695878207875D+00  8.3372288253109D-01
29  2.8000000000000D-01  1.5628896325347D+00  8.6284899799952D-01
30  2.9000000000000D-01  1.5499170135017D+00  8.9152892115253D-01
31  3.0000000000000D-01  1.5307256381196D+00  9.1972107380676D-01
32  3.1000000000000D-01  1.5054150615931D+00  9.4738437148208D-01
33  3.2000000000000D-01  1.4741284732890D+00  9.7447840224353D-01
34  3.3000000000000D-01  1.4370517836188D+00  1.0009635711203D+00
35  3.4000000000000D-01  1.3944120502152D+00  1.0268012092851D+00
36  3.5000000000000D-01  1.3464752636023D+00  1.0519536481978D+00
37  3.6000000000000D-01  1.2935435266343D+00  1.0763842599235D+00
38  3.7000000000000D-01  1.2359516754003D+00  1.1000574658011D+00
39  3.8000000000000D-01  1.1740634017382D+00  1.1229387165425D+00
40  3.9000000000000D-01  1.1082669486841D+00  1.1449944476599D+00
41  4.0000000000000D-01  1.0389704598223D+00  1.1661920148290D+00
42  4.1000000000000D-01  9.6659707137447D-01  1.1864996143838D+00
43  4.2000000000000D-01  8.9157984176748D-01  1.2058861945854D+00
44  4.3000000000000D-01  8.1435661720477D-01  1.2243213636028D+00
45  4.4000000000000D-01  7.3536493333257D-01  1.2417753002812D+00
46  4.5000000000000D-01  6.5503705238665D-01  1.2582186737433D+00
47  4.6000000000000D-01  5.7379523223232D-01  1.2736225776792D+00
48  4.7000000000000D-01  4.9204731852283D-01  1.2879584848251D+00
49  4.8000000000000D-01  4.1018274390729D-01  1.3011982266235D+00
50  4.9000000000000D-01  3.2856900897356D-01  1.3133140024088D+00
51  5.0000000000000D-01  2.4754870862255D-01  1.3242784216818D+00
52  5.1000000000000D-01  1.6743715507566D-01  1.3340645821478D+00
53  5.2000000000000D-01  8.8520635005986D-02  1.3426461852175D+00
54  5.3000000000000D-01  1.1055323666366D-02  1.3499976896190D+00
55  5.4000000000000D-01 -6.4733136292992D-02  1.3560945026888D+00
56  5.5000000000000D-01 -1.3864939904442D-01  1.3609132077995D+00
57  5.6000000000000D-01 -2.1052754580624D-01  1.3644318252982D+00
58  5.7000000000000D-01 -2.8022961882029D-01  1.3666301032674D+00
59  5.8000000000000D-01 -3.4764361072368D-01  1.3674898334360D+00
60  5.9000000000000D-01 -4.1268097369543D-01  1.3669951866643D+00
61  6.0000000000000D-01 -4.7527372398020D-01  1.3651330616391D+00
62  6.1000000000000D-01 -5.3537122687539D-01  1.3618934397580D+00
63  6.2000000000000D-01 -5.9293675471666D-01  1.3572697386793D+00
64  6.3000000000000D-01 -6.4794391569125D-01  1.3512591566734D+00
65  6.4000000000000D-01 -7.0037305423814D-01  1.3438629997507D+00
66  6.5000000000000D-01 -7.5020772432976D-01  1.3350869835602D+00
67  6.6000000000000D-01 -7.9743133498967D-01  1.3249415022665D+00
68  6.7000000000000D-01 -8.4202406307514D-01  1.3134418569979D+00
69  6.8000000000000D-01 -8.8396012164898D-01  1.3006084370392D+00
70  6.9000000000000D-01 -9.2320546338592D-01  1.2864668476784D+00
71  7.0000000000000D-01 -9.5971598754046D-01  1.2710479795190D+00
72  7.1000000000000D-01 -9.9343630641364D-01  1.2543880150975D+00
73  7.2000000000000D-01 -1.0242991130214D+00  1.2365283698046D+00
74  7.3000000000000D-01 -1.0522251764354D+00  1.2175155653464D+00
75  7.4000000000000D-01 -1.0771239751418D+00  1.1974010352957D+00
76  7.5000000000000D-01 -1.0988949622158D+00  1.1762408636276D+00
77  7.6000000000000D-01 -1.1174294395773D+00  1.1540954584927D+00
78  7.7000000000000D-01 -1.1326130023283D+00  1.1310291648109D+00
79  7.8000000000000D-01 -1.1443284987108D+00  1.1071098205587D+00
80  7.9000000000000D-01 -1.1524594368717D+00  1.0824082628176D+00
81  8.0000000000000D-01 -1.1568937567295D+00  1.0569977907513D+00
82  8.1000000000000D-01 -1.1575278741535D+00  1.0309535936374D+00
83  8.2000000000000D-01 -1.1542708956534D+00  1.0043521528866D+00
84  8.3000000000000D-01 -1.1470488951004D+00  9.7727062761132D-01
85  8.4000000000000D-01 -1.1358091398161D+00  9.4978623374405D-01
86  8.5000000000000D-01 -1.1205241518348D+00  9.2197562694540D-01
87  8.6000000000000D-01 -1.1011954913158D+00  8.9391429956456D-01
88  8.7000000000000D-01 -1.0778571529787D+00  8.6567600173293D-01
89  8.8000000000000D-01 -1.0505784729957D+00  8.3733219627500D-01
90  8.9000000000000D-01 -1.0194664528849D+00  8.0895155652239D-01
91  9.0000000000000D-01 -9.8466741842993D-01  7.8059951532675D-01
92  9.1000000000000D-01 -9.4636794527578D-01  7.5233787260083D-01
93  9.2000000000000D-01 -9.0479499831919D-01  7.2422446759416D-01
94  9.3000000000000D-01 -8.6021524900785D-01  6.9631292085403D-01
95  9.4000000000000D-01 -8.1293355280224D-01  6.6865244945953D-01
96  9.5000000000000D-01 -7.6329058794226D-01  6.4128775767623D-01
97  9.6000000000000D-01 -7.1165967584148D-01  6.1425900369368D-01
98  9.7000000000000D-01 -6.5844282270434D-01  5.8760184159070D-01
99  9.8000000000000D-01 -6.0406604010738D-01  5.6134753622063D-01
100  9.9000000000000D-01 -5.4897402028702D-01  5.3552314723723D-01
101  1.0000000000000D+00 -4.9362425783312D-01  5.1015177714309D-01
102  1.0100000000000D+00 -4.3848072387121D-01  4.8525287699728D-01
103  1.0200000000000D+00 -3.8400721110918D-01  4.6084260230773D-01
104  1.0300000000000D+00 -3.3066047794889D-01  4.3693421068795D-01
105  1.0400000000000D+00 -2.7888332690956D-01  4.1353849208925D-01
106  1.0500000000000D+00 -2.2909775687553D-01  3.9066422187588D-01
107  1.0600000000000D+00 -1.8169833005823D-01  3.6831862661303D-01
108  1.0700000000000D+00 -1.3704589246222D-01  3.4650785234020D-01
109  1.0800000000000D+00 -9.5461781993262D-02  3.2523742516041D-01
110  1.0900000000000D+00 -5.7222649256311D-02  3.0451269434562D-01
111  1.1000000000000D+00 -2.2556007809367D-02  2.8433924853466D-01
112  1.1100000000000D+00  8.3633858013199D-03  2.6472329647103D-01
113  1.1200000000000D+00  3.5416235709427D-02  2.4567200451993D-01
114  1.1300000000000D+00  5.8540427658893D-02  2.2719378439132D-01
115  1.1400000000000D+00  7.7731717137670D-02  2.0929852549339D-01
116  1.1500000000000D+00  9.3043358436700D-02  1.9199776782427D-01
117  1.1600000000000D+00  1.0458466930274D-01  1.7530481265766D-01
118  1.1700000000000D+00  1.1251854980032D-01  1.5923476984582D-01
119  1.1800000000000D+00  1.1705798990463D-01  1.4380454160667D-01
120  1.1900000000000D+00  1.1846162970367D-01  1.2903274463281D-01
121  1.2000000000000D+00  1.1702845266685D-01  1.1493957351105D-01
122  1.2100000000000D+00  1.1309171115166D-01  1.0154660974649D-01
123  1.2200000000000D+00  1.0701219884174D-01  8.8876581765495D-02
124  1.2300000000000D+00  9.9171005014686D-02  7.6953082750546D-02
125  1.2400000000000D+00  8.9961892505196D-02  6.5800253741911D-02
126  1.2500000000000D+00  7.9783449566611D-02  5.5442440022176D-02
127  1.2600000000000D+00  6.9031178415558D-02  4.5903829890825D-02
128  1.2700000000000D+00  5.8089680636818D-02  3.7208085098287D-02
129  1.2800000000000D+00  4.7325080456661D-02  2.9377969259233D-02
130  1.2900000000000D+00  3.7077923827464D-02  2.2434993949378D-02
131  1.3000000000000D+00  2.7656367999130D-02  1.6399049294653D-02
132  1.3100000000000D+00  1.9330970295540D-02  1.1288175285670D-02
133  1.3200000000000D+00  1.2333030845377D-02  7.1208580992254D-03
134  1.3300000000000D+00  6.8054022650875D-03  3.8910533240896D-03
135  1.3400000000000D+00  2.9220311392907D-03  1.6394584080823D-03
136  1.3500000000000D+00  8.3807418725285D-04  4.2429224149591D-04
137  1.3600000000000D+00  9.3467255265987D-05 -3.6587359972887D-07
138  1.3700000000000D+00 -2.0652420348537D-05 -2.7951773245490D-05
139  1.3800000000000D+00  1.4582073677528D-05  1.4606466579464D-05
140  1.3900000000000D+00  2.9998151636837D-06  2.7199293057410D-06
141  1.4000000000000D+00 -2.2042694283069D-06 -2.6713892323993D-06
142  1.4100000000000D+00 -2.1720390773011D-07 -4.7036470399778D-08
143  1.4200000000000D+00 -3.3462830406201D-07 -7.2465244679200D-08
144  1.4300000000000D+00  0.0000000000000D+00  0.0000000000000D+00
145  1.4400000000000D+00  0.0000000000000D+00  0.0000000000000D+00
146  1.4500000000000D+00  0.0000000000000D+00  0.0000000000000D+00
147  1.4600000000000D+00  0.0000000000000D+00  0.0000000000000D+00
148  1.4700000000000D+00  0.0000000000000D+00  0.0000000000000D+00
149  1.4800000000000D+00  0.0000000000000D+00  0.0000000000000D+00
150  1.4900000000000D+00  0.0000000000000D+00  0.0000000000000D+00
151  1.5000000000000D+00  0.0000000000000D+00  0.0000000000000D+00
152  1.5100000000000D+00  0.0000000000000D+00  0.0000000000000D+00
153  1.5200000000000D+00  0.0000000000000D+00  0.0000000000000D+00
154  1.5300000000000D+00  0.0000000000000D+00  0.0000000000000D+00
155  1.5400000000000D+00  0.0000000000000D+00  0.0000000000000D+00
156  1.5500000000000D+00  0.0000000000000D+00  0.0000000000000D+00
157  1.5600000000000D+00  0.0000000000000D+00  0.0000000000000D+00
158  1.5700000000000D+00  0.0000000000000D+00  0.0000000000000D+00
159  1.5800000000000D+00  0.0000000000000D+00  0.0000000000000D+00
160  1.5900000000000D+00  0.0000000000000D+00  0.0000000000000D+00
161  1.6000000000000D+00  0.0000000000000D+00  0.0000000000000D+00
162  1.6100000000000D+00  0.0000000000000D+00  0.0000000000000D+00
163  1.6200000000000D+00  0.0000000000000D+00  0.0000000000000D+00
164  1.6300000000000D+00  0.0000000000000D+00  0.0000000000000D+00
165  1.6400000000000D+00  0.0000000000000D+00  0.0000000000000D+00
166  1.6500000000000D+00  0.0000000000000D+00  0.0000000000000D+00
167  1.6600000000000D+00  0.0000000000000D+00  0.0000000000000D+00
168  1.6700000000000D+00  0.0000000000000D+00  0.0000000000000D+00
169  1.6800000000000D+00  0.0000000000000D+00  0.0000000000000D+00
170  1.6900000000000D+00  0.0000000000000D+00  0.0000000000000D+00
171  1.7000000000000D+00  0.0000000000000D+00  0.0000000000000D+00
172  1.7100000000000D+00  0.0000000000000D+00  0.0000000000000D+00
173  1.7200000000000D+00  0.0000000000000D+00  0.0000000000000D+00
174  1.7300000000000D+00  0.0000000000000D+00  0.0000000000000D+00
175  1.7400000000000D+00  0.0000000000000D+00  0.0000000000000D+00
176  1.7500000000000D+00  0.0000000000000D+00  0.0000000000000D+00
177  1.7600000000000D+00  0.0000000000000D+00  0.0000000000000D+00
178  1.7700000000000D+00  0.0000000000000D+00  0.0000000000000D+00
179  1.7800000000000D+00  0.0000000000000D+00  0.0000000000000D+00
180  1.7900000000000D+00  0.0000000000000D+00  0.0000000000000D+00
181  1.8000000000000D+00  0.0000000000000D+00  0.0000000000000D+00
182  1.8100000000000D+00  0.0000000000000D+00  0.0000000000000D+00
183  1.8200000000000D+00  0.0000000000000D+00  0.0000000000000D+00
184  1.8300000000000D+00  0.0000000000000D+00  0.0000000000000D+00
185  1.8400000000000D+00  0.0000000000000D+00  0.0000000000000D+00
186  1.8500000000000D+00  0.0000000000000D+00  0.0000000000000D+00
187  1.8600000000000D+00  0.0000000000000D+00  0.0000000000000D+00
188  1.8700000000000D+00  0.0000000000000D+00  0.0000000000000D+00
189  1.8800000000000D+00  0.0000000000000D+00  0.0000000000000D+00
190  1.8900000000000D+00  0.0000000000000D+00  0.0000000000000D+00
191  1.9000000000000D+00  0.0000000000000D+00  0.0000000000000D+00
192  1.9100000000000D+00  0.0000000000000D+00  0.0000000000000D+00
193  1.9200000000000D+00  0.0000000000000D+00  0.0000000000000D+00
194  1.9300000000000D+00  0.0000000000000D+00  0.0000000000000D+00
195  1.9400000000000D+00  0.0000000000000D+00  0.0000000000000D+00
196  1.9500000000000D+00  0.0000000000000D+00  0.0000000000000D+00
197  1.9600000000000D+00  0.0000000000000D+00  0.0000000000000D+00
198  1.9700000000000D+00  0.0000000000000D+00  0.0000000000000D+00
199  1.9800000000000D+00  0.0000000000000D+00  0.0000000000000D+00
200  1.9900000000000D+00  0.0000000000000D+00  0.0000000000000D+00
201  2.0000000000000D+00  0.0000000000000D+00  0.0000000000000D+00
202  2.0100000000000D+00  0.0000000000000D+00  0.0000000000000D+00
203  2.0200000000000D+00  0.0000000000000D+00  0.0000000000000D+00
204  2.0300000000000D+00  0.0000000000000D+00  0.0000000000000D+00
205  2.0400000000000D+00  0.0000000000000D+00  0.0000000000000D+00
206  2.0500000000000D+00  0.0000000000000D+00  0.0000000000000D+00
207  2.0600000000000D+00  0.0000000000000D+00  0.0000000000000D+00
208  2.0700000000000D+00  0.0000000000000D+00  0.0000000000000D+00
209  2.0800000000000D+00  0.0000000000000D+00  0.0000000000000D+00
210  2.0900000000000D+00  0.0000000000000D+00  0.0000000000000D+00
211  2.1000000000000D+00  0.0000000000000D+00  0.0000000000000D+00
212  2.1100000000000D+00  0.0000000000000D+00  0.0000000000000D+00
213  2.1200000000000D+00  0.0000000000000D+00  0.0000000000000D+00
214  2.1300000000000D+00  0.0000000000000D+00  0.0000000000000D+00
215  2.1400000000000D+00  0.0000000000000D+00  0.0000000000000D+00
216  2.1500000000000D+00  0.0000000000000D+00  0.0000000000000D+00
217  2.1600000000000D+00  0.0000000000000D+00  0.0000000000000D+00
218  2.1700000000000D+00  0.0000000000000D+00  0.0000000000000D+00
219  2.1800000000000D+00  0.0000000000000D+00  0.0000000000000D+00
220  2.1900000000000D+00  0.0000000000000D+00  0.0000000000000D+00
221  2.2000000000000D+00  0.0000000000000D+00  0.0000000000000D+00
222  2.2100000000000D+00  0.0000000000000D+00  0.0000000000000D+00
223  2.2200000000000D+00  0.0000000000000D+00  0.0000000000000D+00
224  2.2300000000000D+00  0.0000000000000D+00  0.0000000000000D+00
225  2.2400000000000D+00  0.0000000000000D+00  0.0000000000000D+00
226  2.2500000000000D+00  0.0000000000000D+00  0.0000000000000D+00
227  2.2600000000000D+00  0.0000000000000D+00  0.0000000000000D+00
228  2.2700000000000D+00  0.0000000000000D+00  0.0000000000000D+00
229  2.2800000000000D+00  0.0000000000000D+00  0.0000000000000D+00
230  2.2900000000000D+00  0.0000000000000D+00  0.0000000000000D+00
231  2.3000000000000D+00  0.0000000000000D+00  0.0000000000000D+00
232  2.3100000000000D+00  0.0000000000000D+00  0.0000000000000D+00
233  2.3200000000000D+00  0.0000000000000D+00  0.0000000000000D+00
234  2.3300000000000D+00  0.0000000000000D+00  0.0000000000000D+00
235  2.3400000000000D+00  0.0000000000000D+00  0.0000000000000D+00
236  2.3500000000000D+00  0.0000000000000D+00  0.0000000000000D+00
237  2.3600000000000D+00  0.0000000000000D+00  0.0000000000000D+00
238  2.3700000000000D+00  0.0000000000000D+00  0.0000000000000D+00
239  2.3800000000000D+00  0.0000000000000D+00  0.0000000000000D+00
240  2.3900000000000D+00  0.0000000000000D+00  0.0000000000000D+00
241  2.4000000000000D+00  0.0000000000000D+00  0.0000000000000D+00
242  2.4100000000000D+00  0.0000000000000D+00  0.0000000000000D+00
243  2.4200000000000D+00  0.0000000000000D+00  0.0000000000000D+00
244  2.4300000000000D+00  0.0000000000000D+00  0.0000000000000D+00
245  2.4400000000000D+00  0.0000000000000D+00  0.0000000000000D+00
246  2.4500000000000D+00  0.0000000000000D+00  0.0000000000000D+00
247  2.4600000000000D+00  0.0000000000000D+00  0.0000000000000D+00
248  2.4700000000000D+00  0.0000000000000D+00  0.0000000000000D+00
249  2.4800000000000D+00  0.0000000000000D+00  0.0000000000000D+00
250  2.4900000000000D+00  0.0000000000000D+00  0.0000000000000D+00
251  2.5000000000000D+00  0.0000000000000D+00  0.0000000000000D+00
252  2.5100000000000D+00  0.0000000000000D+00  0.0000000000000D+00
253  2.5200000000000D+00  0.0000000000000D+00  0.0000000000000D+00
254  2.5300000000000D+00  0.0000000000000D+00  0.0000000000000D+00
255  2.5400000000000D+00  0.0000000000000D+00  0.0000000000000D+00
256  2.5500000000000D+00  0.0000000000000D+00  0.0000000000000D+00
257  2.5600000000000D+00  0.0000000000000D+00  0.0000000000000D+00
258  2.5700000000000D+00  0.0000000000000D+00  0.0000000000000D+00
259  2.5800000000000D+00  0.0000000000000D+00  0.0000000000000D+00
260  2.5900000000000D+00  0.0000000000000D+00  0.0000000000000D+00
261  2.6000000000000D+00  0.0000000000000D+00  0.0000000000000D+00
262  2.6100000000000D+00  0.0000000000000D+00  0.0000000000000D+00
263  2.6200000000000D+00  0.0000000000000D+00  0.0000000000000D+00
264  2.6300000000000D+00  0.0000000000000D+00  0.0000000000000D+00
265  2.6400000000000D+00  0.0000000000000D+00  0.0000000000000D+00
266  2.6500000000000D+00  0.0000000000000D+00  0.0000000000000D+00
267  2.6600000000000D+00  0.0000000000000D+00  0.0000000000000D+00
268  2.6700000000000D+00  0.0000000000000D+00  0.0000000000000D+00
269  2.6800000000000D+00  0.0000000000000D+00  0.0000000000000D+00
270  2.6900000000000D+00  0.0000000000000D+00  0.0000000000000D+00
271  2.7000000000000D+00  0.0000000000000D+00  0.0000000000000D+00
272  2.7100000000000D+00  0.0000000000000D+00  0.0000000000000D+00
273  2.7200000000000D+00  0.0000000000000D+00  0.0000000000000D+00
274  2.7300000000000D+00  0.0000000000000D+00  0.0000000000000D+00
275  2.7400000000000D+00  0.0000000000000D+00  0.0000000000000D+00
276  2.7500000000000D+00  0.0000000000000D+00  0.0000000000000D+00
277  2.7600000000000D+00  0.0000000000000D+00  0.0000000000000D+00
278  2.7700000000000D+00  0.0000000000000D+00  0.0000000000000D+00
279  2.7800000000000D+00  0.0000000000000D+00  0.0000000000000D+00
280  2.7900000000000D+00  0.0000000000000D+00  0.0000000000000D+00
281  2.8000000000000D+00  0.0000000000000D+00  0.0000000000000D+00
282  2.8100000000000D+00  0.0000000000000D+00  0.0000000000000D+00
283  2.8200000000000D+00  0.0000000000000D+00  0.0000000000000D+00
284  2.8300000000000D+00  0.0000000000000D+00  0.0000000000000D+00
285  2.8400000000000D+00  0.0000000000000D+00  0.0000000000000D+00
286  2.8500000000000D+00  0.0000000000000D+00  0.0000000000000D+00
287  2.8600000000000D+00  0.0000000000000D+00  0.0000000000000D+00
288  2.8700000000000D+00  0.0000000000000D+00  0.0000000000000D+00
289  2.8800000000000D+00  0.0000000000000D+00  0.0000000000000D+00
290  2.8900000000000D+00  0.0000000000000D+00  0.0000000000000D+00
291  2.9000000000000D+00  0.0000000000000D+00  0.0000000000000D+00
292  2.9100000000000D+00  0.0000000000000D+00  0.0000000000000D+00
293  2.9200000000000D+00  0.0000000000000D+00  0.0000000000000D+00
294  2.9300000000000D+00  0.0000000000000D+00  0.0000000000000D+00
295  2.9400000000000D+00  0.0000000000000D+00  0.0000000000000D+00
296  2.9500000000000D+00  0.0000000000000D+00  0.0000000000000D+00
297  2.9600000000000D+00  0.0000000000000D+00  0.0000000000000D+00
298  2.9700000000000D+00  0.0000000000000D+00  0.0000000000000D+00
299  2.9800000000000D+00  0.0000000000000D+00  0.0000000000000D+00
300  2.9900000000000D+00  0.0000000000000D+00  0.0000000000000D+00
301  3.0000000000000D+00  0.0000000000000D+00  0.0000000000000D+00
302  3.0100000000000D+00  0.0000000000000D+00  0.0000000000000D+00
303  3.0200000000000D+00  0.0000000000000D+00  0.0000000000000D+00
304  3.0300000000000D+00  0.0000000000000D+00  0.0000000000000D+00
305  3.0400000000000D+00  0.0000000000000D+00  0.0000000000000D+00
306  3.0500000000000D+00  0.0000000000000D+00  0.0000000000000D+00
307  3.0600000000000D+00  0.0000000000000D+00  0.0000000000000D+00
308  3.0700000000000D+00  0.0000000000000D+00  0.0000000000000D+00
309  3.0800000000000D+00  0.0000000000000D+00  0.0000000000000D+00
310  3.0900000000000D+00  0.0000000000000D+00  0.0000000000000D+00
311  3.1000000000000D+00  0.0000000000000D+00  0.0000000000000D+00
312  3.1100000000000D+00  0.0000000000000D+00  0.0000000000000D+00
313  3.1200000000000D+00  0.0000000000000D+00  0.0000000000000D+00
314  3.1300000000000D+00  0.0000000000000D+00  0.0000000000000D+00
315  3.1400000000000D+00  0.0000000000000D+00  0.0000000000000D+00
316  3.1500000000000D+00  0.0000000000000D+00  0.0000000000000D+00
317  3.1600000000000D+00  0.0000000000000D+00  0.0000000000000D+00
318  3.1700000000000D+00  0.0000000000000D+00  0.0000000000000D+00
319  3.1800000000000D+00  0.0000000000000D+00  0.0000000000000D+00
320  3.1900000000000D+00  0.0000000000000D+00  0.0000000000000D+00
321  3.2000000000000D+00  0.0000000000000D+00  0.0000000000000D+00
322  3.2100000000000D+00  0.0000000000000D+00  0.0000000000000D+00
323  3.2200000000000D+00  0.0000000000000D+00  0.0000000000000D+00
324  3.2300000000000D+00  0.0000000000000D+00  0.0000000000000D+00
325  3.2400000000000D+00  0.0000000000000D+00  0.0000000000000D+00
326  3.2500000000000D+00  0.0000000000000D+00  0.0000000000000D+00
327  3.2600000000000D+00  0.0000000000000D+00  0.0000000000000D+00
328  3.2700000000000D+00  0.0000000000000D+00  0.0000000000000D+00
329  3.2800000000000D+00  0.0000000000000D+00  0.0000000000000D+00
330  3.2900000000000D+00  0.0000000000000D+00  0.0000000000000D+00
331  3.3000000000000D+00  0.0000000000000D+00  0.0000000000000D+00
332  3.3100000000000D+00  0.0000000000000D+00  0.0000000000000D+00
333  3.3200000000000D+00  0.0000000000000D+00  0.0000000000000D+00
334  3.3300000000000D+00  0.0000000000000D+00  0.0000000000000D+00
335  3.3400000000000D+00  0.0000000000000D+00  0.0000000000000D+00
336  3.3500000000000D+00  0.0000000000000D+00  0.0000000000000D+00
337  3.3600000000000D+00  0.0000000000000D+00  0.0000000000000D+00
338  3.3700000000000D+00  0.0000000000000D+00  0.0000000000000D+00
339  3.3800000000000D+00  0.0000000000000D+00  0.0000000000000D+00
340  3.3900000000000D+00  0.0000000000000D+00  0.0000000000000D+00
341  3.4000000000000D+00  0.0000000000000D+00  0.0000000000000D+00
342  3.4100000000000D+00  0.0000000000000D+00  0.0000000000000D+00
343  3.4200000000000D+00  0.0000000000000D+00  0.0000000000000D+00
344  3.4300000000000D+00  0.0000000000000D+00  0.0000000000000D+00
345  3.4400000000000D+00  0.0000000000000D+00  0.0000000000000D+00
346  3.4500000000000D+00  0.0000000000000D+00  0.0000000000000D+00
347  3.4600000000000D+00  0.0000000000000D+00  0.0000000000000D+00
348  3.4700000000000D+00  0.0000000000000D+00  0.0000000000000D+00
349  3.4800000000000D+00  0.0000000000000D+00  0.0000000000000D+00
350  3.4900000000000D+00  0.0000000000000D+00  0.0000000000000D+00
351  3.5000000000000D+00  0.0000000000000D+00  0.0000000000000D+00
352  3.5100000000000D+00  0.0000000000000D+00  0.0000000000000D+00
353  3.5200000000000D+00  0.0000000000000D+00  0.0000000000000D+00
354  3.5300000000000D+00  0.0000000000000D+00  0.0000000000000D+00
355  3.5400000000000D+00  0.0000000000000D+00  0.0000000000000D+00
356  3.5500000000000D+00  0.0000000000000D+00  0.0000000000000D+00
357  3.5600000000000D+00  0.0000000000000D+00  0.0000000000000D+00
358  3.5700000000000D+00  0.0000000000000D+00  0.0000000000000D+00
359  3.5800000000000D+00  0.0000000000000D+00  0.0000000000000D+00
360  3.5900000000000D+00  0.0000000000000D+00  0.0000000000000D+00
361  3.6000000000000D+00  0.0000000000000D+00  0.0000000000000D+00
362  3.6100000000000D+00  0.0000000000000D+00  0.0000000000000D+00
363  3.6200000000000D+00  0.0000000000000D+00  0.0000000000000D+00
364  3.6300000000000D+00  0.0000000000000D+00  0.0000000000000D+00
365  3.6400000000000D+00  0.0000000000000D+00  0.0000000000000D+00
366  3.6500000000000D+00  0.0000000000000D+00  0.0000000000000D+00
367  3.6600000000000D+00  0.0000000000000D+00  0.0000000000000D+00
368  3.6700000000000D+00  0.0000000000000D+00  0.0000000000000D+00
369  3.6800000000000D+00  0.0000000000000D+00  0.0000000000000D+00
370  3.6900000000000D+00  0.0000000000000D+00  0.0000000000000D+00
371  3.7000000000000D+00  0.0000000000000D+00  0.0000000000000D+00
372  3.7100000000000D+00  0.0000000000000D+00  0.0000000000000D+00
373  3.7200000000000D+00  0.0000000000000D+00  0.0000000000000D+00
374  3.7300000000000D+00  0.0000000000000D+00  0.0000000000000D+00
375  3.7400000000000D+00  0.0000000000000D+00  0.0000000000000D+00
376  3.7500000000000D+00  0.0000000000000D+00  0.0000000000000D+00
377  3.7600000000000D+00  0.0000000000000D+00  0.0000000000000D+00
378  3.7700000000000D+00  0.0000000000000D+00  0.0000000000000D+00
379  3.7800000000000D+00  0.0000000000000D+00  0.0000000000000D+00
380  3.7900000000000D+00  0.0000000000000D+00  0.0000000000000D+00
381  3.8000000000000D+00  0.0000000000000D+00  0.0000000000000D+00
382  3.8100000000000D+00  0.0000000000000D+00  0.0000000000000D+00
383  3.8200000000000D+00  0.0000000000000D+00  0.0000000000000D+00
384  3.8300000000000D+00  0.0000000000000D+00  0.0000000000000D+00
385  3.8400000000000D+00  0.0000000000000D+00  0.0000000000000D+00
386  3.8500000000000D+00  0.0000000000000D+00  0.0000000000000D+00
387  3.8600000000000D+00  0.0000000000000D+00  0.0000000000000D+00
388  3.8700000000000D+00  0.0000000000000D+00  0.0000000000000D+00
389  3.8800000000000D+00  0.0000000000000D+00  0.0000000000000D+00
390  3.8900000000000D+00  0.0000000000000D+00  0.0000000000000D+00
391  3.9000000000000D+00  0.0000000000000D+00  0.0000000000000D+00
392  3.9100000000000D+00  0.0000000000000D+00  0.0000000000000D+00
393  3.9200000000000D+00  0.0000000000000D+00  0.0000000000000D+00
394  3.9300000000000D+00  0.0000000000000D+00  0.0000000000000D+00
395  3.9400000000000D+00  0.0000000000000D+00  0.0000000000000D+00
396  3.9500000000000D+00  0.0000000000000D+00  0.0000000000000D+00
397  3.9600000000000D+00  0.0000000000000D+00  0.0000000000000D+00
398  3.9700000000000D+00  0.0000000000000D+00  0.0000000000000D+00
399  3.9800000000000D+00  0.0000000000000D+00  0.0000000000000D+00
400  3.9900000000000D+00  0.0000000000000D+00  0.0000000000000D+00
401  4.0000000000000D+00  0.0000000000000D+00  0.0000000000000D+00
402  4.0100000000000D+00  0.0000000000000D+00  0.0000000000000D+00
403  4.0200000000000D+00  0.0000000000000D+00  0.0000000000000D+00
404  4.0300000000000D+00  0.0000000000000D+00  0.0000000000000D+00
405  4.0400000000000D+00  0.0000000000000D+00  0.0000000000000D+00
406  4.0500000000000D+00  0.0000000000000D+00  0.0000000000000D+00
407  4.0600000000000D+00  0.0000000000000D+00  0.0000000000000D+00
408  4.0700000000000D+00  0.0000000000000D+00  0.0000000000000D+00
409  4.0800000000000D+00  0.0000000000000D+00  0.0000000000000D+00
410  4.0900000000000D+00  0.0000000000000D+00  0.0000000000000D+00
411  4.1000000000000D+00  0.0000000000000D+00  0.0000000000000D+00
412  4.1100000000000D+00  0.0000000000000D+00  0.0000000000000D+00
413  4.1200000000000D+00  0.0000000000000D+00  0.0000000000000D+00
414  4.1300000000000D+00  0.0000000000000D+00  0.0000000000000D+00
415  4.1400000000000D+00  0.0000000000000D+00  0.0000000000000D+00
416  4.1500000000000D+00  0.0000000000000D+00  0.0000000000000D+00
417  4.1600000000000D+00  0.0000000000000D+00  0.0000000000000D+00
418  4.1700000000000D+00  0.0000000000000D+00  0.0000000000000D+00
419  4.1800000000000D+00  0.0000000000000D+00  0.0000000000000D+00
420  4.1900000000000D+00  0.0000000000000D+00  0.0000000000000D+00
421  4.2000000000000D+00  0.0000000000000D+00  0.0000000000000D+00
422  4.2100000000000D+00  0.0000000000000D+00  0.0000000000000D+00
423  4.2200000000000D+00  0.0000000000000D+00  0.0000000000000D+00
424  4.2300000000000D+00  0.0000000000000D+00  0.0000000000000D+00
425  4.2400000000000D+00  0.0000000000000D+00  0.0000000000000D+00
426  4.2500000000000D+00  0.0000000000000D+00  0.0000000000000D+00
427  4.2600000000000D+00  0.0000000000000D+00  0.0000000000000D+00
428  4.2700000000000D+00  0.0000000000000D+00  0.0000000000000D+00
429  4.2800000000000D+00  0.0000000000000D+00  0.0000000000000D+00
430  4.2900000000000D+00  0.0000000000000D+00  0.0000000000000D+00
431  4.3000000000000D+00  0.0000000000000D+00  0.0000000000000D+00
432  4.3100000000000D+00  0.0000000000000D+00  0.0000000000000D+00
433  4.3200000000000D+00  0.0000000000000D+00  0.0000000000000D+00
434  4.3300000000000D+00  0.0000000000000D+00  0.0000000000000D+00
435  4.3400000000000D+00  0.0000000000000D+00  0.0000000000000D+00
436  4.3500000000000D+00  0.0000000000000D+00  0.0000000000000D+00
437  4.3600000000000D+00  0.0000000000000D+00  0.0000000000000D+00
438  4.3700000000000D+00  0.0000000000000D+00  0.0000000000000D+00
439  4.3800000000000D+00  0.0000000000000D+00  0.0000000000000D+00
440  4.3900000000000D+00  0.0000000000000D+00  0.0000000000000D+00
441  4.4000000000000D+00  0.0000000000000D+00  0.0000000000000D+00
442  4.4100000000000D+00  0.0000000000000D+00  0.0000000000000D+00
443  4.4200000000000D+00  0.0000000000000D+00  0.0000000000000D+00