Hf    ONCVPSP-3.2.3  r_core=   1.55994   1.61677   1.45219   1.61677
72.0000     26.0000      161006    zatom,zion,pspd
8   -1012   3     4   600     0    pspcod,pspxc,lmax,lloc,mmax,r2well
5.99000000  3.00000000  0.00000000    rchrg fchrg qchrg
2     2     2     2     0    nproj
1     1           extension_switch
0                         1.2811838708259D+01  1.4081445364613D+00
1  0.0000000000000D+00 -2.2237817143278D-10  9.9026087330145D-10
2  1.0000000000000D-02  4.9710341554258D-02 -2.3194158838153D-02
3  2.0000000000000D-02  9.9358709885386D-02 -4.6244284895284D-02
4  3.0000000000000D-02  1.4888338824439D-01 -6.9007833328019D-02
5  4.0000000000000D-02  1.9822316890136D-01 -9.1345215177169D-02
6  5.0000000000000D-02  2.4731759788942D-01 -1.1312122558681D-01
7  6.0000000000000D-02  2.9610720818971D-01 -1.3420641306618D-01
8  7.0000000000000D-02  3.4453373776867D-01 -1.5447837131741D-01
9  8.0000000000000D-02  3.9254032910129D-01 -1.7382293614210D-01
10  9.0000000000000D-02  4.4007170708677D-01 -1.9213527115636D-01
11  1.0000000000000D-01  4.8707433258279D-01 -2.0932082747213D-01
12  1.1000000000000D-01  5.3349652914824D-01 -2.2529616412681D-01
13  1.2000000000000D-01  5.7928858098532D-01 -2.3998961784447D-01
14  1.3000000000000D-01  6.2440280050825D-01 -2.5334181266883D-01
15  1.4000000000000D-01  6.6879356442881D-01 -2.6530600209827D-01
16  1.5000000000000D-01  7.1241731773574D-01 -2.7584823855210D-01
17  1.6000000000000D-01  7.5523254544679D-01 -2.8494736727821D-01
18  1.7000000000000D-01  7.9719971252460D-01 -2.9259484414879D-01
19  1.8000000000000D-01  8.3828117286247D-01 -2.9879437915449D-01
20  1.9000000000000D-01  8.7844104875729D-01 -3.0356140976926D-01
21  2.0000000000000D-01  9.1764508278783D-01 -3.0692241068966D-01
22  2.1000000000000D-01  9.5586046449930D-01 -3.0891404872392D-01
23  2.2000000000000D-01  9.9305563475456D-01 -3.0958219379021D-01
24  2.3000000000000D-01  1.0292000710400D+00 -3.0898079904977D-01
25  2.4000000000000D-01  1.0642640574058D+00 -3.0717066512557D-01
26  2.5000000000000D-01  1.0982184430681D+00 -3.0421810511125D-01
27  2.6000000000000D-01  1.1310343939994D+00 -3.0019352863736D-01
28  2.7000000000000D-01  1.1626831420819D+00 -2.9516996460870D-01
29  2.8000000000000D-01  1.1931357365832D+00 -2.8922154333789D-01
30  2.9000000000000D-01  1.2223628028418D+00 -2.8242195965943D-01
31  3.0000000000000D-01  1.2503343131111D+00 -2.7484293920049D-01
32  3.1000000000000D-01  1.2770193745014D+00 -2.6655273029729D-01
33  3.2000000000000D-01  1.3023860388869D+00 -2.5761464407153D-01
34  3.3000000000000D-01  1.3264011394970D+00 -2.4808566491382D-01
35  3.4000000000000D-01  1.3490301586949D+00 -2.3801515305916D-01
36  3.5000000000000D-01  1.3702371311645D+00 -2.2744366008504D-01
37  3.6000000000000D-01  1.3899845863718D+00 -2.1640187702044D-01
38  3.7000000000000D-01  1.4082335337535D+00 -2.0490973333409D-01
39  3.8000000000000D-01  1.4249434936064D+00 -1.9297566338411D-01
40  3.9000000000000D-01  1.4400725761194D+00 -1.8059605497548D-01
41  4.0000000000000D-01  1.4535776104044D+00 -1.6775489250650D-01
42  4.1000000000000D-01  1.4654143247545D+00 -1.5442360481270D-01
43  4.2000000000000D-01  1.4755375786888D+00 -1.4056112526190D-01
44  4.3000000000000D-01  1.4839016466464D+00 -1.2611416894874D-01
45  4.4000000000000D-01  1.4904605524723D+00 -1.1101772900766D-01
46  4.5000000000000D-01  1.4951684531001D+00 -9.5195791147936D-02
47  4.6000000000000D-01  1.4979800691023D+00 -7.8562262545461D-02
48  4.7000000000000D-01  1.4988511590403D+00 -6.1022108240436D-02
49  4.8000000000000D-01  1.4977390338260D+00 -4.2472685227360D-02
50  4.9000000000000D-01  1.4946031066121D+00 -2.2805261519602D-02
51  5.0000000000000D-01  1.4894054730622D+00 -1.9067046655756D-03
52  5.1000000000000D-01  1.4821115162303D+00  2.0338678476162D-02
53  5.2000000000000D-01  1.4726905297144D+00  4.4047171390347D-02
54  5.3000000000000D-01  1.4611163522348D+00  6.9333569963590D-02
55  5.4000000000000D-01  1.4473680063529D+00  9.6309021966957D-02
56  5.5000000000000D-01  1.4314303336827D+00  1.2507881075118D-01
57  5.6000000000000D-01  1.4132946186664D+00  1.5574011141144D-01
58  5.7000000000000D-01  1.3929591927991D+00  1.8837974881268D-01
59  5.8000000000000D-01  1.3704300110893D+00  2.2307198765613D-01
60  5.9000000000000D-01  1.3457211925493D+00  2.5987638518370D-01
61  6.0000000000000D-01  1.3188555166111D+00  2.9883573715155D-01
62  6.1000000000000D-01  1.2898648675735D+00  3.3997414735067D-01
63  6.2000000000000D-01  1.2587906194988D+00  3.8329525019498D-01
64  6.3000000000000D-01  1.2256839543869D+00  4.2878061475578D-01
65  6.4000000000000D-01  1.1906061069742D+00  4.7638835708162D-01
66  6.5000000000000D-01  1.1536285301123D+00  5.2605198572349D-01
67  6.6000000000000D-01  1.1148329753832D+00  5.7767950312031D-01
68  6.7000000000000D-01  1.0743114843991D+00  6.3115278286669D-01
69  6.8000000000000D-01  1.0321662870974D+00  6.8632723995707D-01
70  6.9000000000000D-01  9.8850960427937D-01  7.4303180788518D-01
71  7.0000000000000D-01  9.4346335263457D-01  8.0106923300455D-01
72  7.1000000000000D-01  8.9715875153907D-01  8.6021669287371D-01
73  7.2000000000000D-01  8.4973583199666D-01  9.2022674146689D-01
74  7.3000000000000D-01  8.0134284920083D-01  9.8082858014798D-01
75  7.4000000000000D-01  7.5213560131008D-01  1.0417296492785D+00
76  7.5000000000000D-01  7.0227665815450D-01  1.1026175312283D+00
77  7.6000000000000D-01  6.5193450468975D-01  1.1631621515316D+00
78  7.7000000000000D-01  6.0128260509158D-01  1.2230182609482D+00
79  7.8000000000000D-01  5.5049839441633D-01  1.2818281773537D+00
80  7.9000000000000D-01  4.9976220572979D-01  1.3392247627173D+00
81  8.0000000000000D-01  4.4925614151442D-01  1.3948346069949D+00
82  8.1000000000000D-01  3.9916289899184D-01  1.4482813876127D+00
83  8.2000000000000D-01  3.4966455973041D-01  1.4991893703838D+00
84  8.3000000000000D-01  3.0094135453702D-01  1.5471870152387D+00
85  8.4000000000000D-01  2.5317041514900D-01  1.5919106480784D+00
86  8.5000000000000D-01  2.0652452463461D-01  1.6330081584403D+00
87  8.6000000000000D-01  1.6117087867618D-01  1.6701426814954D+00
88  8.7000000000000D-01  1.1726987003957D-01  1.7029962222199D+00
89  8.8000000000000D-01  7.4973908525271D-02  1.7312731794074D+00
90  8.9000000000000D-01  3.4426288547646D-02  1.7547037275245D+00
91  9.0000000000000D-01 -4.2398838040582D-03  1.7730470152714D+00
92  9.1000000000000D-01 -4.0902692796305D-02  1.7860941410656D+00
93  9.2000000000000D-01 -7.5452333318482D-02  1.7936708675527D+00
94  9.3000000000000D-01 -1.0779193923011D-01  1.7956400395998D+00
95  9.4000000000000D-01 -1.3783831045768D-01  1.7919036730584D+00
96  9.5000000000000D-01 -1.6552253045377D-01  1.7824046848408D+00
97  9.6000000000000D-01 -1.9079046668231D-01  1.7671282385240D+00
98  9.7000000000000D-01 -2.1360314794043D-01  1.7461026837102D+00
99  9.8000000000000D-01 -2.3393701355770D-01  1.7194000717165D+00
100  9.9000000000000D-01 -2.5178403080905D-01  1.6871362347457D+00
101  1.0000000000000D+00 -2.6715167825690D-01  1.6494704205885D+00
102  1.0100000000000D+00 -2.8006279407342D-01  1.6066044796583D+00
103  1.0200000000000D+00 -2.9055528987124D-01  1.5587816064322D+00
104  1.0300000000000D+00 -2.9868173195698D-01  1.5062846423158D+00
105  1.0400000000000D+00 -3.0450879333184D-01  1.4494339520007D+00
106  1.0500000000000D+00 -3.0811658113592D-01  1.3885848902868D+00
107  1.0600000000000D+00 -3.0959784561241D-01  1.3241248812869D+00
108  1.0700000000000D+00 -3.0905707780055D-01  1.2564701359832D+00
109  1.0800000000000D+00 -3.0660950452556D-01  1.1860620389701D+00
110  1.0900000000000D+00 -3.0237999022190D-01  1.1133632386777D+00
111  1.1000000000000D+00 -2.9650185615686D-01  1.0388534790453D+00
112  1.1100000000000D+00 -2.8911562847249D-01  9.6302521363627D-01
113  1.1200000000000D+00 -2.8036772714736D-01  8.8637904560824D-01
114  1.1300000000000D+00 -2.7040910866270D-01  8.0941903934280D-01
115  1.1400000000000D+00 -2.5939387550107D-01  7.3264795072113D-01
116  1.1500000000000D+00 -2.4747786588989D-01  6.5656242396257D-01
117  1.1600000000000D+00 -2.3481723736059D-01  5.8164820345548D-01
118  1.1700000000000D+00 -2.2156705762975D-01  5.0837540864293D-01
119  1.1800000000000D+00 -2.0787991605133D-01  4.3719391900304D-01
120  1.1900000000000D+00 -1.9390456853417D-01  3.6852891476360D-01
121  1.2000000000000D+00 -1.7978462841377D-01  3.0277661741088D-01
122  1.2100000000000D+00 -1.6565731491563D-01  2.4030027081136D-01
123  1.2200000000000D+00 -1.5165226988865D-01  1.8142640014971D-01
124  1.2300000000000D+00 -1.3789045319188D-01  1.2644138475509D-01
125  1.2400000000000D+00 -1.2448312525702D-01  7.5588373895700D-02
126  1.2500000000000D+00 -1.1153092435675D-01  2.9064570922810D-02
127  1.2600000000000D+00 -9.9123044931380D-02 -1.2981093988251D-02
128  1.2700000000000D+00 -8.7336524073944D-02 -5.0449875623441D-02
129  1.2800000000000D+00 -7.6235625792407D-02 -8.3294767280261D-02
130  1.2900000000000D+00 -6.5871413253421D-02 -1.1152126268113D-01
131  1.3000000000000D+00 -5.6281246300653D-02 -1.3518861123575D-01
132  1.3100000000000D+00 -4.7488478580822D-02 -1.5441026972554D-01
133  1.3200000000000D+00 -3.9503655264949D-02 -1.6934676871449D-01
134  1.3300000000000D+00 -3.2325900278468D-02 -1.8019830721220D-01
135  1.3400000000000D+00 -2.5944722024598D-02 -1.8719581360800D-01
136  1.3500000000000D+00 -2.0340506797591D-02 -1.9059902864069D-01
137  1.3600000000000D+00 -1.5485246169986D-02 -1.9069358584826D-01
138  1.3700000000000D+00 -1.1343434297983D-02 -1.8778727927181D-01
139  1.3800000000000D+00 -7.8729803608408D-03 -1.8220639842219D-01
140  1.3900000000000D+00 -5.0261902539059D-03 -1.7429179943319D-01
141  1.4000000000000D+00 -2.7507921379424D-03 -1.6439483359971D-01
142  1.4100000000000D+00 -9.9099620877944D-04 -1.5287316367740D-01
143  1.4200000000000D+00  3.1142440752573D-04 -1.4008651797280D-01
144  1.4300000000000D+00  1.2160447959407D-03 -1.2639243132932D-01
145  1.4400000000000D+00  1.7827043614432D-03 -1.1214202125398D-01
146  1.4500000000000D+00  2.0704409287959D-03 -9.7675847760592D-02
147  1.4600000000000D+00  2.1364557790607D-03 -8.3319905250513D-02
148  1.4700000000000D+00  2.0351211406764D-03 -6.9381789387470D-02
149  1.4800000000000D+00  1.8170437711960D-03 -5.6147089854363D-02
150  1.4900000000000D+00  1.5281928268035D-03 -4.3876039525008D-02
151  1.5000000000000D+00  1.2091062229845D-03 -3.2800473071624D-02
152  1.5100000000000D+00  8.9442378096906D-04 -2.3126261010184D-02
153  1.5200000000000D+00  6.1126305031339D-04 -1.5009562105940D-02
154  1.5300000000000D+00  3.7755760404363D-04 -8.5435922421255D-03
155  1.5400000000000D+00  2.1313138573166D-04 -3.9394200588648D-03
156  1.5500000000000D+00  1.2983601751765D-04 -1.3341605549947D-03
157  1.5600000000000D+00  8.7034656187475D-05 -2.5058432620555D-04
158  1.5700000000000D+00  3.5951910611386D-05  2.5665214667709D-05
159  1.5800000000000D+00 -2.5166056357757D-06 -5.4200418092409D-06
160  1.5900000000000D+00 -6.5921623253984D-06 -2.1372084046637D-05
161  1.6000000000000D+00  8.2781288736002D-07  1.1515394820673D-06
162  1.6100000000000D+00  1.4996771642845D-06  2.6596954380754D-06
163  1.6200000000000D+00 -1.3862372865500D-07  4.0364822244178D-07
164  1.6300000000000D+00 -1.9982165538275D-07  5.8184595655595D-07
165  1.6400000000000D+00  0.0000000000000D+00  0.0000000000000D+00
166  1.6500000000000D+00  0.0000000000000D+00  0.0000000000000D+00
167  1.6600000000000D+00  0.0000000000000D+00  0.0000000000000D+00
168  1.6700000000000D+00  0.0000000000000D+00  0.0000000000000D+00
169  1.6800000000000D+00  0.0000000000000D+00  0.0000000000000D+00
170  1.6900000000000D+00  0.0000000000000D+00  0.0000000000000D+00
171  1.7000000000000D+00  0.0000000000000D+00  0.0000000000000D+00
172  1.7100000000000D+00  0.0000000000000D+00  0.0000000000000D+00
173  1.7200000000000D+00  0.0000000000000D+00  0.0000000000000D+00
174  1.7300000000000D+00  0.0000000000000D+00  0.0000000000000D+00
175  1.7400000000000D+00  0.0000000000000D+00  0.0000000000000D+00
176  1.7500000000000D+00  0.0000000000000D+00  0.0000000000000D+00
177  1.7600000000000D+00  0.0000000000000D+00  0.0000000000000D+00
178  1.7700000000000D+00  0.0000000000000D+00  0.0000000000000D+00
179  1.7800000000000D+00  0.0000000000000D+00  0.0000000000000D+00
180  1.7900000000000D+00  0.0000000000000D+00  0.0000000000000D+00
181  1.8000000000000D+00  0.0000000000000D+00  0.0000000000000D+00
182  1.8100000000000D+00  0.0000000000000D+00  0.0000000000000D+00
183  1.8200000000000D+00  0.0000000000000D+00  0.0000000000000D+00
184  1.8300000000000D+00  0.0000000000000D+00  0.0000000000000D+00
185  1.8400000000000D+00  0.0000000000000D+00  0.0000000000000D+00
186  1.8500000000000D+00  0.0000000000000D+00  0.0000000000000D+00
187  1.8600000000000D+00  0.0000000000000D+00  0.0000000000000D+00
188  1.8700000000000D+00  0.0000000000000D+00  0.0000000000000D+00
189  1.8800000000000D+00  0.0000000000000D+00  0.0000000000000D+00
190  1.8900000000000D+00  0.0000000000000D+00  0.0000000000000D+00
191  1.9000000000000D+00  0.0000000000000D+00  0.0000000000000D+00
192  1.9100000000000D+00  0.0000000000000D+00  0.0000000000000D+00
193  1.9200000000000D+00  0.0000000000000D+00  0.0000000000000D+00
194  1.9300000000000D+00  0.0000000000000D+00  0.0000000000000D+00
195  1.9400000000000D+00  0.0000000000000D+00  0.0000000000000D+00
196  1.9500000000000D+00  0.0000000000000D+00  0.0000000000000D+00
197  1.9600000000000D+00  0.0000000000000D+00  0.0000000000000D+00
198  1.9700000000000D+00  0.0000000000000D+00  0.0000000000000D+00
199  1.9800000000000D+00  0.0000000000000D+00  0.0000000000000D+00
200  1.9900000000000D+00  0.0000000000000D+00  0.0000000000000D+00
201  2.0000000000000D+00  0.0000000000000D+00  0.0000000000000D+00
202  2.0100000000000D+00  0.0000000000000D+00  0.0000000000000D+00
203  2.0200000000000D+00  0.0000000000000D+00  0.0000000000000D+00
204  2.0300000000000D+00  0.0000000000000D+00  0.0000000000000D+00
205  2.0400000000000D+00  0.0000000000000D+00  0.0000000000000D+00
206  2.0500000000000D+00  0.0000000000000D+00  0.0000000000000D+00
207  2.0600000000000D+00  0.0000000000000D+00  0.0000000000000D+00
208  2.0700000000000D+00  0.0000000000000D+00  0.0000000000000D+00
209  2.0800000000000D+00  0.0000000000000D+00  0.0000000000000D+00
210  2.0900000000000D+00  0.0000000000000D+00  0.0000000000000D+00
211  2.1000000000000D+00  0.0000000000000D+00  0.0000000000000D+00
212  2.1100000000000D+00  0.0000000000000D+00  0.0000000000000D+00
213  2.1200000000000D+00  0.0000000000000D+00  0.0000000000000D+00
214  2.1300000000000D+00  0.0000000000000D+00  0.0000000000000D+00
215  2.1400000000000D+00  0.0000000000000D+00  0.0000000000000D+00
216  2.1500000000000D+00  0.0000000000000D+00  0.0000000000000D+00
217  2.1600000000000D+00  0.0000000000000D+00  0.0000000000000D+00
218  2.1700000000000D+00  0.0000000000000D+00  0.0000000000000D+00
219  2.1800000000000D+00  0.0000000000000D+00  0.0000000000000D+00
220  2.1900000000000D+00  0.0000000000000D+00  0.0000000000000D+00
221  2.2000000000000D+00  0.0000000000000D+00  0.0000000000000D+00
222  2.2100000000000D+00  0.0000000000000D+00  0.0000000000000D+00
223  2.2200000000000D+00  0.0000000000000D+00  0.0000000000000D+00
224  2.2300000000000D+00  0.0000000000000D+00  0.0000000000000D+00
225  2.2400000000000D+00  0.0000000000000D+00  0.0000000000000D+00
226  2.2500000000000D+00  0.0000000000000D+00  0.0000000000000D+00
227  2.2600000000000D+00  0.0000000000000D+00  0.0000000000000D+00
228  2.2700000000000D+00  0.0000000000000D+00  0.0000000000000D+00
229  2.2800000000000D+00  0.0000000000000D+00  0.0000000000000D+00
230  2.2900000000000D+00  0.0000000000000D+00  0.0000000000000D+00
231  2.3000000000000D+00  0.0000000000000D+00  0.0000000000000D+00
232  2.3100000000000D+00  0.0000000000000D+00  0.0000000000000D+00
233  2.3200000000000D+00  0.0000000000000D+00  0.0000000000000D+00
234  2.3300000000000D+00  0.0000000000000D+00  0.0000000000000D+00
235  2.3400000000000D+00  0.0000000000000D+00  0.0000000000000D+00
236  2.3500000000000D+00  0.0000000000000D+00  0.0000000000000D+00
237  2.3600000000000D+00  0.0000000000000D+00  0.0000000000000D+00
238  2.3700000000000D+00  0.0000000000000D+00  0.0000000000000D+00
239  2.3800000000000D+00  0.0000000000000D+00  0.0000000000000D+00
240  2.3900000000000D+00  0.0000000000000D+00  0.0000000000000D+00
241  2.4000000000000D+00  0.0000000000000D+00  0.0000000000000D+00
242  2.4100000000000D+00  0.0000000000000D+00  0.0000000000000D+00
243  2.4200000000000D+00  0.0000000000000D+00  0.0000000000000D+00
244  2.4300000000000D+00  0.0000000000000D+00  0.0000000000000D+00
245  2.4400000000000D+00  0.0000000000000D+00  0.0000000000000D+00
246  2.4500000000000D+00  0.0000000000000D+00  0.0000000000000D+00
247  2.4600000000000D+00  0.0000000000000D+00  0.0000000000000D+00
248  2.4700000000000D+00  0.0000000000000D+00  0.0000000000000D+00
249  2.4800000000000D+00  0.0000000000000D+00  0.0000000000000D+00
250  2.4900000000000D+00  0.0000000000000D+00  0.0000000000000D+00
251  2.5000000000000D+00  0.0000000000000D+00  0.0000000000000D+00
252  2.5100000000000D+00  0.0000000000000D+00  0.0000000000000D+00
253  2.5200000000000D+00  0.0000000000000D+00  0.0000000000000D+00
254  2.5300000000000D+00  0.0000000000000D+00  0.0000000000000D+00
255  2.5400000000000D+00  0.0000000000000D+00  0.0000000000000D+00
256  2.5500000000000D+00  0.0000000000000D+00  0.0000000000000D+00
257  2.5600000000000D+00  0.0000000000000D+00  0.0000000000000D+00
258  2.5700000000000D+00  0.0000000000000D+00  0.0000000000000D+00
259  2.5800000000000D+00  0.0000000000000D+00  0.0000000000000D+00
260  2.5900000000000D+00  0.0000000000000D+00  0.0000000000000D+00
261  2.6000000000000D+00  0.0000000000000D+00  0.0000000000000D+00
262  2.6100000000000D+00  0.0000000000000D+00  0.0000000000000D+00
263  2.6200000000000D+00  0.0000000000000D+00  0.0000000000000D+00
264  2.6300000000000D+00  0.0000000000000D+00  0.0000000000000D+00
265  2.6400000000000D+00  0.0000000000000D+00  0.0000000000000D+00
266  2.6500000000000D+00  0.0000000000000D+00  0.0000000000000D+00
267  2.6600000000000D+00  0.0000000000000D+00  0.0000000000000D+00
268  2.6700000000000D+00  0.0000000000000D+00  0.0000000000000D+00
269  2.6800000000000D+00  0.0000000000000D+00  0.0000000000000D+00
270  2.6900000000000D+00  0.0000000000000D+00  0.0000000000000D+00
271  2.7000000000000D+00  0.0000000000000D+00  0.0000000000000D+00
272  2.7100000000000D+00  0.0000000000000D+00  0.0000000000000D+00
273  2.7200000000000D+00  0.0000000000000D+00  0.0000000000000D+00
274  2.7300000000000D+00  0.0000000000000D+00  0.0000000000000D+00
275  2.7400000000000D+00  0.0000000000000D+00  0.0000000000000D+00
276  2.7500000000000D+00  0.0000000000000D+00  0.0000000000000D+00
277  2.7600000000000D+00  0.0000000000000D+00  0.0000000000000D+00
278  2.7700000000000D+00  0.0000000000000D+00  0.0000000000000D+00
279  2.7800000000000D+00  0.0000000000000D+00  0.0000000000000D+00
280  2.7900000000000D+00  0.0000000000000D+00  0.0000000000000D+00
281  2.8000000000000D+00  0.0000000000000D+00  0.0000000000000D+00
282  2.8100000000000D+00  0.0000000000000D+00  0.0000000000000D+00
283  2.8200000000000D+00  0.0000000000000D+00  0.0000000000000D+00
284  2.8300000000000D+00  0.0000000000000D+00  0.0000000000000D+00
285  2.8400000000000D+00  0.0000000000000D+00  0.0000000000000D+00
286  2.8500000000000D+00  0.0000000000000D+00  0.0000000000000D+00
287  2.8600000000000D+00  0.0000000000000D+00  0.0000000000000D+00
288  2.8700000000000D+00  0.0000000000000D+00  0.0000000000000D+00
289  2.8800000000000D+00  0.0000000000000D+00  0.0000000000000D+00
290  2.8900000000000D+00  0.0000000000000D+00  0.0000000000000D+00
291  2.9000000000000D+00  0.0000000000000D+00  0.0000000000000D+00
292  2.9100000000000D+00  0.0000000000000D+00  0.0000000000000D+00
293  2.9200000000000D+00  0.0000000000000D+00  0.0000000000000D+00
294  2.9300000000000D+00  0.0000000000000D+00  0.0000000000000D+00
295  2.9400000000000D+00  0.0000000000000D+00  0.0000000000000D+00
296  2.9500000000000D+00  0.0000000000000D+00  0.0000000000000D+00
297  2.9600000000000D+00  0.0000000000000D+00  0.0000000000000D+00
298  2.9700000000000D+00  0.0000000000000D+00  0.0000000000000D+00
299  2.9800000000000D+00  0.0000000000000D+00  0.0000000000000D+00
300  2.9900000000000D+00  0.0000000000000D+00  0.0000000000000D+00
301  3.0000000000000D+00  0.0000000000000D+00  0.0000000000000D+00
302  3.0100000000000D+00  0.0000000000000D+00  0.0000000000000D+00
303  3.0200000000000D+00  0.0000000000000D+00  0.0000000000000D+00
304  3.0300000000000D+00  0.0000000000000D+00  0.0000000000000D+00
305  3.0400000000000D+00  0.0000000000000D+00  0.0000000000000D+00
306  3.0500000000000D+00  0.0000000000000D+00  0.0000000000000D+00
307  3.0600000000000D+00  0.0000000000000D+00  0.0000000000000D+00
308  3.0700000000000D+00  0.0000000000000D+00  0.0000000000000D+00
309  3.0800000000000D+00  0.0000000000000D+00  0.0000000000000D+00
310  3.0900000000000D+00  0.0000000000000D+00  0.0000000000000D+00
311  3.1000000000000D+00  0.0000000000000D+00  0.0000000000000D+00
312  3.1100000000000D+00  0.0000000000000D+00  0.0000000000000D+00
313  3.1200000000000D+00  0.0000000000000D+00  0.0000000000000D+00
314  3.1300000000000D+00  0.0000000000000D+00  0.0000000000000D+00
315  3.1400000000000D+00  0.0000000000000D+00  0.0000000000000D+00
316  3.1500000000000D+00  0.0000000000000D+00  0.0000000000000D+00
317  3.1600000000000D+00  0.0000000000000D+00  0.0000000000000D+00
318  3.1700000000000D+00  0.0000000000000D+00  0.0000000000000D+00
319  3.1800000000000D+00  0.0000000000000D+00  0.0000000000000D+00
320  3.1900000000000D+00  0.0000000000000D+00  0.0000000000000D+00
321  3.2000000000000D+00  0.0000000000000D+00  0.0000000000000D+00
322  3.2100000000000D+00  0.0000000000000D+00  0.0000000000000D+00
323  3.2200000000000D+00  0.0000000000000D+00  0.0000000000000D+00
324  3.2300000000000D+00  0.0000000000000D+00  0.0000000000000D+00
325  3.2400000000000D+00  0.0000000000000D+00  0.0000000000000D+00
326  3.2500000000000D+00  0.0000000000000D+00  0.0000000000000D+00
327  3.2600000000000D+00  0.0000000000000D+00  0.0000000000000D+00
328  3.2700000000000D+00  0.0000000000000D+00  0.0000000000000D+00
329  3.2800000000000D+00  0.0000000000000D+00  0.0000000000000D+00
330  3.2900000000000D+00  0.0000000000000D+00  0.0000000000000D+00
331  3.3000000000000D+00  0.0000000000000D+00  0.0000000000000D+00
332  3.3100000000000D+00  0.0000000000000D+00  0.0000000000000D+00
333  3.3200000000000D+00  0.0000000000000D+00  0.0000000000000D+00
334  3.3300000000000D+00  0.0000000000000D+00  0.0000000000000D+00
335  3.3400000000000D+00  0.0000000000000D+00  0.0000000000000D+00
336  3.3500000000000D+00  0.0000000000000D+00  0.0000000000000D+00
337  3.3600000000000D+00  0.0000000000000D+00  0.0000000000000D+00
338  3.3700000000000D+00  0.0000000000000D+00  0.0000000000000D+00
339  3.3800000000000D+00  0.0000000000000D+00  0.0000000000000D+00
340  3.3900000000000D+00  0.0000000000000D+00  0.0000000000000D+00
341  3.4000000000000D+00  0.0000000000000D+00  0.0000000000000D+00
342  3.4100000000000D+00  0.0000000000000D+00  0.0000000000000D+00
343  3.4200000000000D+00  0.0000000000000D+00  0.0000000000000D+00
344  3.4300000000000D+00  0.0000000000000D+00  0.0000000000000D+00
345  3.4400000000000D+00  0.0000000000000D+00  0.0000000000000D+00
346  3.4500000000000D+00  0.0000000000000D+00  0.0000000000000D+00
347  3.4600000000000D+00  0.0000000000000D+00  0.0000000000000D+00
348  3.4700000000000D+00  0.0000000000000D+00  0.0000000000000D+00
349  3.4800000000000D+00  0.0000000000000D+00  0.0000000000000D+00
350  3.4900000000000D+00  0.0000000000000D+00  0.0000000000000D+00
351  3.5000000000000D+00  0.0000000000000D+00  0.0000000000000D+00
352  3.5100000000000D+00  0.0000000000000D+00  0.0000000000000D+00
353  3.5200000000000D+00  0.0000000000000D+00  0.0000000000000D+00
354  3.5300000000000D+00  0.0000000000000D+00  0.0000000000000D+00
355  3.5400000000000D+00  0.0000000000000D+00  0.0000000000000D+00
356  3.5500000000000D+00  0.0000000000000D+00  0.0000000000000D+00
357  3.5600000000000D+00  0.0000000000000D+00  0.0000000000000D+00
358  3.5700000000000D+00  0.0000000000000D+00  0.0000000000000D+00
359  3.5800000000000D+00  0.0000000000000D+00  0.0000000000000D+00
360  3.5900000000000D+00  0.0000000000000D+00  0.0000000000000D+00
361  3.6000000000000D+00  0.0000000000000D+00  0.0000000000000D+00
362  3.6100000000000D+00  0.0000000000000D+00  0.0000000000000D+00
363  3.6200000000000D+00  0.0000000000000D+00  0.0000000000000D+00
364  3.6300000000000D+00  0.0000000000000D+00  0.0000000000000D+00
365  3.6400000000000D+00  0.0000000000000D+00  0.0000000000000D+00
366  3.6500000000000D+00  0.0000000000000D+00  0.0000000000000D+00
367  3.6600000000000D+00  0.0000000000000D+00  0.0000000000000D+00
368  3.6700000000000D+00  0.0000000000000D+00  0.0000000000000D+00
369  3.6800000000000D+00  0.0000000000000D+00  0.0000000000000D+00
370  3.6900000000000D+00  0.0000000000000D+00  0.0000000000000D+00
371  3.7000000000000D+00  0.0000000000000D+00  0.0000000000000D+00
372  3.7100000000000D+00  0.0000000000000D+00  0.0000000000000D+00
373  3.7200000000000D+00  0.0000000000000D+00  0.0000000000000D+00
374  3.7300000000000D+00  0.0000000000000D+00  0.0000000000000D+00
375  3.7400000000000D+00  0.0000000000000D+00  0.0000000000000D+00
376  3.7500000000000D+00  0.0000000000000D+00  0.0000000000000D+00
377  3.7600000000000D+00  0.0000000000000D+00  0.0000000000000D+00
378  3.7700000000000D+00  0.0000000000000D+00  0.0000000000000D+00
379  3.7800000000000D+00  0.0000000000000D+00  0.0000000000000D+00
380  3.7900000000000D+00  0.0000000000000D+00  0.0000000000000D+00
381  3.8000000000000D+00  0.0000000000000D+00  0.0000000000000D+00
382  3.8100000000000D+00  0.0000000000000D+00  0.0000000000000D+00
383  3.8200000000000D+00  0.0000000000000D+00  0.0000000000000D+00
384  3.8300000000000D+00  0.0000000000000D+00  0.0000000000000D+00
385  3.8400000000000D+00  0.0000000000000D+00  0.0000000000000D+00
386  3.8500000000000D+00  0.0000000000000D+00  0.0000000000000D+00
387  3.8600000000000D+00  0.0000000000000D+00  0.0000000000000D+00
388  3.8700000000000D+00  0.0000000000000D+00  0.0000000000000D+00
389  3.8800000000000D+00  0.0000000000000D+00  0.0000000000000D+00
390  3.8900000000000D+00  0.0000000000000D+00  0.0000000000000D+00
391  3.9000000000000D+00  0.0000000000000D+00  0.0000000000000D+00
392  3.9100000000000D+00  0.0000000000000D+00  0.0000000000000D+00
393  3.9200000000000D+00  0.0000000000000D+00  0.0000000000000D+00
394  3.9300000000000D+00  0.0000000000000D+00  0.0000000000000D+00
395  3.9400000000000D+00  0.0000000000000D+00  0.0000000000000D+00
396  3.9500000000000D+00  0.0000000000000D+00  0.0000000000000D+00
397  3.9600000000000D+00  0.0000000000000D+00  0.0000000000000D+00
398  3.9700000000000D+00  0.0000000000000D+00  0.0000000000000D+00
399  3.9800000000000D+00  0.0000000000000D+00  0.0000000000000D+00
400  3.9900000000000D+00  0.0000000000000D+00  0.0000000000000D+00
401  4.0000000000000D+00  0.0000000000000D+00  0.0000000000000D+00
402  4.0100000000000D+00  0.0000000000000D+00  0.0000000000000D+00
403  4.0200000000000D+00  0.0000000000000D+00  0.0000000000000D+00
404  4.0300000000000D+00  0.0000000000000D+00  0.0000000000000D+00
405  4.0400000000000D+00  0.0000000000000D+00  0.0000000000000D+00
406  4.0500000000000D+00  0.0000000000000D+00  0.0000000000000D+00
407  4.0600000000000D+00  0.0000000000000D+00  0.0000000000000D+00
408  4.0700000000000D+00  0.0000000000000D+00  0.0000000000000D+00
409  4.0800000000000D+00  0.0000000000000D+00  0.0000000000000D+00
410  4.0900000000000D+00  0.0000000000000D+00  0.0000000000000D+00
411  4.1000000000000D+00  0.0000000000000D+00  0.0000000000000D+00
412  4.1100000000000D+00  0.0000000000000D+00  0.0000000000000D+00
413  4.1200000000000D+00  0.0000000000000D+00  0.0000000000000D+00
414  4.1300000000000D+00  0.0000000000000D+00  0.0000000000000D+00
415  4.1400000000000D+00  0.0000000000000D+00  0.0000000000000D+00
416  4.1500000000000D+00  0.0000000000000D+00  0.0000000000000D+00
417  4.1600000000000D+00  0.0000000000000D+00  0.0000000000000D+00
418  4.1700000000000D+00  0.0000000000000D+00  0.0000000000000D+00
419  4.1800000000000D+00  0.0000000000000D+00  0.0000000000000D+00
420  4.1900000000000D+00  0.0000000000000D+00  0.0000000000000D+00
421  4.2000000000000D+00  0.0000000000000D+00  0.0000000000000D+00
422  4.2100000000000D+00  0.0000000000000D+00  0.0000000000000D+00
423  4.2200000000000D+00  0.0000000000000D+00  0.0000000000000D+00
424  4.2300000000000D+00  0.0000000000000D+00  0.0000000000000D+00
425  4.2400000000000D+00  0.0000000000000D+00  0.0000000000000D+00
426  4.2500000000000D+00  0.0000000000000D+00  0.0000000000000D+00
427  4.2600000000000D+00  0.0000000000000D+00  0.0000000000000D+00
428  4.2700000000000D+00  0.0000000000000D+00  0.0000000000000D+00
429  4.2800000000000D+00  0.0000000000000D+00  0.0000000000000D+00
430  4.2900000000000D+00  0.0000000000000D+00  0.0000000000000D+00
431  4.3000000000000D+00  0.0000000000000D+00  0.0000000000000D+00
432  4.3100000000000D+00  0.0000000000000D+00  0.0000000000000D+00
433  4.3200000000000D+00  0.0000000000000D+00  0.0000000000000D+00
434  4.3300000000000D+00  0.0000000000000D+00  0.0000000000000D+00
435  4.3400000000000D+00  0.0000000000000D+00  0.0000000000000D+00
436  4.3500000000000D+00  0.0000000000000D+00  0.0000000000000D+00
437  4.3600000000000D+00  0.0000000000000D+00  0.0000000000000D+00
438  4.3700000000000D+00  0.0000000000000D+00  0.0000000000000D+00
439  4.3800000000000D+00  0.0000000000000D+00  0.0000000000000D+00
440  4.3900000000000D+00  0.0000000000000D+00  0.0000000000000D+00
441  4.4000000000000D+00  0.0000000000000D+00  0.0000000000000D+00
442  4.4100000000000D+00  0.0000000000000D+00  0.0000000000000D+00
443  4.4200000000000D+00  0.0000000000000D+00  0.0000000000000D+00