Sm    ONCVPSP-3.2.3.1  r_core=   2.11541   1.90007   1.90007   2.41202
62.0000     11.0000      170524    zatom,zion,pspd
8      11   3     4   600     0    pspcod,pspxc,lmax,lloc,mmax,r2well
5.99000000  5.40000000  0.00000000    rchrg fchrg qchrg
2     2     2     1     0    nproj
1     1           extension_switch
0                        -1.4207497011484D+01  1.4870836793363D+00
1  0.0000000000000D+00  1.3738798987362D-10  1.2292494799837D-10
2  1.0000000000000D-02 -5.1407929458435D-02  6.3715473077578D-03
3  2.0000000000000D-02 -1.0267774050938D-01  1.2815878745744D-02
4  3.0000000000000D-02 -1.5367203942723D-01  1.9405198135123D-02
5  4.0000000000000D-02 -2.0425487693463D-01  2.6210552976440D-02
6  5.0000000000000D-02 -2.5429245817287D-01  3.3301267001812D-02
7  6.0000000000000D-02 -3.0365383806532D-01  4.0744385494720D-02
8  7.0000000000000D-02 -3.5221159736712D-01  4.8604137488344D-02
9  8.0000000000000D-02 -3.9984249483130D-01  5.6941418830438D-02
10  9.0000000000000D-02 -4.4642809109172D-01  6.5813299950851D-02
11  1.0000000000000D-01 -4.9185534006409D-01  7.5272561987869D-02
12  1.1000000000000D-01 -5.3601714389724D-01  8.5367264723090D-02
13  1.2000000000000D-01 -5.7881286776591D-01  9.6140349542788D-02
14  1.3000000000000D-01 -6.2014881108193D-01  1.0762928038869D-01
15  1.4000000000000D-01 -6.5993863200969D-01  1.1986572538421D-01
16  1.5000000000000D-01 -6.9810372250420D-01  1.3287528152600D-01
17  1.6000000000000D-01 -7.3457353144074D-01  1.4667724451650D-01
18  1.7000000000000D-01 -7.6928583377402D-01  1.6128442548453D-01
19  1.8000000000000D-01 -8.0218694404725D-01  1.7670301599877D-01
20  1.9000000000000D-01 -8.3323187296696D-01  1.9293250242671D-01
21  2.0000000000000D-01 -8.6238442616220D-01  2.0996563033203D-01
22  2.1000000000000D-01 -8.8961724465742D-01  2.2778841923739D-01
23  2.2000000000000D-01 -9.1491178700047D-01  2.4638022771250D-01
24  2.3000000000000D-01 -9.3825825340085D-01  2.6571386837890D-01
25  2.4000000000000D-01 -9.5965545264324D-01  2.8575577205831D-01
26  2.5000000000000D-01 -9.7911061294624D-01  3.0646619993138D-01
27  2.6000000000000D-01 -9.9663913833260D-01  3.2779950222197D-01
28  2.7000000000000D-01 -1.0122643124615D+00  3.4970442158073D-01
29  2.8000000000000D-01 -1.0260169522450D+00  3.7212443901352D-01
30  2.9000000000000D-01 -1.0379350139233D+00  3.9499815988662D-01
31  3.0000000000000D-01 -1.0480631546111D+00  4.1825973724566D-01
32  3.1000000000000D-01 -1.0564522526363D+00  4.4183932940859D-01
33  3.2000000000000D-01 -1.0631588902868D+00  4.6566358853912D-01
34  3.3000000000000D-01 -1.0682448028403D+00  4.8965617667590D-01
35  3.4000000000000D-01 -1.0717762979909D+00  5.1373830548678D-01
36  3.5000000000000D-01 -1.0738236499920D+00  5.3782929583856D-01
37  3.6000000000000D-01 -1.0744604730100D+00  5.6184715312076D-01
38  3.7000000000000D-01 -1.0737630783301D+00  5.8570915413979D-01
39  3.8000000000000D-01 -1.0718098201616D+00  6.0933244130710D-01
40  3.9000000000000D-01 -1.0686804348731D+00  6.3263461978258D-01
41  4.0000000000000D-01 -1.0644553785252D+00  6.5553435320346D-01
42  4.1000000000000D-01 -1.0592151675814D+00  6.7795195362858D-01
43  4.2000000000000D-01 -1.0530397276485D+00  6.9980996135917D-01
44  4.3000000000000D-01 -1.0460077550372D+00  7.2103371035916D-01
45  4.4000000000000D-01 -1.0381960958425D+00  7.4155187509079D-01
46  4.5000000000000D-01 -1.0296791471098D+00  7.6129699470366D-01
47  4.6000000000000D-01 -1.0205282844967D+00  7.8020597066683D-01
48  4.7000000000000D-01 -1.0108113206482D+00  7.9822053411351D-01
49  4.8000000000000D-01 -1.0005919982791D+00  8.1528767937369D-01
50  4.9000000000000D-01 -9.8992952170997D-01  8.3136006040213D-01
51  5.0000000000000D-01 -9.7887813032637D-01  8.4639634706446D-01
52  5.1000000000000D-01 -9.6748671712785D-01  8.6036153852138D-01
53  5.2000000000000D-01 -9.5579849521212D-01  8.7322723124849D-01
54  5.3000000000000D-01 -9.4385071469388D-01  8.8497183954473D-01
55  5.4000000000000D-01 -9.3167443219653D-01  8.9558076671359D-01
56  5.5000000000000D-01 -9.1929433467730D-01  9.0504652544617D-01
57  5.6000000000000D-01 -9.0672861895643D-01  9.1336880629078D-01
58  5.7000000000000D-01 -8.9398892791968D-01  9.2055449345903D-01
59  5.8000000000000D-01 -8.8108034395709D-01  9.2661762758850D-01
60  5.9000000000000D-01 -8.6800143978685D-01  9.3157931545725D-01
61  6.0000000000000D-01 -8.5474438640077D-01  9.3546758702042D-01
62  6.1000000000000D-01 -8.4129511745313D-01  9.3831720051405D-01
63  6.2000000000000D-01 -8.2763354900729D-01  9.4016939674016D-01
64  6.3000000000000D-01 -8.1373385315085D-01  9.4107160401173D-01
65  6.4000000000000D-01 -7.9956478359783D-01  9.4107709559001D-01
66  6.5000000000000D-01 -7.8509005101641D-01  9.4024460178881D-01
67  6.6000000000000D-01 -7.7026874545354D-01  9.3863787925076D-01
68  6.7000000000000D-01 -7.5505580288054D-01  9.3632524021209D-01
69  6.8000000000000D-01 -7.3940251255464D-01  9.3337904486721D-01
70  6.9000000000000D-01 -7.2325706158429D-01  9.2987516021917D-01
71  7.0000000000000D-01 -7.0656511280348D-01  9.2589238905342D-01
72  7.1000000000000D-01 -6.8927041180376D-01  9.2151187290067D-01
73  7.2000000000000D-01 -6.7131541874357D-01  9.1681647305671D-01
74  7.3000000000000D-01 -6.5264196035466D-01  9.1189013390334D-01
75  7.4000000000000D-01 -6.3319189739680D-01  9.0681723292125D-01
76  7.5000000000000D-01 -6.1290780267504D-01  9.0168192190395D-01
77  7.6000000000000D-01 -5.9173364462986D-01  8.9656746397023D-01
78  7.7000000000000D-01 -5.6961547144049D-01  8.9155557102909D-01
79  7.8000000000000D-01 -5.4650209054526D-01  8.8672574637799D-01
80  7.9000000000000D-01 -5.2234573848220D-01  8.8215463710896D-01
81  8.0000000000000D-01 -4.9710273598564D-01  8.7791540096057D-01
82  8.1000000000000D-01 -4.7073412334305D-01  8.7407709218506D-01
83  8.2000000000000D-01 -4.4320627111805D-01  8.7070407090049D-01
84  8.3000000000000D-01 -4.1449146148139D-01  8.6785544026762D-01
85  8.4000000000000D-01 -3.8456843555991D-01  8.6558451567200D-01
86  8.5000000000000D-01 -3.5342290241433D-01  8.6393832990249D-01
87  8.6000000000000D-01 -3.2104800548687D-01  8.6295717810194D-01
88  8.7000000000000D-01 -2.8744474262078D-01  8.6267420602272D-01
89  8.8000000000000D-01 -2.5262233604051D-01  8.6311504485300D-01
90  8.9000000000000D-01 -2.1659854899561D-01  8.6429749558853D-01
91  9.0000000000000D-01 -1.7939994610835D-01  8.6623126561315D-01
92  9.1000000000000D-01 -1.4106209482414D-01  8.6891775981971D-01
93  9.2000000000000D-01 -1.0162970574274D-01  8.7234992825419D-01
94  9.3000000000000D-01 -6.1156710003348D-02  8.7651217190211D-01
95  9.4000000000000D-01 -1.9706272307755D-02  8.8138030785890D-01
96  9.5000000000000D-01  2.2649261413794D-02  8.8692159474014D-01
97  9.6000000000000D-01  6.5828482251582D-02  8.9309481878622D-01
98  9.7000000000000D-01  1.0974110261312D-01  8.9985044072756D-01
99  9.8000000000000D-01  1.5428820624181D-01  9.0713080305712D-01
100  9.9000000000000D-01  1.9936256320053D-01  9.1487039696317D-01
101  1.0000000000000D+00  2.4484900861812D-01  9.2299618776917D-01
102  1.0100000000000D+00  2.9062488356066D-01  9.3142799733062D-01
103  1.0200000000000D+00  3.3656053596336D-01  9.4007894145068D-01
104  1.0300000000000D+00  3.8251987912915D-01  9.4885591998559D-01
105  1.0400000000000D+00  4.2836100492226D-01  9.5766015696841D-01
106  1.0500000000000D+00  4.7393684836295D-01  9.6638778769614D-01
107  1.0600000000000D+00  5.1909589997972D-01  9.7493048940903D-01
108  1.0700000000000D+00  5.6368296192157D-01  9.8317615187082D-01
109  1.0800000000000D+00  6.0753994349633D-01  9.9100958385507D-01
110  1.0900000000000D+00  6.5050669152354D-01  9.9831325129280D-01
111  1.1000000000000D+00  6.9242185059303D-01  1.0049680425696D+00
112  1.1100000000000D+00  7.3312374808536D-01  1.0108540562496D+00
113  1.1200000000000D+00  7.7245129859978D-01  1.0158514063172D+00
114  1.1300000000000D+00  8.1024492225539D-01  1.0198410398663D+00
115  1.1400000000000D+00  8.4634747119221D-01  1.0227055620456D+00
116  1.1500000000000D+00  8.8060515846882D-01  1.0243300629554D+00
117  1.1600000000000D+00  9.1286848350116D-01  1.0246029411479D+00
118  1.1700000000000D+00  9.4299314814950D-01  1.0234167183553D+00
119  1.1800000000000D+00  9.7084095754322D-01  1.0206688400571D+00
120  1.1900000000000D+00  9.9628069978614D-01  1.0162624565539D+00
121  1.2000000000000D+00  1.0191889987863D+00  1.0101071793145D+00
122  1.2100000000000D+00  1.0394511345088D+00  1.0021198074111D+00
123  1.2200000000000D+00  1.0569618251480D+00  9.9222501905220D-01
124  1.2300000000000D+00  1.0716259659216D+00  9.8035602341044D-01
125  1.2400000000000D+00  1.0833593193735D+00  9.6645516811722D-01
126  1.2500000000000D+00  1.0920891522931D+00  9.5047449800240D-01
127  1.2600000000000D+00  1.0977548147894D+00  9.3237626105663D-01
128  1.2700000000000D+00  1.1003082572872D+00  9.1213335780542D-01
129  1.2800000000000D+00  1.0997144814417D+00  8.8972973049729D-01
130  1.2900000000000D+00  1.0959519216693D+00  8.6516068915563D-01
131  1.3000000000000D+00  1.0890127541573D+00  8.3843317169457D-01
132  1.3100000000000D+00  1.0789031305178D+00  8.0956593558069D-01
133  1.3200000000000D+00  1.0656433342017D+00  7.7858967939348D-01
134  1.3300000000000D+00  1.0492678577207D+00  7.4554709257847D-01
135  1.3400000000000D+00  1.0298253993300D+00  7.1049283223807D-01
136  1.3500000000000D+00  1.0073787788328D+00  6.7349342673527D-01
137  1.3600000000000D+00  9.8200477171719D-01  6.3462710546696D-01
138  1.3700000000000D+00  9.5379386215022D-01  5.9398355537090D-01
139  1.3800000000000D+00  9.2284991585581D-01  5.5166360518836D-01
140  1.3900000000000D+00  8.8928977336810D-01  5.0777883801408D-01
141  1.4000000000000D+00  8.5324276634251D-01  4.6245113466862D-01
142  1.4100000000000D+00  8.1485015858817D-01  4.1581214949532D-01
143  1.4200000000000D+00  7.7426451457041D-01  3.6800272117716D-01
144  1.4300000000000D+00  7.3164899927399D-01  3.1917222220500D-01
145  1.4400000000000D+00  6.8717661193062D-01  2.6947784936970D-01
146  1.4500000000000D+00  6.4102935894499D-01  2.1908386022238D-01
147  1.4600000000000D+00  5.9339736962605D-01  1.6816075887694D-01
148  1.4700000000000D+00  5.4447795994264D-01  1.1688443599528D-01
149  1.4800000000000D+00  4.9447464974521D-01  6.5435267990229D-02
150  1.4900000000000D+00  4.4359613832213D-01  1.3997179971101D-02
151  1.5000000000000D+00  3.9205524503623D-01 -3.7243321359089D-02
152  1.5100000000000D+00  3.4006782012168D-01 -8.8098140137709D-02
153  1.5200000000000D+00  2.8785163273245D-01 -1.3837860259150D-01
154  1.5300000000000D+00  2.3562524205063D-01 -1.8789648173349D-01
155  1.5400000000000D+00  1.8360685838306D-01 -2.3646502913712D-01
156  1.5500000000000D+00  1.3201320054838D-01 -2.8390000799453D-01
157  1.5600000000000D+00  8.1058356512903D-02 -3.3002072105328D-01
158  1.5700000000000D+00  3.0952653367909D-02 -3.7465102785895D-01
159  1.5800000000000D+00 -1.8098455978662D-02 -4.1762034451023D-01
160  1.5900000000000D+00 -6.5895484245866D-02 -4.5876462124469D-01
161  1.6000000000000D+00 -1.1224597135876D-01 -4.9792729048374D-01
162  1.6100000000000D+00 -1.5696551220803D-01 -5.3496018176808D-01
163  1.6200000000000D+00 -1.9987874245870D-01 -5.6972439610187D-01
164  1.6300000000000D+00 -2.4082027933039D-01 -6.0209113694446D-01
165  1.6400000000000D+00 -2.7963560969441D-01 -6.3194249082275D-01
166  1.6500000000000D+00 -3.1618192316522D-01 -6.5917215549571D-01
167  1.6600000000000D+00 -3.5032888335232D-01 -6.8368610941295D-01
168  1.6700000000000D+00 -3.8195933575334D-01 -7.0540322113688D-01
169  1.6800000000000D+00 -4.1096994643626D-01 -7.2425579338381D-01
170  1.6900000000000D+00 -4.3727177100195D-01 -7.4019004128292D-01
171  1.7000000000000D+00 -4.6079074889686D-01 -7.5316650036388D-01
172  1.7100000000000D+00 -4.8146812396926D-01 -7.6316036516184D-01
173  1.7200000000000D+00 -4.9926078695935D-01 -7.7016175452648D-01
174  1.7300000000000D+00 -5.1414154279204D-01 -7.7417590634029D-01
175  1.7400000000000D+00 -5.2609929845673D-01 -7.7522329782322D-01
176  1.7500000000000D+00 -5.3513917702630D-01 -7.7333969659419D-01
177  1.7600000000000D+00 -5.4128255301091D-01 -7.6857613813032D-01
178  1.7700000000000D+00 -5.4456701801929D-01 -7.6099883793287D-01
179  1.7800000000000D+00 -5.4504627063360D-01 -7.5068903286333D-01
180  1.7900000000000D+00 -5.4278994347275D-01 -7.3774276362571D-01
181  1.8000000000000D+00 -5.3788335959095D-01 -7.2227059125419D-01
182  1.8100000000000D+00 -5.3042723517919D-01 -7.0439726323297D-01
183  1.8200000000000D+00 -5.2053731976989D-01 -6.8426132125420D-01
184  1.8300000000000D+00 -5.0834399221686D-01 -6.6201466742035D-01
185  1.8400000000000D+00 -4.9399182829031D-01 -6.3782210463147D-01
186  1.8500000000000D+00 -4.7763902554610D-01 -6.1186073955558D-01
187  1.8600000000000D+00 -4.5945710227818D-01 -5.8431965115020D-01
188  1.8700000000000D+00 -4.3962995226331D-01 -5.5539894036856D-01
189  1.8800000000000D+00 -4.1835321874497D-01 -5.2530908280237D-01
190  1.8900000000000D+00 -3.9583477164645D-01 -4.9427134821361D-01
191  1.9000000000000D+00 -3.7229456117007D-01 -4.6251763140331D-01
192  1.9100000000000D+00 -3.4795957714449D-01 -4.3028552366119D-01
193  1.9200000000000D+00 -3.2306077593848D-01 -3.9781526724518D-01
194  1.9300000000000D+00 -2.9782954040854D-01 -3.6534639777045D-01
195  1.9400000000000D+00 -2.7249214985726D-01 -3.3311241934616D-01
196  1.9500000000000D+00 -2.4726866670709D-01 -3.0133978771777D-01
197  1.9600000000000D+00 -2.2237263867786D-01 -2.7024770299462D-01
198  1.9700000000000D+00 -1.9801010617420D-01 -2.4004722560440D-01
199  1.9800000000000D+00 -1.7437778787462D-01 -2.1093957269156D-01
200  1.9900000000000D+00 -1.5166230133091D-01 -1.8311543316541D-01
201  2.0000000000000D+00 -1.3003895588216D-01 -1.5675385913630D-01
202  2.0100000000000D+00 -1.0967076280766D-01 -1.3202136714139D-01
203  2.0200000000000D+00 -9.0707509171303D-02 -1.0907109672790D-01
204  2.0300000000000D+00 -7.3284909139810D-02 -8.8042040524835D-02
205  2.0400000000000D+00 -5.7523831371636D-02 -6.9058344179739D-02
206  2.0500000000000D+00 -4.3541753073274D-02 -5.2243295236203D-02
207  2.0600000000000D+00 -3.1401426726277D-02 -3.7657743613868D-02
208  2.0700000000000D+00 -2.1140060089587D-02 -2.5335808836503D-02
209  2.0800000000000D+00 -1.2867126088753D-02 -1.5401340271234D-02
210  2.0900000000000D+00 -6.7473016100125D-03 -8.0475506103972D-03
211  2.1000000000000D+00 -2.8502571093465D-03 -3.3555187357490D-03
212  2.1100000000000D+00 -7.4740748156466D-04 -8.2381383969572D-04
213  2.1200000000000D+00  8.8297923907259D-05  1.6746292254725D-04
214  2.1300000000000D+00  1.9602598942410D-04  2.6695280209921D-04
215  2.1400000000000D+00  1.5950717500464D-05  2.1066219267946D-05
216  2.1500000000000D+00 -7.6839287347144D-05 -1.0005260463308D-04
217  2.1600000000000D+00 -5.2600588468056D-05 -6.7963704313865D-05
218  2.1700000000000D+00  6.4021486082926D-06  8.5486385551739D-06
219  2.1800000000000D+00  1.3744622080386D-05  1.8224394414938D-05
220  2.1900000000000D+00  3.9131616962261D-06  5.1626089083374D-06
221  2.2000000000000D+00  4.2372538910909D-07  3.4034656593691D-07
222  2.2100000000000D+00  4.2382166157767D-07  3.4042389433147D-07
223  2.2200000000000D+00  0.0000000000000D+00  0.0000000000000D+00
224  2.2300000000000D+00  0.0000000000000D+00  0.0000000000000D+00
225  2.2400000000000D+00  0.0000000000000D+00  0.0000000000000D+00
226  2.2500000000000D+00  0.0000000000000D+00  0.0000000000000D+00
227  2.2600000000000D+00  0.0000000000000D+00  0.0000000000000D+00
228  2.2700000000000D+00  0.0000000000000D+00  0.0000000000000D+00
229  2.2800000000000D+00  0.0000000000000D+00  0.0000000000000D+00
230  2.2900000000000D+00  0.0000000000000D+00  0.0000000000000D+00
231  2.3000000000000D+00  0.0000000000000D+00  0.0000000000000D+00
232  2.3100000000000D+00  0.0000000000000D+00  0.0000000000000D+00
233  2.3200000000000D+00  0.0000000000000D+00  0.0000000000000D+00
234  2.3300000000000D+00  0.0000000000000D+00  0.0000000000000D+00
235  2.3400000000000D+00  0.0000000000000D+00  0.0000000000000D+00
236  2.3500000000000D+00  0.0000000000000D+00  0.0000000000000D+00
237  2.3600000000000D+00  0.0000000000000D+00  0.0000000000000D+00
238  2.3700000000000D+00  0.0000000000000D+00  0.0000000000000D+00
239  2.3800000000000D+00  0.0000000000000D+00  0.0000000000000D+00
240  2.3900000000000D+00  0.0000000000000D+00  0.0000000000000D+00
241  2.4000000000000D+00  0.0000000000000D+00  0.0000000000000D+00
242  2.4100000000000D+00  0.0000000000000D+00  0.0000000000000D+00
243  2.4200000000000D+00  0.0000000000000D+00  0.0000000000000D+00
244  2.4300000000000D+00  0.0000000000000D+00  0.0000000000000D+00
245  2.4400000000000D+00  0.0000000000000D+00  0.0000000000000D+00
246  2.4500000000000D+00  0.0000000000000D+00  0.0000000000000D+00
247  2.4600000000000D+00  0.0000000000000D+00  0.0000000000000D+00
248  2.4700000000000D+00  0.0000000000000D+00  0.0000000000000D+00
249  2.4800000000000D+00  0.0000000000000D+00  0.0000000000000D+00
250  2.4900000000000D+00  0.0000000000000D+00  0.0000000000000D+00
251  2.5000000000000D+00  0.0000000000000D+00  0.0000000000000D+00
252  2.5100000000000D+00  0.0000000000000D+00  0.0000000000000D+00
253  2.5200000000000D+00  0.0000000000000D+00  0.0000000000000D+00
254  2.5300000000000D+00  0.0000000000000D+00  0.0000000000000D+00
255  2.5400000000000D+00  0.0000000000000D+00  0.0000000000000D+00
256  2.5500000000000D+00  0.0000000000000D+00  0.0000000000000D+00
257  2.5600000000000D+00  0.0000000000000D+00  0.0000000000000D+00
258  2.5700000000000D+00  0.0000000000000D+00  0.0000000000000D+00
259  2.5800000000000D+00  0.0000000000000D+00  0.0000000000000D+00
260  2.5900000000000D+00  0.0000000000000D+00  0.0000000000000D+00
261  2.6000000000000D+00  0.0000000000000D+00  0.0000000000000D+00
262  2.6100000000000D+00  0.0000000000000D+00  0.0000000000000D+00
263  2.6200000000000D+00  0.0000000000000D+00  0.0000000000000D+00
264  2.6300000000000D+00  0.0000000000000D+00  0.0000000000000D+00
265  2.6400000000000D+00  0.0000000000000D+00  0.0000000000000D+00
266  2.6500000000000D+00  0.0000000000000D+00  0.0000000000000D+00
267  2.6600000000000D+00  0.0000000000000D+00  0.0000000000000D+00
268  2.6700000000000D+00  0.0000000000000D+00  0.0000000000000D+00
269  2.6800000000000D+00  0.0000000000000D+00  0.0000000000000D+00
270  2.6900000000000D+00  0.0000000000000D+00  0.0000000000000D+00
271  2.7000000000000D+00  0.0000000000000D+00  0.0000000000000D+00
272  2.7100000000000D+00  0.0000000000000D+00  0.0000000000000D+00
273  2.7200000000000D+00  0.0000000000000D+00  0.0000000000000D+00
274  2.7300000000000D+00  0.0000000000000D+00  0.0000000000000D+00
275  2.7400000000000D+00  0.0000000000000D+00  0.0000000000000D+00
276  2.7500000000000D+00  0.0000000000000D+00  0.0000000000000D+00
277  2.7600000000000D+00  0.0000000000000D+00  0.0000000000000D+00
278  2.7700000000000D+00  0.0000000000000D+00  0.0000000000000D+00
279  2.7800000000000D+00  0.0000000000000D+00  0.0000000000000D+00
280  2.7900000000000D+00  0.0000000000000D+00  0.0000000000000D+00
281  2.8000000000000D+00  0.0000000000000D+00  0.0000000000000D+00
282  2.8100000000000D+00  0.0000000000000D+00  0.0000000000000D+00
283  2.8200000000000D+00  0.0000000000000D+00  0.0000000000000D+00
284  2.8300000000000D+00  0.0000000000000D+00  0.0000000000000D+00
285  2.8400000000000D+00  0.0000000000000D+00  0.0000000000000D+00
286  2.8500000000000D+00  0.0000000000000D+00  0.0000000000000D+00
287  2.8600000000000D+00  0.0000000000000D+00  0.0000000000000D+00
288  2.8700000000000D+00  0.0000000000000D+00  0.0000000000000D+00
289  2.8800000000000D+00  0.0000000000000D+00  0.0000000000000D+00
290  2.8900000000000D+00  0.0000000000000D+00  0.0000000000000D+00
291  2.9000000000000D+00  0.0000000000000D+00  0.0000000000000D+00
292  2.9100000000000D+00  0.0000000000000D+00  0.0000000000000D+00
293  2.9200000000000D+00  0.0000000000000D+00  0.0000000000000D+00
294  2.9300000000000D+00  0.0000000000000D+00  0.0000000000000D+00
295  2.9400000000000D+00  0.0000000000000D+00  0.0000000000000D+00
296  2.9500000000000D+00  0.0000000000000D+00  0.0000000000000D+00
297  2.9600000000000D+00  0.0000000000000D+00  0.0000000000000D+00
298  2.9700000000000D+00  0.0000000000000D+00  0.0000000000000D+00
299  2.9800000000000D+00  0.0000000000000D+00  0.0000000000000D+00
300  2.9900000000000D+00  0.0000000000000D+00  0.0000000000000D+00
301  3.0000000000000D+00  0.0000000000000D+00  0.0000000000000D+00
302  3.0100000000000D+00  0.0000000000000D+00  0.0000000000000D+00
303  3.0200000000000D+00  0.0000000000000D+00  0.0000000000000D+00
304  3.0300000000000D+00  0.0000000000000D+00  0.0000000000000D+00
305  3.0400000000000D+00  0.0000000000000D+00  0.0000000000000D+00
306  3.0500000000000D+00  0.0000000000000D+00  0.0000000000000D+00
307  3.0600000000000D+00  0.0000000000000D+00  0.0000000000000D+00
308  3.0700000000000D+00  0.0000000000000D+00  0.0000000000000D+00
309  3.0800000000000D+00  0.0000000000000D+00  0.0000000000000D+00
310  3.0900000000000D+00  0.0000000000000D+00  0.0000000000000D+00
311  3.1000000000000D+00  0.0000000000000D+00  0.0000000000000D+00
312  3.1100000000000D+00  0.0000000000000D+00  0.0000000000000D+00
313  3.1200000000000D+00  0.0000000000000D+00  0.0000000000000D+00
314  3.1300000000000D+00  0.0000000000000D+00  0.0000000000000D+00
315  3.1400000000000D+00  0.0000000000000D+00  0.0000000000000D+00
316  3.1500000000000D+00  0.0000000000000D+00  0.0000000000000D+00
317  3.1600000000000D+00  0.0000000000000D+00  0.0000000000000D+00
318  3.1700000000000D+00  0.0000000000000D+00  0.0000000000000D+00
319  3.1800000000000D+00  0.0000000000000D+00  0.0000000000000D+00
320  3.1900000000000D+00  0.0000000000000D+00  0.0000000000000D+00
321  3.2000000000000D+00  0.0000000000000D+00  0.0000000000000D+00
322  3.2100000000000D+00  0.0000000000000D+00  0.0000000000000D+00
323  3.2200000000000D+00  0.0000000000000D+00  0.0000000000000D+00
324  3.2300000000000D+00  0.0000000000000D+00  0.0000000000000D+00
325  3.2400000000000D+00  0.0000000000000D+00  0.0000000000000D+00
326  3.2500000000000D+00  0.0000000000000D+00  0.0000000000000D+00
327  3.2600000000000D+00  0.0000000000000D+00  0.0000000000000D+00
328  3.2700000000000D+00  0.0000000000000D+00  0.0000000000000D+00
329  3.2800000000000D+00  0.0000000000000D+00  0.0000000000000D+00
330  3.2900000000000D+00  0.0000000000000D+00  0.0000000000000D+00
331  3.3000000000000D+00  0.0000000000000D+00  0.0000000000000D+00
332  3.3100000000000D+00  0.0000000000000D+00  0.0000000000000D+00
333  3.3200000000000D+00  0.0000000000000D+00  0.0000000000000D+00
334  3.3300000000000D+00  0.0000000000000D+00  0.0000000000000D+00
335  3.3400000000000D+00  0.0000000000000D+00  0.0000000000000D+00
336  3.3500000000000D+00  0.0000000000000D+00  0.0000000000000D+00
337  3.3600000000000D+00  0.0000000000000D+00  0.0000000000000D+00
338  3.3700000000000D+00  0.0000000000000D+00  0.0000000000000D+00
339  3.3800000000000D+00  0.0000000000000D+00  0.0000000000000D+00
340  3.3900000000000D+00  0.0000000000000D+00  0.0000000000000D+00
341  3.4000000000000D+00  0.0000000000000D+00  0.0000000000000D+00
342  3.4100000000000D+00  0.0000000000000D+00  0.0000000000000D+00
343  3.4200000000000D+00  0.0000000000000D+00  0.0000000000000D+00
344  3.4300000000000D+00  0.0000000000000D+00  0.0000000000000D+00
345  3.4400000000000D+00  0.0000000000000D+00  0.0000000000000D+00
346  3.4500000000000D+00  0.0000000000000D+00  0.0000000000000D+00
347  3.4600000000000D+00  0.0000000000000D+00  0.0000000000000D+00
348  3.4700000000000D+00  0.0000000000000D+00  0.0000000000000D+00
349  3.4800000000000D+00  0.0000000000000D+00  0.0000000000000D+00
350  3.4900000000000D+00  0.0000000000000D+00  0.0000000000000D+00
351  3.5000000000000D+00  0.0000000000000D+00  0.0000000000000D+00
352  3.5100000000000D+00  0.0000000000000D+00  0.0000000000000D+00
353  3.5200000000000D+00  0.0000000000000D+00  0.0000000000000D+00
354  3.5300000000000D+00  0.0000000000000D+00  0.0000000000000D+00
355  3.5400000000000D+00  0.0000000000000D+00  0.0000000000000D+00
356  3.5500000000000D+00  0.0000000000000D+00  0.0000000000000D+00
357  3.5600000000000D+00  0.0000000000000D+00  0.0000000000000D+00
358  3.5700000000000D+00  0.0000000000000D+00  0.0000000000000D+00
359  3.5800000000000D+00  0.0000000000000D+00  0.0000000000000D+00
360  3.5900000000000D+00  0.0000000000000D+00  0.0000000000000D+00
361  3.6000000000000D+00  0.0000000000000D+00  0.0000000000000D+00
362  3.6100000000000D+00  0.0000000000000D+00  0.0000000000000D+00
363  3.6200000000000D+00  0.0000000000000D+00  0.0000000000000D+00
364  3.6300000000000D+00  0.0000000000000D+00  0.0000000000000D+00
365  3.6400000000000D+00  0.0000000000000D+00  0.0000000000000D+00
366  3.6500000000000D+00  0.0000000000000D+00  0.0000000000000D+00
367  3.6600000000000D+00  0.0000000000000D+00  0.0000000000000D+00
368  3.6700000000000D+00  0.0000000000000D+00  0.0000000000000D+00
369  3.6800000000000D+00  0.0000000000000D+00  0.0000000000000D+00
370  3.6900000000000D+00  0.0000000000000D+00  0.0000000000000D+00
371  3.7000000000000D+00  0.0000000000000D+00  0.0000000000000D+00
372  3.7100000000000D+00  0.0000000000000D+00  0.0000000000000D+00
373  3.7200000000000D+00  0.0000000000000D+00  0.0000000000000D+00
374  3.7300000000000D+00  0.0000000000000D+00  0.0000000000000D+00
375  3.7400000000000D+00  0.0000000000000D+00  0.0000000000000D+00
376  3.7500000000000D+00  0.0000000000000D+00  0.0000000000000D+00
377  3.7600000000000D+00  0.0000000000000D+00  0.0000000000000D+00
378  3.7700000000000D+00  0.0000000000000D+00  0.0000000000000D+00
379  3.7800000000000D+00  0.0000000000000D+00  0.0000000000000D+00
380  3.7900000000000D+00  0.0000000000000D+00  0.0000000000000D+00
381  3.8000000000000D+00  0.0000000000000D+00  0.0000000000000D+00
382  3.8100000000000D+00  0.0000000000000D+00  0.0000000000000D+00
383  3.8200000000000D+00  0.0000000000000D+00  0.0000000000000D+00
384  3.8300000000000D+00  0.0000000000000D+00  0.0000000000000D+00
385  3.8400000000000D+00  0.0000000000000D+00  0.0000000000000D+00
386  3.8500000000000D+00  0.0000000000000D+00  0.0000000000000D+00
387  3.8600000000000D+00  0.0000000000000D+00  0.0000000000000D+00
388  3.8700000000000D+00  0.0000000000000D+00  0.0000000000000D+00
389  3.8800000000000D+00  0.0000000000000D+00  0.0000000000000D+00
390  3.8900000000000D+00  0.0000000000000D+00  0.0000000000000D+00
391  3.9000000000000D+00  0.0000000000000D+00  0.0000000000000D+00
392  3.9100000000000D+00  0.0000000000000D+00  0.0000000000000D+00
393  3.9200000000000D+00  0.0000000000000D+00  0.0000000000000D+00
394  3.9300000000000D+00  0.0000000000000D+00  0.0000000000000D+00
395  3.9400000000000D+00  0.0000000000000D+00  0.0000000000000D+00
396  3.9500000000000D+00  0.0000000000000D+00  0.0000000000000D+00
397  3.9600000000000D+00  0.0000000000000D+00  0.0000000000000D+00
398  3.9700000000000D+00  0.0000000000000D+00  0.0000000000000D+00
399  3.9800000000000D+00  0.0000000000000D+00  0.0000000000000D+00
400  3.9900000000000D+00  0.0000000000000D+00  0.0000000000000D+00
401  4.0000000000000D+00  0.0000000000000D+00  0.0000000000000D+00
402  4.0100000000000D+00  0.0000000000000D+00  0.0000000000000D+00
403  4.0200000000000D+00  0.0000000000000D+00  0.0000000000000D+00
404  4.0300000000000D+00  0.0000000000000D+00  0.0000000000000D+00
405  4.0400000000000D+00  0.0000000000000D+00  0.0000000000000D+00
406  4.0500000000000D+00  0.0000000000000D+00  0.0000000000000D+00
407  4.0600000000000D+00  0.0000000000000D+00  0.0000000000000D+00
408  4.0700000000000D+00  0.0000000000000D+00  0.0000000000000D+00
409  4.0800000000000D+00  0.0000000000000D+00  0.0000000000000D+00
410  4.0900000000000D+00  0.0000000000000D+00  0.0000000000000D+00
411  4.1000000000000D+00  0.0000000000000D+00  0.0000000000000D+00
412  4.1100000000000D+00  0.0000000000000D+00  0.0000000000000D+00
413  4.1200000000000D+00  0.0000000000000D+00  0.0000000000000D+00
414  4.1300000000000D+00  0.0000000000000D+00  0.0000000000000D+00
415  4.1400000000000D+00  0.0000000000000D+00  0.0000000000000D+00
416  4.1500000000000D+00  0.0000000000000D+00  0.0000000000000D+00
417  4.1600000000000D+00  0.0000000000000D+00  0.0000000000000D+00
418  4.1700000000000D+00  0.0000000000000D+00  0.0000000000000D+00
419  4.1800000000000D+00  0.0000000000000D+00  0.0000000000000D+00
420  4.1900000000000D+00  0.0000000000000D+00  0.0000000000000D+00
421  4.2000000000000D+00  0.0000000000000D+00  0.0000000000000D+00
422  4.2100000000000D+00  0.0000000000000D+00  0.0000000000000D+00
423  4.2200000000000D+00  0.0000000000000D+00  0.0000000000000D+00
424  4.2300000000000D+00  0.0000000000000D+00  0.0000000000000D+00
425  4.2400000000000D+00  0.0000000000000D+00  0.0000000000000D+00
426  4.2500000000000D+00  0.0000000000000D+00  0.0000000000000D+00
427  4.2600000000000D+00  0.0000000000000D+00  0.0000000000000D+00
428  4.2700000000000D+00  0.0000000000000D+00  0.0000000000000D+00
429  4.2800000000000D+00  0.0000000000000D+00  0.0000000000000D+00
430  4.2900000000000D+00  0.0000000000000D+00  0.0000000000000D+00
431  4.3000000000000D+00  0.0000000000000D+00  0.0000000000000D+00
432  4.3100000000000D+00  0.0000000000000D+00  0.0000000000000D+00
433  4.3200000000000D+00  0.0000000000000D+00  0.0000000000000D+00
434  4.3300000000000D+00  0.0000000000000D+00  0.0000000000000D+00
435  4.3400000000000D+00  0.0000000000000D+00  0.0000000000000D+00
436  4.3500000000000D+00  0.0000000000000D+00  0.0000000000000D+00
437  4.3600000000000D+00  0.0000000000000D+00  0.0000000000000D+00
438  4.3700000000000D+00  0.0000000000000D+00  0.0000000000000D+00
439  4.3800000000000D+00  0.0000000000000D+00  0.0000000000000D+00
440  4.3900000000000D+00  0.0000000000000D+00  0.0000000000000D+00
441  4.4000000000000D+00  0.0000000000000D+00  0.0000000000000D+00
442  4.4100000000000D+00  0.0000000000000D+00  0.0000000000000D+00
443  4.4200000000000D+00  0.0000000000000D+00  0.0000000000000D+00