Cl    ONCVPSP  r_core=  1.62  1.35  1.80
17.0000      7.0000      141210    zatom,zion,pspd
8    11     2     4   601     0    pspcod,pspxc,lmax,lloc,mmax,r2well
6.00000000  0.07000000  0.00000000    rchrg fchrg qchrg
2     2     2     0     0    nproj
0                 extension_switch
0                         7.9784771904515D+00  7.7285103170037D-01
1  0.0000000000000D+00 -0.0000000000000D+00 -0.0000000000000D+00
2  1.0000000000000D-02 -4.4851201391478D-02 -1.3731983654054D-02
3  2.0000000000000D-02 -8.9696793259502D-02 -2.7587887346106D-02
4  3.0000000000000D-02 -1.3453046843046D-01 -4.1688551299694D-02
5  4.0000000000000D-02 -1.7934453638618D-01 -5.6148708619809D-02
6  5.0000000000000D-02 -2.2412926129103D-01 -7.1074062156398D-02
7  6.0000000000000D-02 -2.6887223512783D-01 -8.6558515493885D-02
8  7.0000000000000D-02 -3.1355779677420D-01 -1.0268160553118D-01
9  8.0000000000000D-02 -3.5816650711273D-01 -1.1950618080315D-01
10  9.0000000000000D-02 -4.0267468939118D-01 -1.3707636576074D-01
11  1.0000000000000D-01 -4.4705404298238D-01 -1.5541584644421D-01
12  1.1000000000000D-01 -4.9127133756023D-01 -1.7452650790331D-01
13  1.2000000000000D-01 -5.3528819339735D-01 -1.9438744784891D-01
14  1.3000000000000D-01 -5.7906095214316D-01 -2.1495438499192D-01
15  1.4000000000000D-01 -6.2254064092647D-01 -2.3615947374616D-01
16  1.5000000000000D-01 -6.6567303129706D-01 -2.5791153104840D-01
17  1.6000000000000D-01 -7.0839879279532D-01 -2.8009667330995D-01
18  1.7000000000000D-01 -7.5065373956573D-01 -3.0257935546940D-01
19  1.8000000000000D-01 -7.9236916700378D-01 -3.2520379764854D-01
20  1.9000000000000D-01 -8.3347227355069D-01 -3.4779577677974D-01
21  2.0000000000000D-01 -8.7388666256033D-01 -3.7016475941485D-01
22  2.1000000000000D-01 -9.1353291552384D-01 -3.9210633636282D-01
23  2.2000000000000D-01 -9.5232922993766D-01 -4.1340492802088D-01
24  2.3000000000000D-01 -9.9019211166252D-01 -4.3383671461463D-01
25  2.4000000000000D-01 -1.0270371117189D+00 -4.5317274584531D-01
26  2.5000000000000D-01 -1.0627795938833D+00 -4.7118216932356D-01
27  2.6000000000000D-01 -1.0973355301597D+00 -4.8763556231040D-01
28  2.7000000000000D-01 -1.1306222978850D+00 -5.0230825308593D-01
29  2.8000000000000D-01 -1.1625594803600D+00 -5.1498363698870D-01
30  2.9000000000000D-01 -1.1930696516362D+00 -5.2545640268497D-01
31  3.0000000000000D-01 -1.2220791349590D+00 -5.3353562193930D-01
32  3.1000000000000D-01 -1.2495187240074D+00 -5.3904765485384D-01
33  3.2000000000000D-01 -1.2753243555892D+00 -5.4183882092593D-01
34  3.3000000000000D-01 -1.2994377187199D+00 -5.4177777195377D-01
35  3.4000000000000D-01 -1.3218068073577D+00 -5.3875759399926D-01
36  3.5000000000000D-01 -1.3423863869973D+00 -5.3269751504411D-01
37  3.6000000000000D-01 -1.3611383836687D+00 -5.2354425268904D-01
38  3.7000000000000D-01 -1.3780321743931D+00 -5.1127291831831D-01
39  3.8000000000000D-01 -1.3930448118884D+00 -4.9588760336279D-01
40  3.9000000000000D-01 -1.4061611177413D+00 -4.7742139594044D-01
41  4.0000000000000D-01 -1.4173737035397D+00 -4.5593605863055D-01
42  4.1000000000000D-01 -1.4266828896653D+00 -4.3152125288403D-01
43  4.2000000000000D-01 -1.4340965293916D+00 -4.0429334389440D-01
44  4.3000000000000D-01 -1.4396297419915D+00 -3.7439380528729D-01
45  4.4000000000000D-01 -1.4433045598332D+00 -3.4198724873366D-01
46  4.5000000000000D-01 -1.4451494956207D+00 -3.0725910895110D-01
47  4.6000000000000D-01 -1.4451990371042D+00 -2.7041301989299D-01
48  4.7000000000000D-01 -1.4434930778276D+00 -2.3166792364854D-01
49  4.8000000000000D-01 -1.4400762938906D+00 -1.9125496002249D-01
50  4.9000000000000D-01 -1.4349974825599D+00 -1.4941421655152D-01
51  5.0000000000000D-01 -1.4283088684441D+00 -1.0639135241351D-01
52  5.1000000000000D-01 -1.4200653545294D+00 -6.2433977508822D-02
53  5.2000000000000D-01 -1.4103238334601D+00 -1.7788410109016D-02
54  5.3000000000000D-01 -1.3991424667518D+00  2.7303734213635D-02
55  5.4000000000000D-01 -1.3865798990582D+00  7.2609245783902D-02
56  5.5000000000000D-01 -1.3726947294929D+00  1.1790568266149D-01
57  5.6000000000000D-01 -1.3575446706205D+00  1.6298531939370D-01
58  5.7000000000000D-01 -1.3411861769540D+00  2.0765670039793D-01
59  5.8000000000000D-01 -1.3236736821990D+00  2.5174814886035D-01
60  5.9000000000000D-01 -1.3050593984083D+00  2.9510848279640D-01
61  6.0000000000000D-01 -1.2853926160768D+00  3.3761016287649D-01
62  6.1000000000000D-01 -1.2647197283206D+00  3.7914892044228D-01
63  6.2000000000000D-01 -1.2430837325338D+00  4.1964588462791D-01
64  6.3000000000000D-01 -1.2205242376518D+00  4.5904727730676D-01
65  6.4000000000000D-01 -1.1970775120813D+00  4.9732392951357D-01
66  6.5000000000000D-01 -1.1727762833409D+00  5.3447189697111D-01
67  6.6000000000000D-01 -1.1476501091295D+00  5.7051043232638D-01
68  6.7000000000000D-01 -1.1217255744846D+00  6.0548075079072D-01
69  6.8000000000000D-01 -1.0950265308079D+00  6.3944454006361D-01
70  6.9000000000000D-01 -1.0675745281651D+00  6.7248158217787D-01
71  7.0000000000000D-01 -1.0393893134939D+00  7.0468708522032D-01
72  7.1000000000000D-01 -1.0104893321482D+00  7.3616895341581D-01
73  7.2000000000000D-01 -9.8089229250647D-01  7.6704479963131D-01
74  7.3000000000000D-01 -9.5061580122784D-01  7.9743845821659D-01
75  7.4000000000000D-01 -9.1967801093227D-01  8.2747667212647D-01
76  7.5000000000000D-01 -8.8809827551936D-01  8.5728558551596D-01
77  7.6000000000000D-01 -8.5589781472685D-01  8.8698722109903D-01
78  7.7000000000000D-01 -8.2310036931450D-01  9.1669599531963D-01
79  7.8000000000000D-01 -7.8973283357826D-01  9.4651533385663D-01
80  7.9000000000000D-01 -7.5582585213648D-01  9.7653444874657D-01
81  8.0000000000000D-01 -7.2141436268921D-01  1.0068253690714D+00
82  8.1000000000000D-01 -6.8653808042537D-01  1.0374402377150D+00
83  8.2000000000000D-01 -6.5124196677089D-01  1.0684086144719D+00
84  8.3000000000000D-01 -6.1557649854778D-01  1.0997358355022D+00
85  8.4000000000000D-01 -5.7959793805752D-01  1.1314012641391D+00
86  8.5000000000000D-01 -5.4336848202780D-01  1.1633571285608D+00
87  8.6000000000000D-01 -5.0695630750213D-01  1.1955278352782D+00
88  8.7000000000000D-01 -4.7043551042955D-01  1.2278097781531D+00
89  8.8000000000000D-01 -4.3388593432531D-01  1.2600716554783D+00
90  8.9000000000000D-01 -3.9739286698059D-01  1.2921554699332D+00
91  9.0000000000000D-01 -3.6104672730483D-01  1.3238773033273D+00
92  9.1000000000000D-01 -3.2494248807835D-01  1.3550296804700D+00
93  9.2000000000000D-01 -2.8917910102434D-01  1.3853836980890D+00
94  9.3000000000000D-01 -2.5385880041335D-01  1.4146917657979D+00
95  9.4000000000000D-01 -2.1908631891367D-01  1.4426907526698D+00
96  9.5000000000000D-01 -1.8496802571983D-01  1.4691054934680D+00
97  9.6000000000000D-01 -1.5161099867656D-01  1.4936526009715D+00
98  9.7000000000000D-01 -1.1912204362529D-01  1.5160445240405D+00
99  9.8000000000000D-01 -8.7606675446094D-02  1.5359937855258D+00
100  9.9000000000000D-01 -5.7168331980648D-02  1.5532164817913D+00
101  1.0000000000000D+00 -2.7906686683812D-02  1.5674386949405D+00
102  1.0100000000000D+00  8.3014583603084D-05  1.5783998028635D+00
103  1.0200000000000D+00  2.6711005338949D-02  1.5858567946641D+00
104  1.0300000000000D+00  5.1894029643734D-02  1.5895885324930D+00
105  1.0400000000000D+00  7.5556278198870D-02  1.5893996433737D+00
106  1.0500000000000D+00  9.7629503161246D-02  1.5851213113437D+00
107  1.0600000000000D+00  1.1805611180815D-01  1.5766230533701D+00
108  1.0700000000000D+00  1.3678785968013D-01  1.5638082036731D+00
109  1.0800000000000D+00  1.5378697652921D-01  1.5466182018509D+00
110  1.0900000000000D+00  1.6902636969907D-01  1.5250334205052D+00
111  1.1000000000000D+00  1.8249009991360D-01  1.4990749691061D+00
112  1.1100000000000D+00  1.9417545543592D-01  1.4688122928090D+00
113  1.1200000000000D+00  2.0409068612557D-01  1.4343544955549D+00
114  1.1300000000000D+00  2.1225553228523D-01  1.3958520561955D+00
115  1.1400000000000D+00  2.1870079442412D-01  1.3534950633601D+00
116  1.1500000000000D+00  2.2347067646238D-01  1.3075209032436D+00
117  1.1600000000000D+00  2.2661912912609D-01  1.2582004422282D+00
118  1.1700000000000D+00  2.2820993885162D-01  1.2058379897133D+00
119  1.1800000000000D+00  2.2831723437137D-01  1.1507722441308D+00
120  1.1900000000000D+00  2.2702453978448D-01  1.0933711587238D+00
121  1.2000000000000D+00  2.2442255142524D-01  1.0340238876097D+00
122  1.2100000000000D+00  2.2060893866814D-01  9.7314047680376D-01
123  1.2200000000000D+00  2.1568799738768D-01  9.1114542980129D-01
124  1.2300000000000D+00  2.0976789337384D-01  8.4847014310425D-01
125  1.2400000000000D+00  2.0296105934310D-01  7.8555454278103D-01
126  1.2500000000000D+00  1.9538169682728D-01  7.2283219096439D-01
127  1.2600000000000D+00  1.8714437359748D-01  6.6072714258799D-01
128  1.2700000000000D+00  1.7836516737605D-01  5.9966024099141D-01
129  1.2800000000000D+00  1.6915677533502D-01  5.4002372826844D-01
130  1.2900000000000D+00  1.5962842654754D-01  4.8218379176933D-01
131  1.3000000000000D+00  1.4988888274754D-01  4.2649528854072D-01
132  1.3100000000000D+00  1.4003716661844D-01  3.7325688859103D-01
133  1.3200000000000D+00  1.3016735448276D-01  3.2273843535815D-01
134  1.3300000000000D+00  1.2037154808297D-01  2.7519273486729D-01
135  1.3400000000000D+00  1.1072719799067D-01  2.3080302991234D-01
136  1.3500000000000D+00  1.0130936112971D-01  1.8973637979472D-01
137  1.3600000000000D+00  9.2185468642048D-02  1.5212081486301D-01
138  1.3700000000000D+00  8.3409425735917D-02  1.1802175889910D-01
139  1.3800000000000D+00  7.5033668132594D-02  8.7492453933481D-02
140  1.3900000000000D+00  6.7095772885609D-02  6.0519049815872D-02
141  1.4000000000000D+00  5.9626671829231D-02  3.7055951563664D-02
142  1.4100000000000D+00  5.2652098780301D-02  1.7030325077837D-02
143  1.4200000000000D+00  4.6182521795392D-02  3.0574111475882D-04
144  1.4300000000000D+00  4.0228146432687D-02 -1.3260859737788D-02
145  1.4400000000000D+00  3.4785897177617D-02 -2.3866182468252D-02
146  1.4500000000000D+00  2.9848917044407D-02 -3.1723430800295D-02
147  1.4600000000000D+00  2.5404518485875D-02 -3.7071857500758D-02
148  1.4700000000000D+00  2.1432210324729D-02 -4.0174610905539D-02
149  1.4800000000000D+00  1.7910816506326D-02 -4.1305342587162D-02
150  1.4900000000000D+00  1.4811710415352D-02 -4.0751467043606D-02
151  1.5000000000000D+00  1.2106488933517D-02 -3.8805628417619D-02
152  1.5100000000000D+00  9.7633826516139D-03 -3.5760608246776D-02
153  1.5200000000000D+00  7.7510261372920D-03 -3.1902886143199D-02
154  1.5300000000000D+00  6.0368010947994D-03 -2.7518195686515D-02
155  1.5400000000000D+00  4.5914617479630D-03 -2.2860644308772D-02
156  1.5500000000000D+00  3.3838721712129D-03 -1.8196028811591D-02
157  1.5600000000000D+00  2.3913496588287D-03 -1.3723677198135D-02
158  1.5700000000000D+00  1.5866436114126D-03 -9.6760970762136D-03
159  1.5800000000000D+00  9.5631429119596D-04 -6.1859747335899D-03
160  1.5900000000000D+00  4.8149859405572D-04 -3.4246769032358D-03
161  1.6000000000000D+00  1.6232380812061D-04 -1.4966596387988D-03
162  1.6100000000000D+00 -7.4362269435841D-06 -5.0578872138813D-04
163  1.6200000000000D+00 -6.1424203191078D-05 -7.5806180956096D-05
164  1.6300000000000D+00 -3.2410132815737D-05  3.0224328474307D-05
165  1.6400000000000D+00  2.7607066683522D-06  8.1203575641966D-06
166  1.6500000000000D+00  2.7859708372547D-06  8.1946697276012D-06
167  1.6600000000000D+00  0.0000000000000D+00  0.0000000000000D+00
168  1.6700000000000D+00  0.0000000000000D+00  0.0000000000000D+00
169  1.6800000000000D+00  0.0000000000000D+00  0.0000000000000D+00
170  1.6900000000000D+00  0.0000000000000D+00  0.0000000000000D+00
171  1.7000000000000D+00  0.0000000000000D+00  0.0000000000000D+00
172  1.7100000000000D+00  0.0000000000000D+00  0.0000000000000D+00
173  1.7200000000000D+00  0.0000000000000D+00  0.0000000000000D+00
174  1.7300000000000D+00  0.0000000000000D+00  0.0000000000000D+00
175  1.7400000000000D+00  0.0000000000000D+00  0.0000000000000D+00
176  1.7500000000000D+00  0.0000000000000D+00  0.0000000000000D+00
177  1.7600000000000D+00  0.0000000000000D+00  0.0000000000000D+00
178  1.7700000000000D+00  0.0000000000000D+00  0.0000000000000D+00
179  1.7800000000000D+00  0.0000000000000D+00  0.0000000000000D+00
180  1.7900000000000D+00  0.0000000000000D+00  0.0000000000000D+00
181  1.8000000000000D+00  0.0000000000000D+00  0.0000000000000D+00
182  1.8100000000000D+00  0.0000000000000D+00  0.0000000000000D+00
183  1.8200000000000D+00  0.0000000000000D+00  0.0000000000000D+00
184  1.8300000000000D+00  0.0000000000000D+00  0.0000000000000D+00
185  1.8400000000000D+00  0.0000000000000D+00  0.0000000000000D+00
186  1.8500000000000D+00  0.0000000000000D+00  0.0000000000000D+00
187  1.8600000000000D+00  0.0000000000000D+00  0.0000000000000D+00
188  1.8700000000000D+00  0.0000000000000D+00  0.0000000000000D+00
189  1.8800000000000D+00  0.0000000000000D+00  0.0000000000000D+00
190  1.8900000000000D+00  0.0000000000000D+00  0.0000000000000D+00
191  1.9000000000000D+00  0.0000000000000D+00  0.0000000000000D+00
192  1.9100000000000D+00  0.0000000000000D+00  0.0000000000000D+00
193  1.9200000000000D+00  0.0000000000000D+00  0.0000000000000D+00
194  1.9300000000000D+00  0.0000000000000D+00  0.0000000000000D+00
195  1.9400000000000D+00  0.0000000000000D+00  0.0000000000000D+00
196  1.9500000000000D+00  0.0000000000000D+00  0.0000000000000D+00
197  1.9600000000000D+00  0.0000000000000D+00  0.0000000000000D+00
198  1.9700000000000D+00  0.0000000000000D+00  0.0000000000000D+00
199  1.9800000000000D+00  0.0000000000000D+00  0.0000000000000D+00
200  1.9900000000000D+00  0.0000000000000D+00  0.0000000000000D+00
201  2.0000000000000D+00  0.0000000000000D+00  0.0000000000000D+00
202  2.0100000000000D+00  0.0000000000000D+00  0.0000000000000D+00
203  2.0200000000000D+00  0.0000000000000D+00  0.0000000000000D+00
204  2.0300000000000D+00  0.0000000000000D+00  0.0000000000000D+00
205  2.0400000000000D+00  0.0000000000000D+00  0.0000000000000D+00
206  2.0500000000000D+00  0.0000000000000D+00  0.0000000000000D+00
207  2.0600000000000D+00  0.0000000000000D+00  0.0000000000000D+00
208  2.0700000000000D+00  0.0000000000000D+00  0.0000000000000D+00
209  2.0800000000000D+00  0.0000000000000D+00  0.0000000000000D+00
210  2.0900000000000D+00  0.0000000000000D+00  0.0000000000000D+00
211  2.1000000000000D+00  0.0000000000000D+00  0.0000000000000D+00
212  2.1100000000000D+00  0.0000000000000D+00  0.0000000000000D+00
213  2.1200000000000D+00  0.0000000000000D+00  0.0000000000000D+00
214  2.1300000000000D+00  0.0000000000000D+00  0.0000000000000D+00
215  2.1400000000000D+00  0.0000000000000D+00  0.0000000000000D+00
216  2.1500000000000D+00  0.0000000000000D+00  0.0000000000000D+00
217  2.1600000000000D+00  0.0000000000000D+00  0.0000000000000D+00
218  2.1700000000000D+00  0.0000000000000D+00  0.0000000000000D+00
219  2.1800000000000D+00  0.0000000000000D+00  0.0000000000000D+00
220  2.1900000000000D+00  0.0000000000000D+00  0.0000000000000D+00
221  2.2000000000000D+00  0.0000000000000D+00  0.0000000000000D+00
222  2.2100000000000D+00  0.0000000000000D+00  0.0000000000000D+00
223  2.2200000000000D+00  0.0000000000000D+00  0.0000000000000D+00
224  2.2300000000000D+00  0.0000000000000D+00  0.0000000000000D+00
225  2.2400000000000D+00  0.0000000000000D+00  0.0000000000000D+00
226  2.2500000000000D+00  0.0000000000000D+00  0.0000000000000D+00
227  2.2600000000000D+00  0.0000000000000D+00  0.0000000000000D+00
228  2.2700000000000D+00  0.0000000000000D+00  0.0000000000000D+00
229  2.2800000000000D+00  0.0000000000000D+00  0.0000000000000D+00
230  2.2900000000000D+00  0.0000000000000D+00  0.0000000000000D+00
231  2.3000000000000D+00  0.0000000000000D+00  0.0000000000000D+00
232  2.3100000000000D+00  0.0000000000000D+00  0.0000000000000D+00
233  2.3200000000000D+00  0.0000000000000D+00  0.0000000000000D+00
234  2.3300000000000D+00  0.0000000000000D+00  0.0000000000000D+00
235  2.3400000000000D+00  0.0000000000000D+00  0.0000000000000D+00
236  2.3500000000000D+00  0.0000000000000D+00  0.0000000000000D+00
237  2.3600000000000D+00  0.0000000000000D+00  0.0000000000000D+00
238  2.3700000000000D+00  0.0000000000000D+00  0.0000000000000D+00
239  2.3800000000000D+00  0.0000000000000D+00  0.0000000000000D+00
240  2.3900000000000D+00  0.0000000000000D+00  0.0000000000000D+00
241  2.4000000000000D+00  0.0000000000000D+00  0.0000000000000D+00
242  2.4100000000000D+00  0.0000000000000D+00  0.0000000000000D+00
243  2.4200000000000D+00  0.0000000000000D+00  0.0000000000000D+00
244  2.4300000000000D+00  0.0000000000000D+00  0.0000000000000D+00
245  2.4400000000000D+00  0.0000000000000D+00  0.0000000000000D+00
246  2.4500000000000D+00  0.0000000000000D+00  0.0000000000000D+00
247  2.4600000000000D+00  0.0000000000000D+00  0.0000000000000D+00
248  2.4700000000000D+00  0.0000000000000D+00  0.0000000000000D+00
249  2.4800000000000D+00  0.0000000000000D+00  0.0000000000000D+00
250  2.4900000000000D+00  0.0000000000000D+00  0.0000000000000D+00
251  2.5000000000000D+00  0.0000000000000D+00  0.0000000000000D+00
252  2.5100000000000D+00  0.0000000000000D+00  0.0000000000000D+00
253  2.5200000000000D+00  0.0000000000000D+00  0.0000000000000D+00
254  2.5300000000000D+00  0.0000000000000D+00  0.0000000000000D+00
255  2.5400000000000D+00  0.0000000000000D+00  0.0000000000000D+00
256  2.5500000000000D+00  0.0000000000000D+00  0.0000000000000D+00
257  2.5600000000000D+00  0.0000000000000D+00  0.0000000000000D+00
258  2.5700000000000D+00  0.0000000000000D+00  0.0000000000000D+00
259  2.5800000000000D+00  0.0000000000000D+00  0.0000000000000D+00
260  2.5900000000000D+00  0.0000000000000D+00  0.0000000000000D+00
261  2.6000000000000D+00  0.0000000000000D+00  0.0000000000000D+00
262  2.6100000000000D+00  0.0000000000000D+00  0.0000000000000D+00
263  2.6200000000000D+00  0.0000000000000D+00  0.0000000000000D+00
264  2.6300000000000D+00  0.0000000000000D+00  0.0000000000000D+00
265  2.6400000000000D+00  0.0000000000000D+00  0.0000000000000D+00
266  2.6500000000000D+00  0.0000000000000D+00  0.0000000000000D+00
267  2.6600000000000D+00  0.0000000000000D+00  0.0000000000000D+00
268  2.6700000000000D+00  0.0000000000000D+00  0.0000000000000D+00
269  2.6800000000000D+00  0.0000000000000D+00  0.0000000000000D+00
270  2.6900000000000D+00  0.0000000000000D+00  0.0000000000000D+00
271  2.7000000000000D+00  0.0000000000000D+00  0.0000000000000D+00
272  2.7100000000000D+00  0.0000000000000D+00  0.0000000000000D+00
273  2.7200000000000D+00  0.0000000000000D+00  0.0000000000000D+00
274  2.7300000000000D+00  0.0000000000000D+00  0.0000000000000D+00
275  2.7400000000000D+00  0.0000000000000D+00  0.0000000000000D+00
276  2.7500000000000D+00  0.0000000000000D+00  0.0000000000000D+00
277  2.7600000000000D+00  0.0000000000000D+00  0.0000000000000D+00
278  2.7700000000000D+00  0.0000000000000D+00  0.0000000000000D+00
279  2.7800000000000D+00  0.0000000000000D+00  0.0000000000000D+00
280  2.7900000000000D+00  0.0000000000000D+00  0.0000000000000D+00
281  2.8000000000000D+00  0.0000000000000D+00  0.0000000000000D+00
282  2.8100000000000D+00  0.0000000000000D+00  0.0000000000000D+00
283  2.8200000000000D+00  0.0000000000000D+00  0.0000000000000D+00
284  2.8300000000000D+00  0.0000000000000D+00  0.0000000000000D+00
285  2.8400000000000D+00  0.0000000000000D+00  0.0000000000000D+00
286  2.8500000000000D+00  0.0000000000000D+00  0.0000000000000D+00
287  2.8600000000000D+00  0.0000000000000D+00  0.0000000000000D+00
288  2.8700000000000D+00  0.0000000000000D+00  0.0000000000000D+00
289  2.8800000000000D+00  0.0000000000000D+00  0.0000000000000D+00
290  2.8900000000000D+00  0.0000000000000D+00  0.0000000000000D+00
291  2.9000000000000D+00  0.0000000000000D+00  0.0000000000000D+00
292  2.9100000000000D+00  0.0000000000000D+00  0.0000000000000D+00
293  2.9200000000000D+00  0.0000000000000D+00  0.0000000000000D+00
294  2.9300000000000D+00  0.0000000000000D+00  0.0000000000000D+00
295  2.9400000000000D+00  0.0000000000000D+00  0.0000000000000D+00
296  2.9500000000000D+00  0.0000000000000D+00  0.0000000000000D+00
297  2.9600000000000D+00  0.0000000000000D+00  0.0000000000000D+00
298  2.9700000000000D+00  0.0000000000000D+00  0.0000000000000D+00
299  2.9800000000000D+00  0.0000000000000D+00  0.0000000000000D+00
300  2.9900000000000D+00  0.0000000000000D+00  0.0000000000000D+00
301  3.0000000000000D+00  0.0000000000000D+00  0.0000000000000D+00
302  3.0100000000000D+00  0.0000000000000D+00  0.0000000000000D+00
303  3.0200000000000D+00  0.0000000000000D+00  0.0000000000000D+00
304  3.0300000000000D+00  0.0000000000000D+00  0.0000000000000D+00
305  3.0400000000000D+00  0.0000000000000D+00  0.0000000000000D+00
306  3.0500000000000D+00  0.0000000000000D+00  0.0000000000000D+00
307  3.0600000000000D+00  0.0000000000000D+00  0.0000000000000D+00
308  3.0700000000000D+00  0.0000000000000D+00  0.0000000000000D+00
309  3.0800000000000D+00  0.0000000000000D+00  0.0000000000000D+00
310  3.0900000000000D+00  0.0000000000000D+00  0.0000000000000D+00
311  3.1000000000000D+00  0.0000000000000D+00  0.0000000000000D+00
312  3.1100000000000D+00  0.0000000000000D+00  0.0000000000000D+00
313  3.1200000000000D+00  0.0000000000000D+00  0.0000000000000D+00
314  3.1300000000000D+00  0.0000000000000D+00  0.0000000000000D+00
315  3.1400000000000D+00  0.0000000000000D+00  0.0000000000000D+00
316  3.1500000000000D+00  0.0000000000000D+00  0.0000000000000D+00
317  3.1600000000000D+00  0.0000000000000D+00  0.0000000000000D+00
318  3.1700000000000D+00  0.0000000000000D+00  0.0000000000000D+00
319  3.1800000000000D+00  0.0000000000000D+00  0.0000000000000D+00
320  3.1900000000000D+00  0.0000000000000D+00  0.0000000000000D+00
321  3.2000000000000D+00  0.0000000000000D+00  0.0000000000000D+00
322  3.2100000000000D+00  0.0000000000000D+00  0.0000000000000D+00
323  3.2200000000000D+00  0.0000000000000D+00  0.0000000000000D+00
324  3.2300000000000D+00  0.0000000000000D+00  0.0000000000000D+00
325  3.2400000000000D+00  0.0000000000000D+00  0.0000000000000D+00
326  3.2500000000000D+00  0.0000000000000D+00  0.0000000000000D+00
327  3.2600000000000D+00  0.0000000000000D+00  0.0000000000000D+00
328  3.2700000000000D+00  0.0000000000000D+00  0.0000000000000D+00
329  3.2800000000000D+00  0.0000000000000D+00  0.0000000000000D+00
330  3.2900000000000D+00  0.0000000000000D+00  0.0000000000000D+00
331  3.3000000000000D+00  0.0000000000000D+00  0.0000000000000D+00
332  3.3100000000000D+00  0.0000000000000D+00  0.0000000000000D+00
333  3.3200000000000D+00  0.0000000000000D+00  0.0000000000000D+00
334  3.3300000000000D+00  0.0000000000000D+00  0.0000000000000D+00
335  3.3400000000000D+00  0.0000000000000D+00  0.0000000000000D+00
336  3.3500000000000D+00  0.0000000000000D+00  0.0000000000000D+00
337  3.3600000000000D+00  0.0000000000000D+00  0.0000000000000D+00
338  3.3700000000000D+00  0.0000000000000D+00  0.0000000000000D+00
339  3.3800000000000D+00  0.0000000000000D+00  0.0000000000000D+00
340  3.3900000000000D+00  0.0000000000000D+00  0.0000000000000D+00
341  3.4000000000000D+00  0.0000000000000D+00  0.0000000000000D+00
342  3.4100000000000D+00  0.0000000000000D+00  0.0000000000000D+00
343  3.4200000000000D+00  0.0000000000000D+00  0.0000000000000D+00
344  3.4300000000000D+00  0.0000000000000D+00  0.0000000000000D+00
345  3.4400000000000D+00  0.0000000000000D+00  0.0000000000000D+00
346  3.4500000000000D+00  0.0000000000000D+00  0.0000000000000D+00
347  3.4600000000000D+00  0.0000000000000D+00  0.0000000000000D+00
348  3.4700000000000D+00  0.0000000000000D+00  0.0000000000000D+00
349  3.4800000000000D+00  0.0000000000000D+00  0.0000000000000D+00
350  3.4900000000000D+00  0.0000000000000D+00  0.0000000000000D+00
351  3.5000000000000D+00  0.0000000000000D+00  0.0000000000000D+00
352  3.5100000000000D+00  0.0000000000000D+00  0.0000000000000D+00
353  3.5200000000000D+00  0.0000000000000D+00  0.0000000000000D+00
354  3.5300000000000D+00  0.0000000000000D+00  0.0000000000000D+00
355  3.5400000000000D+00  0.0000000000000D+00  0.0000000000000D+00
356  3.5500000000000D+00  0.0000000000000D+00  0.0000000000000D+00
357  3.5600000000000D+00  0.0000000000000D+00  0.0000000000000D+00
358  3.5700000000000D+00  0.0000000000000D+00  0.0000000000000D+00
359  3.5800000000000D+00  0.0000000000000D+00  0.0000000000000D+00
360  3.5900000000000D+00  0.0000000000000D+00  0.0000000000000D+00
361  3.6000000000000D+00  0.0000000000000D+00  0.0000000000000D+00
362  3.6100000000000D+00  0.0000000000000D+00  0.0000000000000D+00
363  3.6200000000000D+00  0.0000000000000D+00  0.0000000000000D+00
364  3.6300000000000D+00  0.0000000000000D+00  0.0000000000000D+00
365  3.6400000000000D+00  0.0000000000000D+00  0.0000000000000D+00
366  3.6500000000000D+00  0.0000000000000D+00  0.0000000000000D+00
367  3.6600000000000D+00  0.0000000000000D+00  0.0000000000000D+00
368  3.6700000000000D+00  0.0000000000000D+00  0.0000000000000D+00
369  3.6800000000000D+00  0.0000000000000D+00  0.0000000000000D+00
370  3.6900000000000D+00  0.0000000000000D+00  0.0000000000000D+00
371  3.7000000000000D+00  0.0000000000000D+00  0.0000000000000D+00
372  3.7100000000000D+00  0.0000000000000D+00  0.0000000000000D+00
373  3.7200000000000D+00  0.0000000000000D+00  0.0000000000000D+00
374  3.7300000000000D+00  0.0000000000000D+00  0.0000000000000D+00
375  3.7400000000000D+00  0.0000000000000D+00  0.0000000000000D+00
376  3.7500000000000D+00  0.0000000000000D+00  0.0000000000000D+00
377  3.7600000000000D+00  0.0000000000000D+00  0.0000000000000D+00
378  3.7700000000000D+00  0.0000000000000D+00  0.0000000000000D+00
379  3.7800000000000D+00  0.0000000000000D+00  0.0000000000000D+00
380  3.7900000000000D+00  0.0000000000000D+00  0.0000000000000D+00
381  3.8000000000000D+00  0.0000000000000D+00  0.0000000000000D+00
382  3.8100000000000D+00  0.0000000000000D+00  0.0000000000000D+00
383  3.8200000000000D+00  0.0000000000000D+00  0.0000000000000D+00
384  3.8300000000000D+00  0.0000000000000D+00  0.0000000000000D+00
385  3.8400000000000D+00  0.0000000000000D+00  0.0000000000000D+00
386  3.8500000000000D+00  0.0000000000000D+00  0.0000000000000D+00
387  3.8600000000000D+00  0.0000000000000D+00  0.0000000000000D+00
388  3.8700000000000D+00  0.0000000000000D+00  0.0000000000000D+00
389  3.8800000000000D+00  0.0000000000000D+00  0.0000000000000D+00
390  3.8900000000000D+00  0.0000000000000D+00  0.0000000000000D+00
391  3.9000000000000D+00  0.0000000000000D+00  0.0000000000000D+00
392  3.9100000000000D+00  0.0000000000000D+00  0.0000000000000D+00
393  3.9200000000000D+00  0.0000000000000D+00  0.0000000000000D+00
394  3.9300000000000D+00  0.0000000000000D+00  0.0000000000000D+00
395  3.9400000000000D+00  0.0000000000000D+00  0.0000000000000D+00
396  3.9500000000000D+00  0.0000000000000D+00  0.0000000000000D+00
397  3.9600000000000D+00  0.0000000000000D+00  0.0000000000000D+00
398  3.9700000000000D+00  0.0000000000000D+00  0.0000000000000D+00
399  3.9800000000000D+00  0.0000000000000D+00  0.0000000000000D+00
400  3.9900000000000D+00  0.0000000000000D+00  0.0000000000000D+00
401  4.0000000000000D+00  0.0000000000000D+00  0.0000000000000D+00
402  4.0100000000000D+00  0.0000000000000D+00  0.0000000000000D+00
403  4.0200000000000D+00  0.0000000000000D+00  0.0000000000000D+00
404  4.0300000000000D+00  0.0000000000000D+00  0.0000000000000D+00
405  4.0400000000000D+00  0.0000000000000D+00  0.0000000000000D+00
406  4.0500000000000D+00  0.0000000000000D+00  0.0000000000000D+00
407  4.0600000000000D+00  0.0000000000000D+00  0.0000000000000D+00
408  4.0700000000000D+00  0.0000000000000D+00  0.0000000000000D+00
409  4.0800000000000D+00  0.0000000000000D+00  0.0000000000000D+00
410  4.0900000000000D+00  0.0000000000000D+00  0.0000000000000D+00
411  4.1000000000000D+00  0.0000000000000D+00  0.0000000000000D+00
412  4.1100000000000D+00  0.0000000000000D+00  0.0000000000000D+00
413  4.1200000000000D+00  0.0000000000000D+00  0.0000000000000D+00
414  4.1300000000000D+00  0.0000000000000D+00  0.0000000000000D+00
415  4.1400000000000D+00  0.0000000000000D+00  0.0000000000000D+00
416  4.1500000000000D+00  0.0000000000000D+00  0.0000000000000D+00
417  4.1600000000000D+00  0.0000000000000D+00  0.0000000000000D+00
418  4.1700000000000D+00  0.0000000000000D+00  0.0000000000000D+00
419  4.1800000000000D+00  0.0000000000000D+00  0.0000000000000D+00
420  4.1900000000000D+00  0.0000000000000D+00  0.0000000000000D+00
421  4.2000000000000D+00  0.0000000000000D+00  0.0000000000000D+00
422  4.2100000000000D+00  0.0000000000000D+00  0.0000000000000D+00
423  4.2200000000000D+00  0.0000000000000D+00  0.0000000000000D+00
424  4.2300000000000D+00  0.0000000000000D+00  0.0000000000000D+00
425  4.2400000000000D+00  0.0000000000000D+00  0.0000000000000D+00
426  4.2500000000000D+00  0.0000000000000D+00  0.0000000000000D+00
427  4.2600000000000D+00  0.0000000000000D+00  0.0000000000000D+00
428  4.2700000000000D+00  0.0000000000000D+00  0.0000000000000D+00
429  4.2800000000000D+00  0.0000000000000D+00  0.0000000000000D+00
430  4.2900000000000D+00  0.0000000000000D+00  0.0000000000000D+00
431  4.3000000000000D+00  0.0000000000000D+00  0.0000000000000D+00
432  4.3100000000000D+00  0.0000000000000D+00  0.0000000000000D+00
433  4.3200000000000D+00  0.0000000000000D+00  0.0000000000000D+00
434  4.3300000000000D+00  0.0000000000000D+00  0.0000000000000D+00
435  4.3400000000000D+00  0.0000000000000D+00  0.0000000000000D+00
436  4.3500000000000D+00  0.0000000000000D+00  0.0000000000000D+00
437  4.3600000000000D+00  0.0000000000000D+00  0.0000000000000D+00
438  4.3700000000000D+00  0.0000000000000D+00  0.0000000000000D+00
439  4.3800000000000D+00  0.0000000000000D+00  0.0000000000000D+00
440  4.3900000000000D+00  0.0000000000000D+00  0.0000000000000D+00
441  4.4000000000000D+00  0.0000000000000D+00  0.0000000000000D+00
442  4.4100000000000D+00  0.0000000000000D+00  0.0000000000000D+00
443  4.4200000000000D+00  0.0000000000000D+00  0.0000000000000D+00
444  4.4300000000000D+00  0.0000000000000D+00  0.0000000000000D+00