Cl    ONCVPSP  r_core=  1.30  1.30  1.51
17.0000      7.0000      140820    zatom,zion,pspd
8    11     2     4   601     0    pspcod,pspxc,lmax,lloc,mmax,r2well
6.00000000  0.25000000  0.00000000    rchrg fchrg qchrg
2     2     2     0     0    nproj
0                 extension_switch
0                         8.7150880717202D+00  1.2997864424954D+00
1  0.0000000000000D+00  0.0000000000000D+00  0.0000000000000D+00
2  1.0000000000000D-02  4.3366812410262D-02  7.5808049573906D-03
3  2.0000000000000D-02  8.6582658857587D-02  1.5470651386666D-02
4  3.0000000000000D-02  1.2949852141755D-01  2.3973008744149D-02
5  4.0000000000000D-02  1.7196925201679D-01  3.3380278857484D-02
6  5.0000000000000D-02  2.1385544211742D-01  4.3968452177810D-02
7  6.0000000000000D-02  2.5502521501886D-01  5.5991989480550D-02
8  7.0000000000000D-02  2.9535591647152D-01  6.9678999843757D-02
9  8.0000000000000D-02  3.3473568057840D-01  8.5226782014825D-02
10  9.0000000000000D-02  3.7306484946179D-01  1.0279779191665D-01
11  1.0000000000000D-01  4.1025722707376D-01  1.2251609352972D-01
12  1.1000000000000D-01  4.4624114948508D-01  1.4446434470296D-01
13  1.2000000000000D-01  4.8096035636500D-01  1.6868136254713D-01
14  1.3000000000000D-01  5.1437465074528D-01  1.9516030613907D-01
15  1.4000000000000D-01  5.4646033715323D-01  2.2384750562501D-01
16  1.5000000000000D-01  5.7721043020158D-01  2.5464196087591D-01
17  1.6000000000000D-01  6.0663462982031D-01  2.8739552114614D-01
18  1.7000000000000D-01  6.3475906096825D-01  3.2191375209268D-01
19  1.8000000000000D-01  6.6162577976267D-01  3.5795748497425D-01
20  1.9000000000000D-01  6.8729205047121D-01  3.9524503507098D-01
21  2.0000000000000D-01  7.1182939994031D-01  4.3345507085021D-01
22  2.1000000000000D-01  7.3532246185251D-01  4.7223009748111D-01
23  2.2000000000000D-01  7.5786762165638D-01  5.1118052399978D-01
24  2.3000000000000D-01  7.7957147878197D-01  5.4988926568127D-01
25  2.4000000000000D-01  8.0054914402242D-01  5.8791682988771D-01
26  2.5000000000000D-01  8.2092239858495D-01  6.2480680794536D-01
27  2.6000000000000D-01  8.4081771823744D-01  6.6009176499419D-01
28  2.7000000000000D-01  8.6036421861265D-01  6.9329936186785D-01
29  2.8000000000000D-01  8.7969151662781D-01  7.2395872662204D-01
30  2.9000000000000D-01  8.9892755095418D-01  7.5160694930624D-01
31  3.0000000000000D-01  9.1819638660697D-01  7.7579562730641D-01
32  3.1000000000000D-01  9.3761603053525D-01  7.9609738309178D-01
33  3.2000000000000D-01  9.5729628788946D-01  8.1211226779951D-01
34  3.3000000000000D-01  9.7733670232284D-01  8.2347392309608D-01
35  3.4000000000000D-01  9.9782456136189D-01  8.2985555988340D-01
36  3.5000000000000D-01  1.0188330542173D+00  8.3097549461563D-01
37  3.6000000000000D-01  1.0404195657530D+00  8.2660229339373D-01
38  3.7000000000000D-01  1.0626241791318D+00  8.1655930809896D-01
39  3.8000000000000D-01  1.0854682843991D+00  8.0072891449827D-01
40  3.9000000000000D-01  1.1089535286680D+00  7.7905574592856D-01
41  4.0000000000000D-01  1.1330609204467D+00  7.5154948612027D-01
42  4.1000000000000D-01  1.1577502056513D+00  7.1828686907121D-01
43  4.2000000000000D-01  1.1829595094090D+00  6.7941290377228D-01
44  4.3000000000000D-01  1.2086052523409D+00  6.3514129752191D-01
45  4.4000000000000D-01  1.2345823471879D+00  5.8575405971329D-01
46  4.5000000000000D-01  1.2607646789048D+00  5.3160027584189D-01
47  4.6000000000000D-01  1.2870058685073D+00  4.7309404964300D-01
48  4.7000000000000D-01  1.3131403176670D+00  4.1071162069637D-01
49  4.8000000000000D-01  1.3389845268787D+00  3.4498767682838D-01
50  4.9000000000000D-01  1.3643386699523D+00  2.7651090728314D-01
51  5.0000000000000D-01  1.3889884005422D+00  2.0591887276228D-01
52  5.1000000000000D-01  1.4127069578027D+00  1.3389200488263D-01
53  5.2000000000000D-01  1.4352573900273D+00  6.1147212021206D-02
54  5.3000000000000D-01  1.4563949692507D+00 -1.1569058921418D-02
55  5.4000000000000D-01  1.4758700071170D+00 -8.3488928193869D-02
56  5.5000000000000D-01  1.4934302287646D+00 -1.5382999289346D-01
57  5.6000000000000D-01  1.5088241600694D+00 -2.2180509920117D-01
58  5.7000000000000D-01  1.5218034311629D+00 -2.8662910052448D-01
59  5.8000000000000D-01  1.5321264651299D+00 -3.4752955512061D-01
60  5.9000000000000D-01  1.5395605507897D+00 -4.0375285389489D-01
61  6.0000000000000D-01  1.5438859528514D+00 -4.5457619274486D-01
62  6.1000000000000D-01  1.5448974750650D+00 -4.9931226431568D-01
63  6.2000000000000D-01  1.5424084372597D+00 -5.3732091321302D-01
64  6.3000000000000D-01  1.5362527608771D+00 -5.6801536897867D-01
65  6.4000000000000D-01  1.5262868897915D+00 -5.9086800341639D-01
66  6.5000000000000D-01  1.5123936171757D+00 -6.0542166725794D-01
67  6.6000000000000D-01  1.4944828489267D+00 -6.1129214196012D-01
68  6.7000000000000D-01  1.4724934697665D+00 -6.0817381116613D-01
69  6.8000000000000D-01  1.4463955563068D+00 -5.9584639844716D-01
70  6.9000000000000D-01  1.4161914450548D+00 -5.7417838818000D-01
71  7.0000000000000D-01  1.3819162285419D+00 -5.4312878489560D-01
72  7.1000000000000D-01  1.3436385325640D+00 -5.0274973682265D-01
73  7.2000000000000D-01  1.3014604868583D+00 -4.5318679899977D-01
74  7.3000000000000D-01  1.2555185645213D+00 -3.9468187947711D-01
75  7.4000000000000D-01  1.2059820543665D+00 -3.2756912348734D-01
76  7.5000000000000D-01  1.1530525467875D+00 -2.5227388553834D-01
77  7.6000000000000D-01  1.0969627281295D+00 -1.6930967899303D-01
78  7.7000000000000D-01  1.0379748224434D+00 -7.9274113868332D-02
79  7.8000000000000D-01  9.7637869287730D-01  1.7156143881826D-02
80  7.9000000000000D-01  9.1248961910614D-01  1.1923134641371D-01
81  8.0000000000000D-01  8.4664577205753D-01  2.2613551852502D-01
82  8.1000000000000D-01  7.7920543102659D-01  3.3699405666607D-01
83  8.2000000000000D-01  7.1054387929150D-01  4.5088219907787D-01
84  8.3000000000000D-01  6.4105012975949D-01  5.6683412336653D-01
85  8.4000000000000D-01  5.7112346956816D-01  6.8385247587623D-01
86  8.5000000000000D-01  5.0116983743834D-01  8.0091842176184D-01
87  8.6000000000000D-01  4.3159808485753D-01  9.1700204369256D-01
88  8.7000000000000D-01  3.6281616073250D-01  1.0310729768142D+00
89  8.8000000000000D-01  2.9522726173344D-01  1.1421111603443D+00
90  8.9000000000000D-01  2.2922629321405D-01  1.2491167750428D+00
91  9.0000000000000D-01  1.6519529881993D-01  1.3511229416739D+00
92  9.1000000000000D-01  1.0350038724303D-01  1.4472044470786D+00
93  9.2000000000000D-01  4.4487970169527D-02  1.5364882828685D+00
94  9.3000000000000D-01 -1.1518648513678D-02  1.6181632413878D+00
95  9.4000000000000D-01 -6.4222471521187D-02  1.6914889265604D+00
96  9.5000000000000D-01 -1.1335575663163D-01  1.7558040700618D+00
97  9.6000000000000D-01 -1.5868267905274D-01  1.8105340505250D+00
98  9.7000000000000D-01 -2.0000167540339D-01  1.8551975232644D+00
99  9.8000000000000D-01 -2.3714744148195D-01  1.8894120805730D+00
100  9.9000000000000D-01 -2.6999108338917D-01  1.9128948090791D+00
101  1.0000000000000D+00 -2.9844562802434D-01  1.9254775729745D+00
102  1.0100000000000D+00 -3.2246346792371D-01  1.9271000951150D+00
103  1.0200000000000D+00 -3.4203722897712D-01  1.9178124057716D+00
104  1.0300000000000D+00 -3.5720001626795D-01  1.8977755590583D+00
105  1.0400000000000D+00 -3.6802497869981D-01  1.8672604464118D+00
106  1.0500000000000D+00 -3.7462257248901D-01  1.8266402522369D+00
107  1.0600000000000D+00 -3.7714585645109D-01  1.7764049937466D+00
108  1.0700000000000D+00 -3.7578215982141D-01  1.7171384835838D+00
109  1.0800000000000D+00 -3.7075296117506D-01  1.6495178957311D+00
110  1.0900000000000D+00 -3.6231121114857D-01  1.5743062815823D+00
111  1.1000000000000D+00 -3.5073945102981D-01  1.4923472687608D+00
112  1.1100000000000D+00 -3.3634795836746D-01  1.4045596161395D+00
113  1.1200000000000D+00 -3.1946819352946D-01  1.3119190815991D+00
114  1.1300000000000D+00 -3.0045066511682D-01  1.2154523304943D+00
115  1.1400000000000D+00 -2.7966246313437D-01  1.1162300445095D+00
116  1.1500000000000D+00 -2.5748088535695D-01  1.0153485772176D+00
117  1.1600000000000D+00 -2.3428982420759D-01  9.1392020943245D-01
118  1.1700000000000D+00 -2.1047770595331D-01  8.1306728560702D-01
119  1.1800000000000D+00 -1.8643204886467D-01  7.1390670677990D-01
120  1.1900000000000D+00 -1.6253069518422D-01  6.1752512387659D-01
121  1.2000000000000D+00 -1.3914316782720D-01  5.2498303964703D-01
122  1.2100000000000D+00 -1.1663272909017D-01  4.3732069373627D-01
123  1.2200000000000D+00 -9.5331236755734D-02  3.5548653427121D-01
124  1.2300000000000D+00 -7.5553596221761D-02  2.8037860677832D-01
125  1.2400000000000D+00 -5.7598339573595D-02  2.1284616659938D-01
126  1.2500000000000D+00 -4.1722166676079D-02  1.5361740702488D-01
127  1.2600000000000D+00 -2.8151280295297D-02  1.0333182033168D-01
128  1.2700000000000D+00 -1.7090396596547D-02  6.2565761939990D-02
129  1.2800000000000D+00 -8.6919102215350D-03  3.1745019228242D-02
130  1.2900000000000D+00 -3.1055888650761D-03  1.1314606370097D-02
131  1.3000000000000D+00 -5.1662537424441D-04  1.8656059134463D-03
132  1.3100000000000D+00  2.1639461370868D-04 -7.9712591117865D-04
133  1.3200000000000D+00  5.4980076664387D-06 -2.0148136840734D-05
134  1.3300000000000D+00  9.0557202706007D-07 -2.6458129922874D-06
135  1.3400000000000D+00  0.0000000000000D+00  0.0000000000000D+00
136  1.3500000000000D+00  0.0000000000000D+00  0.0000000000000D+00
137  1.3600000000000D+00  0.0000000000000D+00  0.0000000000000D+00
138  1.3700000000000D+00  0.0000000000000D+00  0.0000000000000D+00
139  1.3800000000000D+00  0.0000000000000D+00  0.0000000000000D+00
140  1.3900000000000D+00  0.0000000000000D+00  0.0000000000000D+00
141  1.4000000000000D+00  0.0000000000000D+00  0.0000000000000D+00
142  1.4100000000000D+00  0.0000000000000D+00  0.0000000000000D+00
143  1.4200000000000D+00  0.0000000000000D+00  0.0000000000000D+00
144  1.4300000000000D+00  0.0000000000000D+00  0.0000000000000D+00
145  1.4400000000000D+00  0.0000000000000D+00  0.0000000000000D+00
146  1.4500000000000D+00  0.0000000000000D+00  0.0000000000000D+00
147  1.4600000000000D+00  0.0000000000000D+00  0.0000000000000D+00
148  1.4700000000000D+00  0.0000000000000D+00  0.0000000000000D+00
149  1.4800000000000D+00  0.0000000000000D+00  0.0000000000000D+00
150  1.4900000000000D+00  0.0000000000000D+00  0.0000000000000D+00
151  1.5000000000000D+00  0.0000000000000D+00  0.0000000000000D+00
152  1.5100000000000D+00  0.0000000000000D+00  0.0000000000000D+00
153  1.5200000000000D+00  0.0000000000000D+00  0.0000000000000D+00
154  1.5300000000000D+00  0.0000000000000D+00  0.0000000000000D+00
155  1.5400000000000D+00  0.0000000000000D+00  0.0000000000000D+00
156  1.5500000000000D+00  0.0000000000000D+00  0.0000000000000D+00
157  1.5600000000000D+00  0.0000000000000D+00  0.0000000000000D+00
158  1.5700000000000D+00  0.0000000000000D+00  0.0000000000000D+00
159  1.5800000000000D+00  0.0000000000000D+00  0.0000000000000D+00
160  1.5900000000000D+00  0.0000000000000D+00  0.0000000000000D+00
161  1.6000000000000D+00  0.0000000000000D+00  0.0000000000000D+00
162  1.6100000000000D+00  0.0000000000000D+00  0.0000000000000D+00
163  1.6200000000000D+00  0.0000000000000D+00  0.0000000000000D+00
164  1.6300000000000D+00  0.0000000000000D+00  0.0000000000000D+00
165  1.6400000000000D+00  0.0000000000000D+00  0.0000000000000D+00
166  1.6500000000000D+00  0.0000000000000D+00  0.0000000000000D+00
167  1.6600000000000D+00  0.0000000000000D+00  0.0000000000000D+00
168  1.6700000000000D+00  0.0000000000000D+00  0.0000000000000D+00
169  1.6800000000000D+00  0.0000000000000D+00  0.0000000000000D+00
170  1.6900000000000D+00  0.0000000000000D+00  0.0000000000000D+00
171  1.7000000000000D+00  0.0000000000000D+00  0.0000000000000D+00
172  1.7100000000000D+00  0.0000000000000D+00  0.0000000000000D+00
173  1.7200000000000D+00  0.0000000000000D+00  0.0000000000000D+00
174  1.7300000000000D+00  0.0000000000000D+00  0.0000000000000D+00
175  1.7400000000000D+00  0.0000000000000D+00  0.0000000000000D+00
176  1.7500000000000D+00  0.0000000000000D+00  0.0000000000000D+00
177  1.7600000000000D+00  0.0000000000000D+00  0.0000000000000D+00
178  1.7700000000000D+00  0.0000000000000D+00  0.0000000000000D+00
179  1.7800000000000D+00  0.0000000000000D+00  0.0000000000000D+00
180  1.7900000000000D+00  0.0000000000000D+00  0.0000000000000D+00
181  1.8000000000000D+00  0.0000000000000D+00  0.0000000000000D+00
182  1.8100000000000D+00  0.0000000000000D+00  0.0000000000000D+00
183  1.8200000000000D+00  0.0000000000000D+00  0.0000000000000D+00
184  1.8300000000000D+00  0.0000000000000D+00  0.0000000000000D+00
185  1.8400000000000D+00  0.0000000000000D+00  0.0000000000000D+00
186  1.8500000000000D+00  0.0000000000000D+00  0.0000000000000D+00
187  1.8600000000000D+00  0.0000000000000D+00  0.0000000000000D+00
188  1.8700000000000D+00  0.0000000000000D+00  0.0000000000000D+00
189  1.8800000000000D+00  0.0000000000000D+00  0.0000000000000D+00
190  1.8900000000000D+00  0.0000000000000D+00  0.0000000000000D+00
191  1.9000000000000D+00  0.0000000000000D+00  0.0000000000000D+00
192  1.9100000000000D+00  0.0000000000000D+00  0.0000000000000D+00
193  1.9200000000000D+00  0.0000000000000D+00  0.0000000000000D+00
194  1.9300000000000D+00  0.0000000000000D+00  0.0000000000000D+00
195  1.9400000000000D+00  0.0000000000000D+00  0.0000000000000D+00
196  1.9500000000000D+00  0.0000000000000D+00  0.0000000000000D+00
197  1.9600000000000D+00  0.0000000000000D+00  0.0000000000000D+00
198  1.9700000000000D+00  0.0000000000000D+00  0.0000000000000D+00
199  1.9800000000000D+00  0.0000000000000D+00  0.0000000000000D+00
200  1.9900000000000D+00  0.0000000000000D+00  0.0000000000000D+00
201  2.0000000000000D+00  0.0000000000000D+00  0.0000000000000D+00
202  2.0100000000000D+00  0.0000000000000D+00  0.0000000000000D+00
203  2.0200000000000D+00  0.0000000000000D+00  0.0000000000000D+00
204  2.0300000000000D+00  0.0000000000000D+00  0.0000000000000D+00
205  2.0400000000000D+00  0.0000000000000D+00  0.0000000000000D+00
206  2.0500000000000D+00  0.0000000000000D+00  0.0000000000000D+00
207  2.0600000000000D+00  0.0000000000000D+00  0.0000000000000D+00
208  2.0700000000000D+00  0.0000000000000D+00  0.0000000000000D+00
209  2.0800000000000D+00  0.0000000000000D+00  0.0000000000000D+00
210  2.0900000000000D+00  0.0000000000000D+00  0.0000000000000D+00
211  2.1000000000000D+00  0.0000000000000D+00  0.0000000000000D+00
212  2.1100000000000D+00  0.0000000000000D+00  0.0000000000000D+00
213  2.1200000000000D+00  0.0000000000000D+00  0.0000000000000D+00
214  2.1300000000000D+00  0.0000000000000D+00  0.0000000000000D+00
215  2.1400000000000D+00  0.0000000000000D+00  0.0000000000000D+00
216  2.1500000000000D+00  0.0000000000000D+00  0.0000000000000D+00
217  2.1600000000000D+00  0.0000000000000D+00  0.0000000000000D+00
218  2.1700000000000D+00  0.0000000000000D+00  0.0000000000000D+00
219  2.1800000000000D+00  0.0000000000000D+00  0.0000000000000D+00
220  2.1900000000000D+00  0.0000000000000D+00  0.0000000000000D+00
221  2.2000000000000D+00  0.0000000000000D+00  0.0000000000000D+00
222  2.2100000000000D+00  0.0000000000000D+00  0.0000000000000D+00
223  2.2200000000000D+00  0.0000000000000D+00  0.0000000000000D+00
224  2.2300000000000D+00  0.0000000000000D+00  0.0000000000000D+00
225  2.2400000000000D+00  0.0000000000000D+00  0.0000000000000D+00
226  2.2500000000000D+00  0.0000000000000D+00  0.0000000000000D+00
227  2.2600000000000D+00  0.0000000000000D+00  0.0000000000000D+00
228  2.2700000000000D+00  0.0000000000000D+00  0.0000000000000D+00
229  2.2800000000000D+00  0.0000000000000D+00  0.0000000000000D+00
230  2.2900000000000D+00  0.0000000000000D+00  0.0000000000000D+00
231  2.3000000000000D+00  0.0000000000000D+00  0.0000000000000D+00
232  2.3100000000000D+00  0.0000000000000D+00  0.0000000000000D+00
233  2.3200000000000D+00  0.0000000000000D+00  0.0000000000000D+00
234  2.3300000000000D+00  0.0000000000000D+00  0.0000000000000D+00
235  2.3400000000000D+00  0.0000000000000D+00  0.0000000000000D+00
236  2.3500000000000D+00  0.0000000000000D+00  0.0000000000000D+00
237  2.3600000000000D+00  0.0000000000000D+00  0.0000000000000D+00
238  2.3700000000000D+00  0.0000000000000D+00  0.0000000000000D+00
239  2.3800000000000D+00  0.0000000000000D+00  0.0000000000000D+00
240  2.3900000000000D+00  0.0000000000000D+00  0.0000000000000D+00
241  2.4000000000000D+00  0.0000000000000D+00  0.0000000000000D+00
242  2.4100000000000D+00  0.0000000000000D+00  0.0000000000000D+00
243  2.4200000000000D+00  0.0000000000000D+00  0.0000000000000D+00
244  2.4300000000000D+00  0.0000000000000D+00  0.0000000000000D+00
245  2.4400000000000D+00  0.0000000000000D+00  0.0000000000000D+00
246  2.4500000000000D+00  0.0000000000000D+00  0.0000000000000D+00
247  2.4600000000000D+00  0.0000000000000D+00  0.0000000000000D+00
248  2.4700000000000D+00  0.0000000000000D+00  0.0000000000000D+00
249  2.4800000000000D+00  0.0000000000000D+00  0.0000000000000D+00
250  2.4900000000000D+00  0.0000000000000D+00  0.0000000000000D+00
251  2.5000000000000D+00  0.0000000000000D+00  0.0000000000000D+00
252  2.5100000000000D+00  0.0000000000000D+00  0.0000000000000D+00
253  2.5200000000000D+00  0.0000000000000D+00  0.0000000000000D+00
254  2.5300000000000D+00  0.0000000000000D+00  0.0000000000000D+00
255  2.5400000000000D+00  0.0000000000000D+00  0.0000000000000D+00
256  2.5500000000000D+00  0.0000000000000D+00  0.0000000000000D+00
257  2.5600000000000D+00  0.0000000000000D+00  0.0000000000000D+00
258  2.5700000000000D+00  0.0000000000000D+00  0.0000000000000D+00
259  2.5800000000000D+00  0.0000000000000D+00  0.0000000000000D+00
260  2.5900000000000D+00  0.0000000000000D+00  0.0000000000000D+00
261  2.6000000000000D+00  0.0000000000000D+00  0.0000000000000D+00
262  2.6100000000000D+00  0.0000000000000D+00  0.0000000000000D+00
263  2.6200000000000D+00  0.0000000000000D+00  0.0000000000000D+00
264  2.6300000000000D+00  0.0000000000000D+00  0.0000000000000D+00
265  2.6400000000000D+00  0.0000000000000D+00  0.0000000000000D+00
266  2.6500000000000D+00  0.0000000000000D+00  0.0000000000000D+00
267  2.6600000000000D+00  0.0000000000000D+00  0.0000000000000D+00
268  2.6700000000000D+00  0.0000000000000D+00  0.0000000000000D+00
269  2.6800000000000D+00  0.0000000000000D+00  0.0000000000000D+00
270  2.6900000000000D+00  0.0000000000000D+00  0.0000000000000D+00
271  2.7000000000000D+00  0.0000000000000D+00  0.0000000000000D+00
272  2.7100000000000D+00  0.0000000000000D+00  0.0000000000000D+00
273  2.7200000000000D+00  0.0000000000000D+00  0.0000000000000D+00
274  2.7300000000000D+00  0.0000000000000D+00  0.0000000000000D+00
275  2.7400000000000D+00  0.0000000000000D+00  0.0000000000000D+00
276  2.7500000000000D+00  0.0000000000000D+00  0.0000000000000D+00
277  2.7600000000000D+00  0.0000000000000D+00  0.0000000000000D+00
278  2.7700000000000D+00  0.0000000000000D+00  0.0000000000000D+00
279  2.7800000000000D+00  0.0000000000000D+00  0.0000000000000D+00
280  2.7900000000000D+00  0.0000000000000D+00  0.0000000000000D+00
281  2.8000000000000D+00  0.0000000000000D+00  0.0000000000000D+00
282  2.8100000000000D+00  0.0000000000000D+00  0.0000000000000D+00
283  2.8200000000000D+00  0.0000000000000D+00  0.0000000000000D+00
284  2.8300000000000D+00  0.0000000000000D+00  0.0000000000000D+00
285  2.8400000000000D+00  0.0000000000000D+00  0.0000000000000D+00
286  2.8500000000000D+00  0.0000000000000D+00  0.0000000000000D+00
287  2.8600000000000D+00  0.0000000000000D+00  0.0000000000000D+00
288  2.8700000000000D+00  0.0000000000000D+00  0.0000000000000D+00
289  2.8800000000000D+00  0.0000000000000D+00  0.0000000000000D+00
290  2.8900000000000D+00  0.0000000000000D+00  0.0000000000000D+00
291  2.9000000000000D+00  0.0000000000000D+00  0.0000000000000D+00
292  2.9100000000000D+00  0.0000000000000D+00  0.0000000000000D+00
293  2.9200000000000D+00  0.0000000000000D+00  0.0000000000000D+00
294  2.9300000000000D+00  0.0000000000000D+00  0.0000000000000D+00
295  2.9400000000000D+00  0.0000000000000D+00  0.0000000000000D+00
296  2.9500000000000D+00  0.0000000000000D+00  0.0000000000000D+00
297  2.9600000000000D+00  0.0000000000000D+00  0.0000000000000D+00
298  2.9700000000000D+00  0.0000000000000D+00  0.0000000000000D+00
299  2.9800000000000D+00  0.0000000000000D+00  0.0000000000000D+00
300  2.9900000000000D+00  0.0000000000000D+00  0.0000000000000D+00
301  3.0000000000000D+00  0.0000000000000D+00  0.0000000000000D+00
302  3.0100000000000D+00  0.0000000000000D+00  0.0000000000000D+00
303  3.0200000000000D+00  0.0000000000000D+00  0.0000000000000D+00
304  3.0300000000000D+00  0.0000000000000D+00  0.0000000000000D+00
305  3.0400000000000D+00  0.0000000000000D+00  0.0000000000000D+00
306  3.0500000000000D+00  0.0000000000000D+00  0.0000000000000D+00
307  3.0600000000000D+00  0.0000000000000D+00  0.0000000000000D+00
308  3.0700000000000D+00  0.0000000000000D+00  0.0000000000000D+00
309  3.0800000000000D+00  0.0000000000000D+00  0.0000000000000D+00
310  3.0900000000000D+00  0.0000000000000D+00  0.0000000000000D+00
311  3.1000000000000D+00  0.0000000000000D+00  0.0000000000000D+00
312  3.1100000000000D+00  0.0000000000000D+00  0.0000000000000D+00
313  3.1200000000000D+00  0.0000000000000D+00  0.0000000000000D+00
314  3.1300000000000D+00  0.0000000000000D+00  0.0000000000000D+00
315  3.1400000000000D+00  0.0000000000000D+00  0.0000000000000D+00
316  3.1500000000000D+00  0.0000000000000D+00  0.0000000000000D+00
317  3.1600000000000D+00  0.0000000000000D+00  0.0000000000000D+00
318  3.1700000000000D+00  0.0000000000000D+00  0.0000000000000D+00
319  3.1800000000000D+00  0.0000000000000D+00  0.0000000000000D+00
320  3.1900000000000D+00  0.0000000000000D+00  0.0000000000000D+00
321  3.2000000000000D+00  0.0000000000000D+00  0.0000000000000D+00
322  3.2100000000000D+00  0.0000000000000D+00  0.0000000000000D+00
323  3.2200000000000D+00  0.0000000000000D+00  0.0000000000000D+00
324  3.2300000000000D+00  0.0000000000000D+00  0.0000000000000D+00
325  3.2400000000000D+00  0.0000000000000D+00  0.0000000000000D+00
326  3.2500000000000D+00  0.0000000000000D+00  0.0000000000000D+00
327  3.2600000000000D+00  0.0000000000000D+00  0.0000000000000D+00
328  3.2700000000000D+00  0.0000000000000D+00  0.0000000000000D+00
329  3.2800000000000D+00  0.0000000000000D+00  0.0000000000000D+00
330  3.2900000000000D+00  0.0000000000000D+00  0.0000000000000D+00
331  3.3000000000000D+00  0.0000000000000D+00  0.0000000000000D+00
332  3.3100000000000D+00  0.0000000000000D+00  0.0000000000000D+00
333  3.3200000000000D+00  0.0000000000000D+00  0.0000000000000D+00
334  3.3300000000000D+00  0.0000000000000D+00  0.0000000000000D+00
335  3.3400000000000D+00  0.0000000000000D+00  0.0000000000000D+00
336  3.3500000000000D+00  0.0000000000000D+00  0.0000000000000D+00
337  3.3600000000000D+00  0.0000000000000D+00  0.0000000000000D+00
338  3.3700000000000D+00  0.0000000000000D+00  0.0000000000000D+00
339  3.3800000000000D+00  0.0000000000000D+00  0.0000000000000D+00
340  3.3900000000000D+00  0.0000000000000D+00  0.0000000000000D+00
341  3.4000000000000D+00  0.0000000000000D+00  0.0000000000000D+00
342  3.4100000000000D+00  0.0000000000000D+00  0.0000000000000D+00
343  3.4200000000000D+00  0.0000000000000D+00  0.0000000000000D+00
344  3.4300000000000D+00  0.0000000000000D+00  0.0000000000000D+00
345  3.4400000000000D+00  0.0000000000000D+00  0.0000000000000D+00
346  3.4500000000000D+00  0.0000000000000D+00  0.0000000000000D+00
347  3.4600000000000D+00  0.0000000000000D+00  0.0000000000000D+00
348  3.4700000000000D+00  0.0000000000000D+00  0.0000000000000D+00
349  3.4800000000000D+00  0.0000000000000D+00  0.0000000000000D+00
350  3.4900000000000D+00  0.0000000000000D+00  0.0000000000000D+00
351  3.5000000000000D+00  0.0000000000000D+00  0.0000000000000D+00
352  3.5100000000000D+00  0.0000000000000D+00  0.0000000000000D+00
353  3.5200000000000D+00  0.0000000000000D+00  0.0000000000000D+00
354  3.5300000000000D+00  0.0000000000000D+00  0.0000000000000D+00
355  3.5400000000000D+00  0.0000000000000D+00  0.0000000000000D+00
356  3.5500000000000D+00  0.0000000000000D+00  0.0000000000000D+00
357  3.5600000000000D+00  0.0000000000000D+00  0.0000000000000D+00
358  3.5700000000000D+00  0.0000000000000D+00  0.0000000000000D+00
359  3.5800000000000D+00  0.0000000000000D+00  0.0000000000000D+00
360  3.5900000000000D+00  0.0000000000000D+00  0.0000000000000D+00
361  3.6000000000000D+00  0.0000000000000D+00  0.0000000000000D+00
362  3.6100000000000D+00  0.0000000000000D+00  0.0000000000000D+00
363  3.6200000000000D+00  0.0000000000000D+00  0.0000000000000D+00
364  3.6300000000000D+00  0.0000000000000D+00  0.0000000000000D+00
365  3.6400000000000D+00  0.0000000000000D+00  0.0000000000000D+00
366  3.6500000000000D+00  0.0000000000000D+00  0.0000000000000D+00
367  3.6600000000000D+00  0.0000000000000D+00  0.0000000000000D+00
368  3.6700000000000D+00  0.0000000000000D+00  0.0000000000000D+00
369  3.6800000000000D+00  0.0000000000000D+00  0.0000000000000D+00
370  3.6900000000000D+00  0.0000000000000D+00  0.0000000000000D+00
371  3.7000000000000D+00  0.0000000000000D+00  0.0000000000000D+00
372  3.7100000000000D+00  0.0000000000000D+00  0.0000000000000D+00
373  3.7200000000000D+00  0.0000000000000D+00  0.0000000000000D+00
374  3.7300000000000D+00  0.0000000000000D+00  0.0000000000000D+00
375  3.7400000000000D+00  0.0000000000000D+00  0.0000000000000D+00
376  3.7500000000000D+00  0.0000000000000D+00  0.0000000000000D+00
377  3.7600000000000D+00  0.0000000000000D+00  0.0000000000000D+00
378  3.7700000000000D+00  0.0000000000000D+00  0.0000000000000D+00
379  3.7800000000000D+00  0.0000000000000D+00  0.0000000000000D+00
380  3.7900000000000D+00  0.0000000000000D+00  0.0000000000000D+00
381  3.8000000000000D+00  0.0000000000000D+00  0.0000000000000D+00
382  3.8100000000000D+00  0.0000000000000D+00  0.0000000000000D+00
383  3.8200000000000D+00  0.0000000000000D+00  0.0000000000000D+00
384  3.8300000000000D+00  0.0000000000000D+00  0.0000000000000D+00
385  3.8400000000000D+00  0.0000000000000D+00  0.0000000000000D+00
386  3.8500000000000D+00  0.0000000000000D+00  0.0000000000000D+00
387  3.8600000000000D+00  0.0000000000000D+00  0.0000000000000D+00
388  3.8700000000000D+00  0.0000000000000D+00  0.0000000000000D+00
389  3.8800000000000D+00  0.0000000000000D+00  0.0000000000000D+00
390  3.8900000000000D+00  0.0000000000000D+00  0.0000000000000D+00
391  3.9000000000000D+00  0.0000000000000D+00  0.0000000000000D+00
392  3.9100000000000D+00  0.0000000000000D+00  0.0000000000000D+00
393  3.9200000000000D+00  0.0000000000000D+00  0.0000000000000D+00
394  3.9300000000000D+00  0.0000000000000D+00  0.0000000000000D+00
395  3.9400000000000D+00  0.0000000000000D+00  0.0000000000000D+00
396  3.9500000000000D+00  0.0000000000000D+00  0.0000000000000D+00
397  3.9600000000000D+00  0.0000000000000D+00  0.0000000000000D+00
398  3.9700000000000D+00  0.0000000000000D+00  0.0000000000000D+00
399  3.9800000000000D+00  0.0000000000000D+00  0.0000000000000D+00
400  3.9900000000000D+00  0.0000000000000D+00  0.0000000000000D+00
401  4.0000000000000D+00  0.0000000000000D+00  0.0000000000000D+00
402  4.0100000000000D+00  0.0000000000000D+00  0.0000000000000D+00
403  4.0200000000000D+00  0.0000000000000D+00  0.0000000000000D+00
404  4.0300000000000D+00  0.0000000000000D+00  0.0000000000000D+00
405  4.0400000000000D+00  0.0000000000000D+00  0.0000000000000D+00
406  4.0500000000000D+00  0.0000000000000D+00  0.0000000000000D+00
407  4.0600000000000D+00  0.0000000000000D+00  0.0000000000000D+00
408  4.0700000000000D+00  0.0000000000000D+00  0.0000000000000D+00
409  4.0800000000000D+00  0.0000000000000D+00  0.0000000000000D+00
410  4.0900000000000D+00  0.0000000000000D+00  0.0000000000000D+00
411  4.1000000000000D+00  0.0000000000000D+00  0.0000000000000D+00
412  4.1100000000000D+00  0.0000000000000D+00  0.0000000000000D+00
413  4.1200000000000D+00  0.0000000000000D+00  0.0000000000000D+00
414  4.1300000000000D+00  0.0000000000000D+00  0.0000000000000D+00
415  4.1400000000000D+00  0.0000000000000D+00  0.0000000000000D+00
416  4.1500000000000D+00  0.0000000000000D+00  0.0000000000000D+00
417  4.1600000000000D+00  0.0000000000000D+00  0.0000000000000D+00
418  4.1700000000000D+00  0.0000000000000D+00  0.0000000000000D+00
419  4.1800000000000D+00  0.0000000000000D+00  0.0000000000000D+00
420  4.1900000000000D+00  0.0000000000000D+00  0.0000000000000D+00
421  4.2000000000000D+00  0.0000000000000D+00  0.0000000000000D+00
422  4.2100000000000D+00  0.0000000000000D+00  0.0000000000000D+00
423  4.2200000000000D+00  0.0000000000000D+00  0.0000000000000D+00
424  4.2300000000000D+00  0.0000000000000D+00  0.0000000000000D+00
425  4.2400000000000D+00  0.0000000000000D+00  0.0000000000000D+00
426  4.2500000000000D+00  0.0000000000000D+00  0.0000000000000D+00
427  4.2600000000000D+00  0.0000000000000D+00  0.0000000000000D+00
428  4.2700000000000D+00  0.0000000000000D+00  0.0000000000000D+00
429  4.2800000000000D+00  0.0000000000000D+00  0.0000000000000D+00
430  4.2900000000000D+00  0.0000000000000D+00  0.0000000000000D+00
431  4.3000000000000D+00  0.0000000000000D+00  0.0000000000000D+00
432  4.3100000000000D+00  0.0000000000000D+00  0.0000000000000D+00
433  4.3200000000000D+00  0.0000000000000D+00  0.0000000000000D+00
434  4.3300000000000D+00  0.0000000000000D+00  0.0000000000000D+00
435  4.3400000000000D+00  0.0000000000000D+00  0.0000000000000D+00
436  4.3500000000000D+00  0.0000000000000D+00  0.0000000000000D+00
437  4.3600000000000D+00  0.0000000000000D+00  0.0000000000000D+00
438  4.3700000000000D+00  0.0000000000000D+00  0.0000000000000D+00
439  4.3800000000000D+00  0.0000000000000D+00  0.0000000000000D+00
440  4.3900000000000D+00  0.0000000000000D+00  0.0000000000000D+00
441  4.4000000000000D+00  0.0000000000000D+00  0.0000000000000D+00
442  4.4100000000000D+00  0.0000000000000D+00  0.0000000000000D+00
443  4.4200000000000D+00  0.0000000000000D+00  0.0000000000000D+00
444  4.4300000000000D+00  0.0000000000000D+00  0.0000000000000D+00