Cl    ONCVPSP  r_core=  1.30  1.30  1.51
17.0000      7.0000      140817    zatom,zion,pspd
8    11     2     4   601     0    pspcod,pspxc,lmax,lloc,mmax,r2well
6.00000000  0.25000000  0.00000000    rchrg fchrg qchrg
2     2     2     0     0    nproj
0                 extension_switch
0                         9.5606114243733D+00  1.0450659127277D+00
1  0.0000000000000D+00 -0.0000000000000D+00  0.0000000000000D+00
2  1.0000000000000D-02 -4.5070376247104D-02  1.8802746717112D-03
3  2.0000000000000D-02 -9.0046100084694D-02  3.9218534953458D-03
4  3.0000000000000D-02 -1.3483354304929D-01  6.2828710053188D-03
5  4.0000000000000D-02 -1.7934110993701D-01  9.1151692485528D-03
6  5.0000000000000D-02 -2.2348021904158D-01  1.2561267809680D-02
7  6.0000000000000D-02 -2.6716623925212D-01  1.6751471680174D-02
8  7.0000000000000D-02 -3.1031937050129D-01  2.1801160160671D-02
9  8.0000000000000D-02 -3.5286545480168D-01  2.7808297618870D-02
10  9.0000000000000D-02 -3.9473670598805D-01  3.4851204135188D-02
11  1.0000000000000D-01 -4.3587234738693D-01  4.2986620573727D-02
12  1.1000000000000D-01 -4.7621914778306D-01  5.2248098971859D-02
13  1.2000000000000D-01 -5.1573184743151D-01  6.2644744771978D-02
14  1.3000000000000D-01 -5.5437346726041D-01  7.4160332979787D-02
15  1.4000000000000D-01 -5.9211549611179D-01  8.6752814976821D-02
16  1.5000000000000D-01 -6.2893795211759D-01  1.0035422863634D-01
17  1.6000000000000D-01 -6.6482931653967D-01  1.1487101750264D-01
18  1.7000000000000D-01 -6.9978633954655D-01  1.3018476087240D-01
19  1.8000000000000D-01 -7.3381371954405D-01  1.4615331018074D-01
20  1.9000000000000D-01 -7.6692365936934D-01  1.6261232121834D-01
21  2.0000000000000D-01 -7.9913530358885D-01  1.7937716943240D-01
22  2.1000000000000D-01 -8.3047406483463D-01  1.9624522278410D-01
23  2.2000000000000D-01 -8.6097084580109D-01  2.1299845203686D-01
24  2.3000000000000D-01 -8.9066116715524D-01  2.2940634580134D-01
25  2.4000000000000D-01 -9.1958421216046D-01  2.4522909632921D-01
26  2.5000000000000D-01 -9.4778180368500D-01  2.6022100585418D-01
27  2.6000000000000D-01 -9.7529731615564D-01  2.7413410744466D-01
28  2.7000000000000D-01 -1.0021745548615D+00  2.8672189419315D-01
29  2.8000000000000D-01 -1.0284566002385D+00  2.9774316750142D-01
30  2.9000000000000D-01 -1.0541846420012D+00  3.0696592372067D-01
31  3.0000000000000D-01 -1.0793968176965D+00  3.1417123305645D-01
32  3.1000000000000D-01 -1.1041270712596D+00  3.1915706118497D-01
33  3.2000000000000D-01 -1.1284040486092D+00  3.2174197910340D-01
34  3.3000000000000D-01 -1.1522500542941D+00  3.2176868313703D-01
35  3.4000000000000D-01 -1.1756800601589D+00  3.1910735770910D-01
36  3.5000000000000D-01 -1.1987008134206D+00  3.1365872426942D-01
37  3.6000000000000D-01 -1.2213100359222D+00  3.0535680571743D-01
38  3.7000000000000D-01 -1.2434957526492D+00  2.9417127954125D-01
39  3.8000000000000D-01 -1.2652356989335D+00  2.8010959352022D-01
40  3.9000000000000D-01 -1.2864969248708D+00  2.6321844237374D-01
41  4.0000000000000D-01 -1.3072355031989D+00  2.4358492497501D-01
42  4.1000000000000D-01 -1.3273963998565D+00  2.2133718175772D-01
43  4.2000000000000D-01 -1.3469135037188D+00  1.9664452415782D-01
44  4.3000000000000D-01 -1.3657098190946D+00  1.6971704345297D-01
45  4.4000000000000D-01 -1.3836978228403D+00  1.4080469176914D-01
46  4.5000000000000D-01 -1.4007799862536D+00  1.1019583330747D-01
47  4.6000000000000D-01 -1.4168494601156D+00  7.8215269405975D-02
48  4.7000000000000D-01 -1.4317909191643D+00  4.5221747526276D-02
49  4.8000000000000D-01 -1.4454815596473D+00  1.1604972463757D-02
50  4.9000000000000D-01 -1.4577922341073D+00 -2.2217834999518D-02
51  5.0000000000000D-01 -1.4685887158798D+00 -5.5805801448406D-02
52  5.1000000000000D-01 -1.4777331444653D+00 -8.8698839266959D-02
53  5.2000000000000D-01 -1.4850854769818D+00 -1.2042216582337D-01
54  5.3000000000000D-01 -1.4905050707682D+00 -1.5049122528122D-01
55  5.4000000000000D-01 -1.4938525108426D+00 -1.7841738819270D-01
56  5.5000000000000D-01 -1.4949910526794D+00 -2.0371253855932D-01
57  5.6000000000000D-01 -1.4937887951069D+00 -2.2589587559961D-01
58  5.7000000000000D-01 -1.4901200152684D+00 -2.4449822266197D-01
59  5.8000000000000D-01 -1.4838674685773D+00 -2.5906929084120D-01
60  5.9000000000000D-01 -1.4749235362928D+00 -2.6918144182244D-01
61  6.0000000000000D-01 -1.4631927297292D+00 -2.7443765831576D-01
62  6.1000000000000D-01 -1.4485924752209D+00 -2.7447421090678D-01
63  6.2000000000000D-01 -1.4310554599798D+00 -2.6896820938465D-01
64  6.3000000000000D-01 -1.4105307230745D+00 -2.5764126600970D-01
65  6.4000000000000D-01 -1.3869846460677D+00 -2.4026284382771D-01
66  6.5000000000000D-01 -1.3604030859912D+00 -2.1665727229660D-01
67  6.6000000000000D-01 -1.3307915953759D+00 -1.8670472121622D-01
68  6.7000000000000D-01 -1.2981763154736D+00 -1.5034432537946D-01
69  6.8000000000000D-01 -1.2626050295228D+00 -1.0757788431592D-01
70  6.9000000000000D-01 -1.2241475030064D+00 -5.8471314354014D-02
71  7.0000000000000D-01 -1.1828954766428D+00 -3.1549998191650D-03
72  7.1000000000000D-01 -1.1389627926599D+00  5.8175378447972D-02
73  7.2000000000000D-01 -1.0924850457530D+00  1.2525954116249D-01
74  7.3000000000000D-01 -1.0436196249314D+00  1.9777188461253D-01
75  7.4000000000000D-01 -9.9254448009079D-01  2.7532501257948D-01
76  7.5000000000000D-01 -9.3945738438099D-01  3.5747153035014D-01
77  7.6000000000000D-01 -8.8457479189847D-01  4.4370713762849D-01
78  7.7000000000000D-01 -8.2813047506385D-01  5.3347440560060D-01
79  7.8000000000000D-01 -7.7037395193563D-01  6.2616720846877D-01
80  7.9000000000000D-01 -7.1156871630364D-01  7.2113577168681D-01
81  8.0000000000000D-01 -6.5199029194035D-01  8.1769227957971D-01
82  8.1000000000000D-01 -5.9192413449990D-01  9.1511696212701D-01
83  8.2000000000000D-01 -5.3166329232792D-01  1.0126648737315D+00
84  8.3000000000000D-01 -4.7150608916967D-01  1.1095727590220D+00
85  8.4000000000000D-01 -4.1175362422962D-01  1.2050663890496D+00
86  8.5000000000000D-01 -3.5270721111333D-01  1.2983681328193D+00
87  8.6000000000000D-01 -2.9466576637791D-01  1.3887047026476D+00
88  8.7000000000000D-01 -2.3792317457245D-01  1.4753149914233D+00
89  8.8000000000000D-01 -1.8276565834855D-01  1.5574579147474D+00
90  8.9000000000000D-01 -1.2946941898614D-01  1.6344194990556D+00
91  9.0000000000000D-01 -7.8297478467215D-02  1.7055222305575D+00
92  9.1000000000000D-01 -2.9497744800238D-02  1.7701309640158D+00
93  9.2000000000000D-01  1.6699478611445D-02  1.8276603773301D+00
94  9.3000000000000D-01  6.0083693904453D-02  1.8775815992679D+00
95  9.4000000000000D-01  1.0046624249044D-01  1.9194283442841D+00
96  9.5000000000000D-01  1.3768214693285D-01  1.9528024783972D+00
97  9.6000000000000D-01  1.7159173822652D-01  1.9773789458562D+00
98  9.7000000000000D-01  2.0208204825602D-01  1.9929099939326D+00
99  9.8000000000000D-01  2.2906795038435D-01  1.9992286427814D+00
100  9.9000000000000D-01  2.5249201851659D-01  1.9962483905453D+00
101  1.0000000000000D+00  2.7232809058142D-01  1.9839737094416D+00
102  1.0100000000000D+00  2.8857918952514D-01  1.9624940523293D+00
103  1.0200000000000D+00  3.0127786639718D-01  1.9319848832284D+00
104  1.0300000000000D+00  3.1048609544456D-01  1.8927073749500D+00
105  1.0400000000000D+00  3.1629469712187D-01  1.8450066980429D+00
106  1.0500000000000D+00  3.1882129640481D-01  1.7893060241922D+00
107  1.0600000000000D+00  3.1821336495358D-01  1.7261152863395D+00
108  1.0700000000000D+00  3.1464244904824D-01  1.6560142097969D+00
109  1.0800000000000D+00  3.0830375704943D-01  1.5796509537170D+00
110  1.0900000000000D+00  2.9941411562385D-01  1.4977359927611D+00
111  1.1000000000000D+00  2.8821043324517D-01  1.4110374658232D+00
112  1.1100000000000D+00  2.7494768411676D-01  1.3203748213613D+00
113  1.1200000000000D+00  2.5989466536945D-01  1.2266063663863D+00
114  1.1300000000000D+00  2.4333220433018D-01  1.1306237556328D+00
115  1.1400000000000D+00  2.2555142204147D-01  1.0333468077602D+00
116  1.1500000000000D+00  2.0684808976180D-01  9.3570599481561D-01
117  1.1600000000000D+00  1.8752097073629D-01  8.3863793108650D-01
118  1.1700000000000D+00  1.6787017620784D-01  7.4308033689144D-01
119  1.1800000000000D+00  1.4819275895255D-01  6.4995851498052D-01
120  1.1900000000000D+00  1.2877607431890D-01  5.6016516221207D-01
121  1.2000000000000D+00  1.0989945618040D-01  4.7456576013166D-01
122  1.2100000000000D+00  9.1835918654307D-02  3.9400381715821D-01
123  1.2200000000000D+00  7.4832220095088D-02  3.1923981046535D-01
124  1.2300000000000D+00  5.9121007748990D-02  2.5098867480497D-01
125  1.2400000000000D+00  4.4921190280699D-02  1.8992090635378D-01
126  1.2500000000000D+00  3.2418119322859D-02  1.3660202690332D-01
127  1.2600000000000D+00  2.1772832857344D-02  9.1521016211153D-02
128  1.2700000000000D+00  1.3129041184642D-02  5.5111635077020D-02
129  1.2800000000000D+00  6.5893053717576D-03  2.7679771947501D-02
130  1.2900000000000D+00  2.2518443211931D-03  9.5465451433879D-03
131  1.3000000000000D+00  2.3870617252340D-04  1.1544504246543D-03
132  1.3100000000000D+00 -2.6819245063098D-04 -1.0151066055361D-03
133  1.3200000000000D+00 -5.4490856441150D-06 -2.1501931294326D-05
134  1.3300000000000D+00  7.8734945276847D-06  2.4020061360893D-05
135  1.3400000000000D+00  0.0000000000000D+00  0.0000000000000D+00
136  1.3500000000000D+00  0.0000000000000D+00  0.0000000000000D+00
137  1.3600000000000D+00  0.0000000000000D+00  0.0000000000000D+00
138  1.3700000000000D+00  0.0000000000000D+00  0.0000000000000D+00
139  1.3800000000000D+00  0.0000000000000D+00  0.0000000000000D+00
140  1.3900000000000D+00  0.0000000000000D+00  0.0000000000000D+00
141  1.4000000000000D+00  0.0000000000000D+00  0.0000000000000D+00
142  1.4100000000000D+00  0.0000000000000D+00  0.0000000000000D+00
143  1.4200000000000D+00  0.0000000000000D+00  0.0000000000000D+00
144  1.4300000000000D+00  0.0000000000000D+00  0.0000000000000D+00
145  1.4400000000000D+00  0.0000000000000D+00  0.0000000000000D+00
146  1.4500000000000D+00  0.0000000000000D+00  0.0000000000000D+00
147  1.4600000000000D+00  0.0000000000000D+00  0.0000000000000D+00
148  1.4700000000000D+00  0.0000000000000D+00  0.0000000000000D+00
149  1.4800000000000D+00  0.0000000000000D+00  0.0000000000000D+00
150  1.4900000000000D+00  0.0000000000000D+00  0.0000000000000D+00
151  1.5000000000000D+00  0.0000000000000D+00  0.0000000000000D+00
152  1.5100000000000D+00  0.0000000000000D+00  0.0000000000000D+00
153  1.5200000000000D+00  0.0000000000000D+00  0.0000000000000D+00
154  1.5300000000000D+00  0.0000000000000D+00  0.0000000000000D+00
155  1.5400000000000D+00  0.0000000000000D+00  0.0000000000000D+00
156  1.5500000000000D+00  0.0000000000000D+00  0.0000000000000D+00
157  1.5600000000000D+00  0.0000000000000D+00  0.0000000000000D+00
158  1.5700000000000D+00  0.0000000000000D+00  0.0000000000000D+00
159  1.5800000000000D+00  0.0000000000000D+00  0.0000000000000D+00
160  1.5900000000000D+00  0.0000000000000D+00  0.0000000000000D+00
161  1.6000000000000D+00  0.0000000000000D+00  0.0000000000000D+00
162  1.6100000000000D+00  0.0000000000000D+00  0.0000000000000D+00
163  1.6200000000000D+00  0.0000000000000D+00  0.0000000000000D+00
164  1.6300000000000D+00  0.0000000000000D+00  0.0000000000000D+00
165  1.6400000000000D+00  0.0000000000000D+00  0.0000000000000D+00
166  1.6500000000000D+00  0.0000000000000D+00  0.0000000000000D+00
167  1.6600000000000D+00  0.0000000000000D+00  0.0000000000000D+00
168  1.6700000000000D+00  0.0000000000000D+00  0.0000000000000D+00
169  1.6800000000000D+00  0.0000000000000D+00  0.0000000000000D+00
170  1.6900000000000D+00  0.0000000000000D+00  0.0000000000000D+00
171  1.7000000000000D+00  0.0000000000000D+00  0.0000000000000D+00
172  1.7100000000000D+00  0.0000000000000D+00  0.0000000000000D+00
173  1.7200000000000D+00  0.0000000000000D+00  0.0000000000000D+00
174  1.7300000000000D+00  0.0000000000000D+00  0.0000000000000D+00
175  1.7400000000000D+00  0.0000000000000D+00  0.0000000000000D+00
176  1.7500000000000D+00  0.0000000000000D+00  0.0000000000000D+00
177  1.7600000000000D+00  0.0000000000000D+00  0.0000000000000D+00
178  1.7700000000000D+00  0.0000000000000D+00  0.0000000000000D+00
179  1.7800000000000D+00  0.0000000000000D+00  0.0000000000000D+00
180  1.7900000000000D+00  0.0000000000000D+00  0.0000000000000D+00
181  1.8000000000000D+00  0.0000000000000D+00  0.0000000000000D+00
182  1.8100000000000D+00  0.0000000000000D+00  0.0000000000000D+00
183  1.8200000000000D+00  0.0000000000000D+00  0.0000000000000D+00
184  1.8300000000000D+00  0.0000000000000D+00  0.0000000000000D+00
185  1.8400000000000D+00  0.0000000000000D+00  0.0000000000000D+00
186  1.8500000000000D+00  0.0000000000000D+00  0.0000000000000D+00
187  1.8600000000000D+00  0.0000000000000D+00  0.0000000000000D+00
188  1.8700000000000D+00  0.0000000000000D+00  0.0000000000000D+00
189  1.8800000000000D+00  0.0000000000000D+00  0.0000000000000D+00
190  1.8900000000000D+00  0.0000000000000D+00  0.0000000000000D+00
191  1.9000000000000D+00  0.0000000000000D+00  0.0000000000000D+00
192  1.9100000000000D+00  0.0000000000000D+00  0.0000000000000D+00
193  1.9200000000000D+00  0.0000000000000D+00  0.0000000000000D+00
194  1.9300000000000D+00  0.0000000000000D+00  0.0000000000000D+00
195  1.9400000000000D+00  0.0000000000000D+00  0.0000000000000D+00
196  1.9500000000000D+00  0.0000000000000D+00  0.0000000000000D+00
197  1.9600000000000D+00  0.0000000000000D+00  0.0000000000000D+00
198  1.9700000000000D+00  0.0000000000000D+00  0.0000000000000D+00
199  1.9800000000000D+00  0.0000000000000D+00  0.0000000000000D+00
200  1.9900000000000D+00  0.0000000000000D+00  0.0000000000000D+00
201  2.0000000000000D+00  0.0000000000000D+00  0.0000000000000D+00
202  2.0100000000000D+00  0.0000000000000D+00  0.0000000000000D+00
203  2.0200000000000D+00  0.0000000000000D+00  0.0000000000000D+00
204  2.0300000000000D+00  0.0000000000000D+00  0.0000000000000D+00
205  2.0400000000000D+00  0.0000000000000D+00  0.0000000000000D+00
206  2.0500000000000D+00  0.0000000000000D+00  0.0000000000000D+00
207  2.0600000000000D+00  0.0000000000000D+00  0.0000000000000D+00
208  2.0700000000000D+00  0.0000000000000D+00  0.0000000000000D+00
209  2.0800000000000D+00  0.0000000000000D+00  0.0000000000000D+00
210  2.0900000000000D+00  0.0000000000000D+00  0.0000000000000D+00
211  2.1000000000000D+00  0.0000000000000D+00  0.0000000000000D+00
212  2.1100000000000D+00  0.0000000000000D+00  0.0000000000000D+00
213  2.1200000000000D+00  0.0000000000000D+00  0.0000000000000D+00
214  2.1300000000000D+00  0.0000000000000D+00  0.0000000000000D+00
215  2.1400000000000D+00  0.0000000000000D+00  0.0000000000000D+00
216  2.1500000000000D+00  0.0000000000000D+00  0.0000000000000D+00
217  2.1600000000000D+00  0.0000000000000D+00  0.0000000000000D+00
218  2.1700000000000D+00  0.0000000000000D+00  0.0000000000000D+00
219  2.1800000000000D+00  0.0000000000000D+00  0.0000000000000D+00
220  2.1900000000000D+00  0.0000000000000D+00  0.0000000000000D+00
221  2.2000000000000D+00  0.0000000000000D+00  0.0000000000000D+00
222  2.2100000000000D+00  0.0000000000000D+00  0.0000000000000D+00
223  2.2200000000000D+00  0.0000000000000D+00  0.0000000000000D+00
224  2.2300000000000D+00  0.0000000000000D+00  0.0000000000000D+00
225  2.2400000000000D+00  0.0000000000000D+00  0.0000000000000D+00
226  2.2500000000000D+00  0.0000000000000D+00  0.0000000000000D+00
227  2.2600000000000D+00  0.0000000000000D+00  0.0000000000000D+00
228  2.2700000000000D+00  0.0000000000000D+00  0.0000000000000D+00
229  2.2800000000000D+00  0.0000000000000D+00  0.0000000000000D+00
230  2.2900000000000D+00  0.0000000000000D+00  0.0000000000000D+00
231  2.3000000000000D+00  0.0000000000000D+00  0.0000000000000D+00
232  2.3100000000000D+00  0.0000000000000D+00  0.0000000000000D+00
233  2.3200000000000D+00  0.0000000000000D+00  0.0000000000000D+00
234  2.3300000000000D+00  0.0000000000000D+00  0.0000000000000D+00
235  2.3400000000000D+00  0.0000000000000D+00  0.0000000000000D+00
236  2.3500000000000D+00  0.0000000000000D+00  0.0000000000000D+00
237  2.3600000000000D+00  0.0000000000000D+00  0.0000000000000D+00
238  2.3700000000000D+00  0.0000000000000D+00  0.0000000000000D+00
239  2.3800000000000D+00  0.0000000000000D+00  0.0000000000000D+00
240  2.3900000000000D+00  0.0000000000000D+00  0.0000000000000D+00
241  2.4000000000000D+00  0.0000000000000D+00  0.0000000000000D+00
242  2.4100000000000D+00  0.0000000000000D+00  0.0000000000000D+00
243  2.4200000000000D+00  0.0000000000000D+00  0.0000000000000D+00
244  2.4300000000000D+00  0.0000000000000D+00  0.0000000000000D+00
245  2.4400000000000D+00  0.0000000000000D+00  0.0000000000000D+00
246  2.4500000000000D+00  0.0000000000000D+00  0.0000000000000D+00
247  2.4600000000000D+00  0.0000000000000D+00  0.0000000000000D+00
248  2.4700000000000D+00  0.0000000000000D+00  0.0000000000000D+00
249  2.4800000000000D+00  0.0000000000000D+00  0.0000000000000D+00
250  2.4900000000000D+00  0.0000000000000D+00  0.0000000000000D+00
251  2.5000000000000D+00  0.0000000000000D+00  0.0000000000000D+00
252  2.5100000000000D+00  0.0000000000000D+00  0.0000000000000D+00
253  2.5200000000000D+00  0.0000000000000D+00  0.0000000000000D+00
254  2.5300000000000D+00  0.0000000000000D+00  0.0000000000000D+00
255  2.5400000000000D+00  0.0000000000000D+00  0.0000000000000D+00
256  2.5500000000000D+00  0.0000000000000D+00  0.0000000000000D+00
257  2.5600000000000D+00  0.0000000000000D+00  0.0000000000000D+00
258  2.5700000000000D+00  0.0000000000000D+00  0.0000000000000D+00
259  2.5800000000000D+00  0.0000000000000D+00  0.0000000000000D+00
260  2.5900000000000D+00  0.0000000000000D+00  0.0000000000000D+00
261  2.6000000000000D+00  0.0000000000000D+00  0.0000000000000D+00
262  2.6100000000000D+00  0.0000000000000D+00  0.0000000000000D+00
263  2.6200000000000D+00  0.0000000000000D+00  0.0000000000000D+00
264  2.6300000000000D+00  0.0000000000000D+00  0.0000000000000D+00
265  2.6400000000000D+00  0.0000000000000D+00  0.0000000000000D+00
266  2.6500000000000D+00  0.0000000000000D+00  0.0000000000000D+00
267  2.6600000000000D+00  0.0000000000000D+00  0.0000000000000D+00
268  2.6700000000000D+00  0.0000000000000D+00  0.0000000000000D+00
269  2.6800000000000D+00  0.0000000000000D+00  0.0000000000000D+00
270  2.6900000000000D+00  0.0000000000000D+00  0.0000000000000D+00
271  2.7000000000000D+00  0.0000000000000D+00  0.0000000000000D+00
272  2.7100000000000D+00  0.0000000000000D+00  0.0000000000000D+00
273  2.7200000000000D+00  0.0000000000000D+00  0.0000000000000D+00
274  2.7300000000000D+00  0.0000000000000D+00  0.0000000000000D+00
275  2.7400000000000D+00  0.0000000000000D+00  0.0000000000000D+00
276  2.7500000000000D+00  0.0000000000000D+00  0.0000000000000D+00
277  2.7600000000000D+00  0.0000000000000D+00  0.0000000000000D+00
278  2.7700000000000D+00  0.0000000000000D+00  0.0000000000000D+00
279  2.7800000000000D+00  0.0000000000000D+00  0.0000000000000D+00
280  2.7900000000000D+00  0.0000000000000D+00  0.0000000000000D+00
281  2.8000000000000D+00  0.0000000000000D+00  0.0000000000000D+00
282  2.8100000000000D+00  0.0000000000000D+00  0.0000000000000D+00
283  2.8200000000000D+00  0.0000000000000D+00  0.0000000000000D+00
284  2.8300000000000D+00  0.0000000000000D+00  0.0000000000000D+00
285  2.8400000000000D+00  0.0000000000000D+00  0.0000000000000D+00
286  2.8500000000000D+00  0.0000000000000D+00  0.0000000000000D+00
287  2.8600000000000D+00  0.0000000000000D+00  0.0000000000000D+00
288  2.8700000000000D+00  0.0000000000000D+00  0.0000000000000D+00
289  2.8800000000000D+00  0.0000000000000D+00  0.0000000000000D+00
290  2.8900000000000D+00  0.0000000000000D+00  0.0000000000000D+00
291  2.9000000000000D+00  0.0000000000000D+00  0.0000000000000D+00
292  2.9100000000000D+00  0.0000000000000D+00  0.0000000000000D+00
293  2.9200000000000D+00  0.0000000000000D+00  0.0000000000000D+00
294  2.9300000000000D+00  0.0000000000000D+00  0.0000000000000D+00
295  2.9400000000000D+00  0.0000000000000D+00  0.0000000000000D+00
296  2.9500000000000D+00  0.0000000000000D+00  0.0000000000000D+00
297  2.9600000000000D+00  0.0000000000000D+00  0.0000000000000D+00
298  2.9700000000000D+00  0.0000000000000D+00  0.0000000000000D+00
299  2.9800000000000D+00  0.0000000000000D+00  0.0000000000000D+00
300  2.9900000000000D+00  0.0000000000000D+00  0.0000000000000D+00
301  3.0000000000000D+00  0.0000000000000D+00  0.0000000000000D+00
302  3.0100000000000D+00  0.0000000000000D+00  0.0000000000000D+00
303  3.0200000000000D+00  0.0000000000000D+00  0.0000000000000D+00
304  3.0300000000000D+00  0.0000000000000D+00  0.0000000000000D+00
305  3.0400000000000D+00  0.0000000000000D+00  0.0000000000000D+00
306  3.0500000000000D+00  0.0000000000000D+00  0.0000000000000D+00
307  3.0600000000000D+00  0.0000000000000D+00  0.0000000000000D+00
308  3.0700000000000D+00  0.0000000000000D+00  0.0000000000000D+00
309  3.0800000000000D+00  0.0000000000000D+00  0.0000000000000D+00
310  3.0900000000000D+00  0.0000000000000D+00  0.0000000000000D+00
311  3.1000000000000D+00  0.0000000000000D+00  0.0000000000000D+00
312  3.1100000000000D+00  0.0000000000000D+00  0.0000000000000D+00
313  3.1200000000000D+00  0.0000000000000D+00  0.0000000000000D+00
314  3.1300000000000D+00  0.0000000000000D+00  0.0000000000000D+00
315  3.1400000000000D+00  0.0000000000000D+00  0.0000000000000D+00
316  3.1500000000000D+00  0.0000000000000D+00  0.0000000000000D+00
317  3.1600000000000D+00  0.0000000000000D+00  0.0000000000000D+00
318  3.1700000000000D+00  0.0000000000000D+00  0.0000000000000D+00
319  3.1800000000000D+00  0.0000000000000D+00  0.0000000000000D+00
320  3.1900000000000D+00  0.0000000000000D+00  0.0000000000000D+00
321  3.2000000000000D+00  0.0000000000000D+00  0.0000000000000D+00
322  3.2100000000000D+00  0.0000000000000D+00  0.0000000000000D+00
323  3.2200000000000D+00  0.0000000000000D+00  0.0000000000000D+00
324  3.2300000000000D+00  0.0000000000000D+00  0.0000000000000D+00
325  3.2400000000000D+00  0.0000000000000D+00  0.0000000000000D+00
326  3.2500000000000D+00  0.0000000000000D+00  0.0000000000000D+00
327  3.2600000000000D+00  0.0000000000000D+00  0.0000000000000D+00
328  3.2700000000000D+00  0.0000000000000D+00  0.0000000000000D+00
329  3.2800000000000D+00  0.0000000000000D+00  0.0000000000000D+00
330  3.2900000000000D+00  0.0000000000000D+00  0.0000000000000D+00
331  3.3000000000000D+00  0.0000000000000D+00  0.0000000000000D+00
332  3.3100000000000D+00  0.0000000000000D+00  0.0000000000000D+00
333  3.3200000000000D+00  0.0000000000000D+00  0.0000000000000D+00
334  3.3300000000000D+00  0.0000000000000D+00  0.0000000000000D+00
335  3.3400000000000D+00  0.0000000000000D+00  0.0000000000000D+00
336  3.3500000000000D+00  0.0000000000000D+00  0.0000000000000D+00
337  3.3600000000000D+00  0.0000000000000D+00  0.0000000000000D+00
338  3.3700000000000D+00  0.0000000000000D+00  0.0000000000000D+00
339  3.3800000000000D+00  0.0000000000000D+00  0.0000000000000D+00
340  3.3900000000000D+00  0.0000000000000D+00  0.0000000000000D+00
341  3.4000000000000D+00  0.0000000000000D+00  0.0000000000000D+00
342  3.4100000000000D+00  0.0000000000000D+00  0.0000000000000D+00
343  3.4200000000000D+00  0.0000000000000D+00  0.0000000000000D+00
344  3.4300000000000D+00  0.0000000000000D+00  0.0000000000000D+00
345  3.4400000000000D+00  0.0000000000000D+00  0.0000000000000D+00
346  3.4500000000000D+00  0.0000000000000D+00  0.0000000000000D+00
347  3.4600000000000D+00  0.0000000000000D+00  0.0000000000000D+00
348  3.4700000000000D+00  0.0000000000000D+00  0.0000000000000D+00
349  3.4800000000000D+00  0.0000000000000D+00  0.0000000000000D+00
350  3.4900000000000D+00  0.0000000000000D+00  0.0000000000000D+00
351  3.5000000000000D+00  0.0000000000000D+00  0.0000000000000D+00
352  3.5100000000000D+00  0.0000000000000D+00  0.0000000000000D+00
353  3.5200000000000D+00  0.0000000000000D+00  0.0000000000000D+00
354  3.5300000000000D+00  0.0000000000000D+00  0.0000000000000D+00
355  3.5400000000000D+00  0.0000000000000D+00  0.0000000000000D+00
356  3.5500000000000D+00  0.0000000000000D+00  0.0000000000000D+00
357  3.5600000000000D+00  0.0000000000000D+00  0.0000000000000D+00
358  3.5700000000000D+00  0.0000000000000D+00  0.0000000000000D+00
359  3.5800000000000D+00  0.0000000000000D+00  0.0000000000000D+00
360  3.5900000000000D+00  0.0000000000000D+00  0.0000000000000D+00
361  3.6000000000000D+00  0.0000000000000D+00  0.0000000000000D+00
362  3.6100000000000D+00  0.0000000000000D+00  0.0000000000000D+00
363  3.6200000000000D+00  0.0000000000000D+00  0.0000000000000D+00
364  3.6300000000000D+00  0.0000000000000D+00  0.0000000000000D+00
365  3.6400000000000D+00  0.0000000000000D+00  0.0000000000000D+00
366  3.6500000000000D+00  0.0000000000000D+00  0.0000000000000D+00
367  3.6600000000000D+00  0.0000000000000D+00  0.0000000000000D+00
368  3.6700000000000D+00  0.0000000000000D+00  0.0000000000000D+00
369  3.6800000000000D+00  0.0000000000000D+00  0.0000000000000D+00
370  3.6900000000000D+00  0.0000000000000D+00  0.0000000000000D+00
371  3.7000000000000D+00  0.0000000000000D+00  0.0000000000000D+00
372  3.7100000000000D+00  0.0000000000000D+00  0.0000000000000D+00
373  3.7200000000000D+00  0.0000000000000D+00  0.0000000000000D+00
374  3.7300000000000D+00  0.0000000000000D+00  0.0000000000000D+00
375  3.7400000000000D+00  0.0000000000000D+00  0.0000000000000D+00
376  3.7500000000000D+00  0.0000000000000D+00  0.0000000000000D+00
377  3.7600000000000D+00  0.0000000000000D+00  0.0000000000000D+00
378  3.7700000000000D+00  0.0000000000000D+00  0.0000000000000D+00
379  3.7800000000000D+00  0.0000000000000D+00  0.0000000000000D+00
380  3.7900000000000D+00  0.0000000000000D+00  0.0000000000000D+00
381  3.8000000000000D+00  0.0000000000000D+00  0.0000000000000D+00
382  3.8100000000000D+00  0.0000000000000D+00  0.0000000000000D+00
383  3.8200000000000D+00  0.0000000000000D+00  0.0000000000000D+00
384  3.8300000000000D+00  0.0000000000000D+00  0.0000000000000D+00
385  3.8400000000000D+00  0.0000000000000D+00  0.0000000000000D+00
386  3.8500000000000D+00  0.0000000000000D+00  0.0000000000000D+00
387  3.8600000000000D+00  0.0000000000000D+00  0.0000000000000D+00
388  3.8700000000000D+00  0.0000000000000D+00  0.0000000000000D+00
389  3.8800000000000D+00  0.0000000000000D+00  0.0000000000000D+00
390  3.8900000000000D+00  0.0000000000000D+00  0.0000000000000D+00
391  3.9000000000000D+00  0.0000000000000D+00  0.0000000000000D+00
392  3.9100000000000D+00  0.0000000000000D+00  0.0000000000000D+00
393  3.9200000000000D+00  0.0000000000000D+00  0.0000000000000D+00
394  3.9300000000000D+00  0.0000000000000D+00  0.0000000000000D+00
395  3.9400000000000D+00  0.0000000000000D+00  0.0000000000000D+00
396  3.9500000000000D+00  0.0000000000000D+00  0.0000000000000D+00
397  3.9600000000000D+00  0.0000000000000D+00  0.0000000000000D+00
398  3.9700000000000D+00  0.0000000000000D+00  0.0000000000000D+00
399  3.9800000000000D+00  0.0000000000000D+00  0.0000000000000D+00
400  3.9900000000000D+00  0.0000000000000D+00  0.0000000000000D+00
401  4.0000000000000D+00  0.0000000000000D+00  0.0000000000000D+00
402  4.0100000000000D+00  0.0000000000000D+00  0.0000000000000D+00
403  4.0200000000000D+00  0.0000000000000D+00  0.0000000000000D+00
404  4.0300000000000D+00  0.0000000000000D+00  0.0000000000000D+00
405  4.0400000000000D+00  0.0000000000000D+00  0.0000000000000D+00
406  4.0500000000000D+00  0.0000000000000D+00  0.0000000000000D+00
407  4.0600000000000D+00  0.0000000000000D+00  0.0000000000000D+00
408  4.0700000000000D+00  0.0000000000000D+00  0.0000000000000D+00
409  4.0800000000000D+00  0.0000000000000D+00  0.0000000000000D+00
410  4.0900000000000D+00  0.0000000000000D+00  0.0000000000000D+00
411  4.1000000000000D+00  0.0000000000000D+00  0.0000000000000D+00
412  4.1100000000000D+00  0.0000000000000D+00  0.0000000000000D+00
413  4.1200000000000D+00  0.0000000000000D+00  0.0000000000000D+00
414  4.1300000000000D+00  0.0000000000000D+00  0.0000000000000D+00
415  4.1400000000000D+00  0.0000000000000D+00  0.0000000000000D+00
416  4.1500000000000D+00  0.0000000000000D+00  0.0000000000000D+00
417  4.1600000000000D+00  0.0000000000000D+00  0.0000000000000D+00
418  4.1700000000000D+00  0.0000000000000D+00  0.0000000000000D+00
419  4.1800000000000D+00  0.0000000000000D+00  0.0000000000000D+00
420  4.1900000000000D+00  0.0000000000000D+00  0.0000000000000D+00
421  4.2000000000000D+00  0.0000000000000D+00  0.0000000000000D+00
422  4.2100000000000D+00  0.0000000000000D+00  0.0000000000000D+00
423  4.2200000000000D+00  0.0000000000000D+00  0.0000000000000D+00
424  4.2300000000000D+00  0.0000000000000D+00  0.0000000000000D+00
425  4.2400000000000D+00  0.0000000000000D+00  0.0000000000000D+00
426  4.2500000000000D+00  0.0000000000000D+00  0.0000000000000D+00
427  4.2600000000000D+00  0.0000000000000D+00  0.0000000000000D+00
428  4.2700000000000D+00  0.0000000000000D+00  0.0000000000000D+00
429  4.2800000000000D+00  0.0000000000000D+00  0.0000000000000D+00
430  4.2900000000000D+00  0.0000000000000D+00  0.0000000000000D+00
431  4.3000000000000D+00  0.0000000000000D+00  0.0000000000000D+00
432  4.3100000000000D+00  0.0000000000000D+00  0.0000000000000D+00
433  4.3200000000000D+00  0.0000000000000D+00  0.0000000000000D+00
434  4.3300000000000D+00  0.0000000000000D+00  0.0000000000000D+00
435  4.3400000000000D+00  0.0000000000000D+00  0.0000000000000D+00
436  4.3500000000000D+00  0.0000000000000D+00  0.0000000000000D+00
437  4.3600000000000D+00  0.0000000000000D+00  0.0000000000000D+00
438  4.3700000000000D+00  0.0000000000000D+00  0.0000000000000D+00
439  4.3800000000000D+00  0.0000000000000D+00  0.0000000000000D+00
440  4.3900000000000D+00  0.0000000000000D+00  0.0000000000000D+00
441  4.4000000000000D+00  0.0000000000000D+00  0.0000000000000D+00
442  4.4100000000000D+00  0.0000000000000D+00  0.0000000000000D+00
443  4.4200000000000D+00  0.0000000000000D+00  0.0000000000000D+00
444  4.4300000000000D+00  0.0000000000000D+00  0.0000000000000D+00