Os    ONCVPSP  r_core=  1.46  1.51  1.46
76.0000     16.0000      140903    zatom,zion,pspd
8    11     2     4   601     0    pspcod,pspxc,lmax,lloc,mmax,r2well
6.00000000  0.65000000  0.00000000    rchrg fchrg qchrg
2     2     2     0     0    nproj
0                 extension_switch
0                         1.7999367521193D+01  1.9020790313333D+00
1  0.0000000000000D+00 -0.0000000000000D+00  0.0000000000000D+00
2  1.0000000000000D-02 -6.5594857507017D-02  6.7943517725552D-03
3  2.0000000000000D-02 -1.3111903273555D-01  1.3645615117210D-02
4  3.0000000000000D-02 -1.9650134987790D-01  2.0609150103487D-02
5  4.0000000000000D-02 -2.6166965368013D-01  2.7737232223941D-02
6  5.0000000000000D-02 -3.2655033867295D-01  3.5077555997883D-02
7  6.0000000000000D-02 -3.9106790093557D-01  4.2671793150890D-02
8  7.0000000000000D-02 -4.5514451954930D-01  5.0554222732829D-02
9  8.0000000000000D-02 -5.1869967460431D-01  5.8750449855411D-02
10  9.0000000000000D-02 -5.8164980824816D-01  6.7276228847540D-02
11  1.0000000000000D-01 -6.4390803483804D-01  7.6136405636059D-02
12  1.1000000000000D-01 -7.0538390575740D-01  8.5323992984595D-02
13  1.2000000000000D-01 -7.6598323389819D-01  9.4819390908473D-02
14  1.3000000000000D-01 -8.2560798220523D-01  1.0458976316347D-01
15  1.4000000000000D-01 -8.8415622003935D-01  1.1458857927749D-01
16  1.5000000000000D-01 -9.4152215035659D-01  1.2475532961601D-01
17  1.6000000000000D-01 -9.9759621005125D-01  1.3501541981989D-01
18  1.7000000000000D-01 -1.0522652449705D+00  1.4528024843528D-01
19  1.8000000000000D-01 -1.1054127603279D+00  1.5544747042907D-01
20  1.9000000000000D-01 -1.1569192465930D+00  1.6540144688552D-01
21  2.0000000000000D-01 -1.2066625794549D+00  1.7501387904327D-01
22  2.1000000000000D-01 -1.2545184934315D+00  1.8414462463493D-01
23  2.2000000000000D-01 -1.3003611247827D+00  1.9264268917796D-01
24  2.3000000000000D-01 -1.3440636221836D+00  2.0034738712802D-01
25  2.4000000000000D-01 -1.3854988190028D+00  2.0708966070948D-01
26  2.5000000000000D-01 -1.4245399673101D+00  2.1269355449231D-01
27  2.6000000000000D-01 -1.4610615173572D+00  2.1697781365540D-01
28  2.7000000000000D-01 -1.4949399532882D+00  2.1975762339893D-01
29  2.8000000000000D-01 -1.5260546589949D+00  2.2084643779789D-01
30  2.9000000000000D-01 -1.5542888216488D+00  2.2005790950356D-01
31  3.0000000000000D-01 -1.5795303584306D+00  2.1720788984793D-01
32  3.1000000000000D-01 -1.6016728592367D+00  2.1211648230849D-01
33  3.2000000000000D-01 -1.6206165312126D+00  2.0461011771053D-01
34  3.3000000000000D-01 -1.6362691583361D+00  1.9452367747202D-01
35  3.4000000000000D-01 -1.6485470292489D+00  1.8170256449086D-01
36  3.5000000000000D-01 -1.6573758538419D+00  1.6600476235384D-01
37  3.6000000000000D-01 -1.6626916588511D+00  1.4730286184799D-01
38  3.7000000000000D-01 -1.6644416368530D+00  1.2548599763841D-01
39  3.8000000000000D-01 -1.6625849310596D+00  1.0046165461061D-01
40  3.9000000000000D-01 -1.6570934041913D+00  7.2157449335816D-02
41  4.0000000000000D-01 -1.6479523091455D+00  4.0522704791413D-02
42  4.1000000000000D-01 -1.6351608902965D+00  5.5298800137767D-03
43  4.2000000000000D-01 -1.6187329134105D+00 -3.2824149993488D-02
44  4.3000000000000D-01 -1.5986971034878D+00 -7.4517010864636D-02
45  4.4000000000000D-01 -1.5750974878932D+00 -1.1949994864172D-01
46  4.5000000000000D-01 -1.5479936390596D+00 -1.6769716608497D-01
47  4.6000000000000D-01 -1.5174608116611D+00 -2.1900538748592D-01
48  4.7000000000000D-01 -1.4835899676508D+00 -2.7329366775075D-01
49  4.8000000000000D-01 -1.4464876886613D+00 -3.3040344800171D-01
50  4.9000000000000D-01 -1.4062760039732D+00 -3.9014878547381D-01
51  5.0000000000000D-01 -1.3630920414737D+00 -4.5231698496889D-01
52  5.1000000000000D-01 -1.3170875998998D+00 -5.1666939918798D-01
53  5.2000000000000D-01 -1.2684286241108D+00 -5.8294242725267D-01
54  5.3000000000000D-01 -1.2172945219988D+00 -6.5084886722130D-01
55  5.4000000000000D-01 -1.1638774085300D+00 -7.2007945550688D-01
56  5.5000000000000D-01 -1.1083812003393D+00 -7.9030465814151D-01
57  5.6000000000000D-01 -1.0510206794045D+00 -8.6117663023637D-01
58  5.7000000000000D-01 -9.9202034794994D-01 -9.3233152561261D-01
59  5.8000000000000D-01 -9.3161335857203D-01 -1.0033917361118D+00
60  5.9000000000000D-01 -8.7004010706382D-01 -1.0739687617760D+00
61  6.0000000000000D-01 -8.0754718268199D-01 -1.1436654270821D+00
62  6.1000000000000D-01 -7.4438557730583D-01 -1.2120795332416D+00
63  6.2000000000000D-01 -6.8080967815106D-01 -1.2788059920000D+00
64  6.3000000000000D-01 -6.1707551316332D-01 -1.3434404231113D+00
65  6.4000000000000D-01 -5.5343919698043D-01 -1.4055823606558D+00
66  6.5000000000000D-01 -4.9015571591177D-01 -1.4648377680726D+00
67  6.6000000000000D-01 -4.2747708883554D-01 -1.5208227942765D+00
68  6.7000000000000D-01 -3.6565076595638D-01 -1.5731670402136D+00
69  6.8000000000000D-01 -3.0491838163691D-01 -1.6215160915687D+00
70  6.9000000000000D-01 -2.4551432224263D-01 -1.6655344039826D+00
71  7.0000000000000D-01 -1.8766383021266D-01 -1.7049090984259D+00
72  7.1000000000000D-01 -1.3158185015272D-01 -1.7393522313049D+00
73  7.2000000000000D-01 -7.7471803020433D-02 -1.7686031809853D+00
74  7.3000000000000D-01 -2.5524251336667D-02 -1.7924312200469D+00
75  7.4000000000000D-01  2.4084249188238D-02 -1.8106376770355D+00
76  7.5000000000000D-01  7.1192107487006D-02 -1.8230576832257D+00
77  7.6000000000000D-01  1.1565417794403D-01 -1.8295628979711D+00
78  7.7000000000000D-01  1.5734203324705D-01 -1.8300618091615D+00
79  7.8000000000000D-01  1.9614488009645D-01 -1.8245012561884D+00
80  7.9000000000000D-01  2.3197015416278D-01 -1.8128672700501D+00
81  8.0000000000000D-01  2.6474397901081D-01 -1.7951855959337D+00
82  8.1000000000000D-01  2.9441148468642D-01 -1.7715218898750D+00
83  8.2000000000000D-01  3.2093698289965D-01 -1.7419815840734D+00
84  8.3000000000000D-01  3.4430399699403D-01 -1.7067094184588D+00
85  8.4000000000000D-01  3.6451514615746D-01 -1.6658886391487D+00
86  8.5000000000000D-01  3.8159188459659D-01 -1.6197398674748D+00
87  8.6000000000000D-01  3.9557409765941D-01 -1.5685196462900D+00
88  8.7000000000000D-01  4.0651955814641D-01 -1.5125186732800D+00
89  8.8000000000000D-01  4.1450324729926D-01 -1.4520597339952D+00
90  8.9000000000000D-01  4.1961654619677D-01 -1.3874953502852D+00
91  9.0000000000000D-01  4.2196630452111D-01 -1.3192051627632D+00
92  9.1000000000000D-01  4.2167379488064D-01 -1.2475930688273D+00
93  9.2000000000000D-01  4.1887356208298D-01 -1.1730841406197D+00
94  9.3000000000000D-01  4.1371217792976D-01 -1.0961213500537D+00
95  9.4000000000000D-01  4.0634691323296D-01 -1.0171621306428D+00
96  9.5000000000000D-01  3.9694437879364D-01 -9.3667499382129D-01
97  9.6000000000000D-01  3.8567910055914D-01 -8.5513582092163D-01
98  9.7000000000000D-01  3.7273180964116D-01 -7.7302339233573D-01
99  9.8000000000000D-01  3.5828805144804D-01 -6.9081633756759D-01
100  9.9000000000000D-01  3.4253659711454D-01 -6.0898912215386D-01
101  1.0000000000000D+00  3.2566788704863D-01 -5.2800830059630D-01
102  1.0100000000000D+00  3.0787249133805D-01 -4.4832885273244D-01
103  1.0200000000000D+00  2.8933995864241D-01 -3.7039166388717D-01
104  1.0300000000000D+00  2.7025678881180D-01 -2.9461840893912D-01
105  1.0400000000000D+00  2.5080451617804D-01 -2.2140705326373D-01
106  1.0500000000000D+00  2.3115928678050D-01 -1.5113148438029D-01
107  1.0600000000000D+00  2.1149025948264D-01 -8.4137731572309D-02
108  1.0700000000000D+00  1.9195891780433D-01 -2.0742704281466D-02
109  1.0800000000000D+00  1.7271755086682D-01  3.8769328135450D-02
110  1.0900000000000D+00  1.5390636061460D-01  9.4153562518214D-02
111  1.1000000000000D+00  1.3565522292134D-01  1.4519942449653D-01
112  1.1100000000000D+00  1.1808213801042D-01  1.9173408073397D-01
113  1.1200000000000D+00  1.0129453524642D-01  2.3361880488800D-01
114  1.1300000000000D+00  8.5382561240758D-02  2.7076493563200D-01
115  1.1400000000000D+00  7.0424607441583D-02  3.0311947426503D-01
116  1.1500000000000D+00  5.6485834536916D-02  3.3066829978856D-01
117  1.1600000000000D+00  4.3619197541486D-02  3.5343342685128D-01
118  1.1700000000000D+00  3.1859582845427D-02  3.7148571147422D-01
119  1.1800000000000D+00  2.1230533598932D-02  3.8492846198935D-01
120  1.1900000000000D+00  1.1743815974915D-02  3.9389824923848D-01
121  1.2000000000000D+00  3.3964895721735D-03  3.9857057277322D-01
122  1.2100000000000D+00 -3.8273813902252D-03  3.9915463459802D-01
123  1.2200000000000D+00 -9.9534246457753D-03  3.9588593565811D-01
124  1.2300000000000D+00 -1.5017936935631D-02  3.8902798561067D-01
125  1.2400000000000D+00 -1.9069504469699D-02  3.7887267963570D-01
126  1.2500000000000D+00 -2.2163545641620D-02  3.6572963652815D-01
127  1.2600000000000D+00 -2.4363132360578D-02  3.4992805283844D-01
128  1.2700000000000D+00 -2.5739915537865D-02  3.3181277179955D-01
129  1.2800000000000D+00 -2.6369527747524D-02  3.1173823466366D-01
130  1.2900000000000D+00 -2.6332734538480D-02  2.9007061765544D-01
131  1.3000000000000D+00 -2.5713347296839D-02  2.6717518721517D-01
132  1.3100000000000D+00 -2.4596952955316D-02  2.4342086452798D-01
133  1.3200000000000D+00 -2.3071079239815D-02  2.1917745159227D-01
134  1.3300000000000D+00 -2.1220841992854D-02  1.9479901009159D-01
135  1.3400000000000D+00 -1.9132073119758D-02  1.7064075244185D-01
136  1.3500000000000D+00 -1.6887218624657D-02  1.4704059104665D-01
137  1.3600000000000D+00 -1.4563391219851D-02  1.2431467762421D-01
138  1.3700000000000D+00 -1.2238306569354D-02  1.0278036720994D-01
139  1.3800000000000D+00 -9.9781311985604D-03  8.2710303773178D-02
140  1.3900000000000D+00 -7.8469131438580D-03  6.4369493046082D-02
141  1.4000000000000D+00 -5.9030957741146D-03  4.8001607749373D-02
142  1.4100000000000D+00 -4.1928159022357D-03  3.3805599777054D-02
143  1.4200000000000D+00 -2.7632131220107D-03  2.1983650983488D-02
144  1.4300000000000D+00 -1.6396251836903D-03  1.2662811978507D-02
145  1.4400000000000D+00 -8.4062674758314D-04  5.9486953525280D-03
146  1.4500000000000D+00 -4.0187156613011D-04  2.1334118466424D-03
147  1.4600000000000D+00 -2.1063646249995D-04  5.1222715440585D-04
148  1.4700000000000D+00 -6.3917502552729D-05 -3.0209216164067D-05
149  1.4800000000000D+00  7.2058894798499D-06 -1.6913729746412D-05
150  1.4900000000000D+00  1.0228322463146D-05 -2.4008012110729D-05
151  1.5000000000000D+00  0.0000000000000D+00  0.0000000000000D+00
152  1.5100000000000D+00  0.0000000000000D+00  0.0000000000000D+00
153  1.5200000000000D+00  0.0000000000000D+00  0.0000000000000D+00
154  1.5300000000000D+00  0.0000000000000D+00  0.0000000000000D+00
155  1.5400000000000D+00  0.0000000000000D+00  0.0000000000000D+00
156  1.5500000000000D+00  0.0000000000000D+00  0.0000000000000D+00
157  1.5600000000000D+00  0.0000000000000D+00  0.0000000000000D+00
158  1.5700000000000D+00  0.0000000000000D+00  0.0000000000000D+00
159  1.5800000000000D+00  0.0000000000000D+00  0.0000000000000D+00
160  1.5900000000000D+00  0.0000000000000D+00  0.0000000000000D+00
161  1.6000000000000D+00  0.0000000000000D+00  0.0000000000000D+00
162  1.6100000000000D+00  0.0000000000000D+00  0.0000000000000D+00
163  1.6200000000000D+00  0.0000000000000D+00  0.0000000000000D+00
164  1.6300000000000D+00  0.0000000000000D+00  0.0000000000000D+00
165  1.6400000000000D+00  0.0000000000000D+00  0.0000000000000D+00
166  1.6500000000000D+00  0.0000000000000D+00  0.0000000000000D+00
167  1.6600000000000D+00  0.0000000000000D+00  0.0000000000000D+00
168  1.6700000000000D+00  0.0000000000000D+00  0.0000000000000D+00
169  1.6800000000000D+00  0.0000000000000D+00  0.0000000000000D+00
170  1.6900000000000D+00  0.0000000000000D+00  0.0000000000000D+00
171  1.7000000000000D+00  0.0000000000000D+00  0.0000000000000D+00
172  1.7100000000000D+00  0.0000000000000D+00  0.0000000000000D+00
173  1.7200000000000D+00  0.0000000000000D+00  0.0000000000000D+00
174  1.7300000000000D+00  0.0000000000000D+00  0.0000000000000D+00
175  1.7400000000000D+00  0.0000000000000D+00  0.0000000000000D+00
176  1.7500000000000D+00  0.0000000000000D+00  0.0000000000000D+00
177  1.7600000000000D+00  0.0000000000000D+00  0.0000000000000D+00
178  1.7700000000000D+00  0.0000000000000D+00  0.0000000000000D+00
179  1.7800000000000D+00  0.0000000000000D+00  0.0000000000000D+00
180  1.7900000000000D+00  0.0000000000000D+00  0.0000000000000D+00
181  1.8000000000000D+00  0.0000000000000D+00  0.0000000000000D+00
182  1.8100000000000D+00  0.0000000000000D+00  0.0000000000000D+00
183  1.8200000000000D+00  0.0000000000000D+00  0.0000000000000D+00
184  1.8300000000000D+00  0.0000000000000D+00  0.0000000000000D+00
185  1.8400000000000D+00  0.0000000000000D+00  0.0000000000000D+00
186  1.8500000000000D+00  0.0000000000000D+00  0.0000000000000D+00
187  1.8600000000000D+00  0.0000000000000D+00  0.0000000000000D+00
188  1.8700000000000D+00  0.0000000000000D+00  0.0000000000000D+00
189  1.8800000000000D+00  0.0000000000000D+00  0.0000000000000D+00
190  1.8900000000000D+00  0.0000000000000D+00  0.0000000000000D+00
191  1.9000000000000D+00  0.0000000000000D+00  0.0000000000000D+00
192  1.9100000000000D+00  0.0000000000000D+00  0.0000000000000D+00
193  1.9200000000000D+00  0.0000000000000D+00  0.0000000000000D+00
194  1.9300000000000D+00  0.0000000000000D+00  0.0000000000000D+00
195  1.9400000000000D+00  0.0000000000000D+00  0.0000000000000D+00
196  1.9500000000000D+00  0.0000000000000D+00  0.0000000000000D+00
197  1.9600000000000D+00  0.0000000000000D+00  0.0000000000000D+00
198  1.9700000000000D+00  0.0000000000000D+00  0.0000000000000D+00
199  1.9800000000000D+00  0.0000000000000D+00  0.0000000000000D+00
200  1.9900000000000D+00  0.0000000000000D+00  0.0000000000000D+00
201  2.0000000000000D+00  0.0000000000000D+00  0.0000000000000D+00
202  2.0100000000000D+00  0.0000000000000D+00  0.0000000000000D+00
203  2.0200000000000D+00  0.0000000000000D+00  0.0000000000000D+00
204  2.0300000000000D+00  0.0000000000000D+00  0.0000000000000D+00
205  2.0400000000000D+00  0.0000000000000D+00  0.0000000000000D+00
206  2.0500000000000D+00  0.0000000000000D+00  0.0000000000000D+00
207  2.0600000000000D+00  0.0000000000000D+00  0.0000000000000D+00
208  2.0700000000000D+00  0.0000000000000D+00  0.0000000000000D+00
209  2.0800000000000D+00  0.0000000000000D+00  0.0000000000000D+00
210  2.0900000000000D+00  0.0000000000000D+00  0.0000000000000D+00
211  2.1000000000000D+00  0.0000000000000D+00  0.0000000000000D+00
212  2.1100000000000D+00  0.0000000000000D+00  0.0000000000000D+00
213  2.1200000000000D+00  0.0000000000000D+00  0.0000000000000D+00
214  2.1300000000000D+00  0.0000000000000D+00  0.0000000000000D+00
215  2.1400000000000D+00  0.0000000000000D+00  0.0000000000000D+00
216  2.1500000000000D+00  0.0000000000000D+00  0.0000000000000D+00
217  2.1600000000000D+00  0.0000000000000D+00  0.0000000000000D+00
218  2.1700000000000D+00  0.0000000000000D+00  0.0000000000000D+00
219  2.1800000000000D+00  0.0000000000000D+00  0.0000000000000D+00
220  2.1900000000000D+00  0.0000000000000D+00  0.0000000000000D+00
221  2.2000000000000D+00  0.0000000000000D+00  0.0000000000000D+00
222  2.2100000000000D+00  0.0000000000000D+00  0.0000000000000D+00
223  2.2200000000000D+00  0.0000000000000D+00  0.0000000000000D+00
224  2.2300000000000D+00  0.0000000000000D+00  0.0000000000000D+00
225  2.2400000000000D+00  0.0000000000000D+00  0.0000000000000D+00
226  2.2500000000000D+00  0.0000000000000D+00  0.0000000000000D+00
227  2.2600000000000D+00  0.0000000000000D+00  0.0000000000000D+00
228  2.2700000000000D+00  0.0000000000000D+00  0.0000000000000D+00
229  2.2800000000000D+00  0.0000000000000D+00  0.0000000000000D+00
230  2.2900000000000D+00  0.0000000000000D+00  0.0000000000000D+00
231  2.3000000000000D+00  0.0000000000000D+00  0.0000000000000D+00
232  2.3100000000000D+00  0.0000000000000D+00  0.0000000000000D+00
233  2.3200000000000D+00  0.0000000000000D+00  0.0000000000000D+00
234  2.3300000000000D+00  0.0000000000000D+00  0.0000000000000D+00
235  2.3400000000000D+00  0.0000000000000D+00  0.0000000000000D+00
236  2.3500000000000D+00  0.0000000000000D+00  0.0000000000000D+00
237  2.3600000000000D+00  0.0000000000000D+00  0.0000000000000D+00
238  2.3700000000000D+00  0.0000000000000D+00  0.0000000000000D+00
239  2.3800000000000D+00  0.0000000000000D+00  0.0000000000000D+00
240  2.3900000000000D+00  0.0000000000000D+00  0.0000000000000D+00
241  2.4000000000000D+00  0.0000000000000D+00  0.0000000000000D+00
242  2.4100000000000D+00  0.0000000000000D+00  0.0000000000000D+00
243  2.4200000000000D+00  0.0000000000000D+00  0.0000000000000D+00
244  2.4300000000000D+00  0.0000000000000D+00  0.0000000000000D+00
245  2.4400000000000D+00  0.0000000000000D+00  0.0000000000000D+00
246  2.4500000000000D+00  0.0000000000000D+00  0.0000000000000D+00
247  2.4600000000000D+00  0.0000000000000D+00  0.0000000000000D+00
248  2.4700000000000D+00  0.0000000000000D+00  0.0000000000000D+00
249  2.4800000000000D+00  0.0000000000000D+00  0.0000000000000D+00
250  2.4900000000000D+00  0.0000000000000D+00  0.0000000000000D+00
251  2.5000000000000D+00  0.0000000000000D+00  0.0000000000000D+00
252  2.5100000000000D+00  0.0000000000000D+00  0.0000000000000D+00
253  2.5200000000000D+00  0.0000000000000D+00  0.0000000000000D+00
254  2.5300000000000D+00  0.0000000000000D+00  0.0000000000000D+00
255  2.5400000000000D+00  0.0000000000000D+00  0.0000000000000D+00
256  2.5500000000000D+00  0.0000000000000D+00  0.0000000000000D+00
257  2.5600000000000D+00  0.0000000000000D+00  0.0000000000000D+00
258  2.5700000000000D+00  0.0000000000000D+00  0.0000000000000D+00
259  2.5800000000000D+00  0.0000000000000D+00  0.0000000000000D+00
260  2.5900000000000D+00  0.0000000000000D+00  0.0000000000000D+00
261  2.6000000000000D+00  0.0000000000000D+00  0.0000000000000D+00
262  2.6100000000000D+00  0.0000000000000D+00  0.0000000000000D+00
263  2.6200000000000D+00  0.0000000000000D+00  0.0000000000000D+00
264  2.6300000000000D+00  0.0000000000000D+00  0.0000000000000D+00
265  2.6400000000000D+00  0.0000000000000D+00  0.0000000000000D+00
266  2.6500000000000D+00  0.0000000000000D+00  0.0000000000000D+00
267  2.6600000000000D+00  0.0000000000000D+00  0.0000000000000D+00
268  2.6700000000000D+00  0.0000000000000D+00  0.0000000000000D+00
269  2.6800000000000D+00  0.0000000000000D+00  0.0000000000000D+00
270  2.6900000000000D+00  0.0000000000000D+00  0.0000000000000D+00
271  2.7000000000000D+00  0.0000000000000D+00  0.0000000000000D+00
272  2.7100000000000D+00  0.0000000000000D+00  0.0000000000000D+00
273  2.7200000000000D+00  0.0000000000000D+00  0.0000000000000D+00
274  2.7300000000000D+00  0.0000000000000D+00  0.0000000000000D+00
275  2.7400000000000D+00  0.0000000000000D+00  0.0000000000000D+00
276  2.7500000000000D+00  0.0000000000000D+00  0.0000000000000D+00
277  2.7600000000000D+00  0.0000000000000D+00  0.0000000000000D+00
278  2.7700000000000D+00  0.0000000000000D+00  0.0000000000000D+00
279  2.7800000000000D+00  0.0000000000000D+00  0.0000000000000D+00
280  2.7900000000000D+00  0.0000000000000D+00  0.0000000000000D+00
281  2.8000000000000D+00  0.0000000000000D+00  0.0000000000000D+00
282  2.8100000000000D+00  0.0000000000000D+00  0.0000000000000D+00
283  2.8200000000000D+00  0.0000000000000D+00  0.0000000000000D+00
284  2.8300000000000D+00  0.0000000000000D+00  0.0000000000000D+00
285  2.8400000000000D+00  0.0000000000000D+00  0.0000000000000D+00
286  2.8500000000000D+00  0.0000000000000D+00  0.0000000000000D+00
287  2.8600000000000D+00  0.0000000000000D+00  0.0000000000000D+00
288  2.8700000000000D+00  0.0000000000000D+00  0.0000000000000D+00
289  2.8800000000000D+00  0.0000000000000D+00  0.0000000000000D+00
290  2.8900000000000D+00  0.0000000000000D+00  0.0000000000000D+00
291  2.9000000000000D+00  0.0000000000000D+00  0.0000000000000D+00
292  2.9100000000000D+00  0.0000000000000D+00  0.0000000000000D+00
293  2.9200000000000D+00  0.0000000000000D+00  0.0000000000000D+00
294  2.9300000000000D+00  0.0000000000000D+00  0.0000000000000D+00
295  2.9400000000000D+00  0.0000000000000D+00  0.0000000000000D+00
296  2.9500000000000D+00  0.0000000000000D+00  0.0000000000000D+00
297  2.9600000000000D+00  0.0000000000000D+00  0.0000000000000D+00
298  2.9700000000000D+00  0.0000000000000D+00  0.0000000000000D+00
299  2.9800000000000D+00  0.0000000000000D+00  0.0000000000000D+00
300  2.9900000000000D+00  0.0000000000000D+00  0.0000000000000D+00
301  3.0000000000000D+00  0.0000000000000D+00  0.0000000000000D+00
302  3.0100000000000D+00  0.0000000000000D+00  0.0000000000000D+00
303  3.0200000000000D+00  0.0000000000000D+00  0.0000000000000D+00
304  3.0300000000000D+00  0.0000000000000D+00  0.0000000000000D+00
305  3.0400000000000D+00  0.0000000000000D+00  0.0000000000000D+00
306  3.0500000000000D+00  0.0000000000000D+00  0.0000000000000D+00
307  3.0600000000000D+00  0.0000000000000D+00  0.0000000000000D+00
308  3.0700000000000D+00  0.0000000000000D+00  0.0000000000000D+00
309  3.0800000000000D+00  0.0000000000000D+00  0.0000000000000D+00
310  3.0900000000000D+00  0.0000000000000D+00  0.0000000000000D+00
311  3.1000000000000D+00  0.0000000000000D+00  0.0000000000000D+00
312  3.1100000000000D+00  0.0000000000000D+00  0.0000000000000D+00
313  3.1200000000000D+00  0.0000000000000D+00  0.0000000000000D+00
314  3.1300000000000D+00  0.0000000000000D+00  0.0000000000000D+00
315  3.1400000000000D+00  0.0000000000000D+00  0.0000000000000D+00
316  3.1500000000000D+00  0.0000000000000D+00  0.0000000000000D+00
317  3.1600000000000D+00  0.0000000000000D+00  0.0000000000000D+00
318  3.1700000000000D+00  0.0000000000000D+00  0.0000000000000D+00
319  3.1800000000000D+00  0.0000000000000D+00  0.0000000000000D+00
320  3.1900000000000D+00  0.0000000000000D+00  0.0000000000000D+00
321  3.2000000000000D+00  0.0000000000000D+00  0.0000000000000D+00
322  3.2100000000000D+00  0.0000000000000D+00  0.0000000000000D+00
323  3.2200000000000D+00  0.0000000000000D+00  0.0000000000000D+00
324  3.2300000000000D+00  0.0000000000000D+00  0.0000000000000D+00
325  3.2400000000000D+00  0.0000000000000D+00  0.0000000000000D+00
326  3.2500000000000D+00  0.0000000000000D+00  0.0000000000000D+00
327  3.2600000000000D+00  0.0000000000000D+00  0.0000000000000D+00
328  3.2700000000000D+00  0.0000000000000D+00  0.0000000000000D+00
329  3.2800000000000D+00  0.0000000000000D+00  0.0000000000000D+00
330  3.2900000000000D+00  0.0000000000000D+00  0.0000000000000D+00
331  3.3000000000000D+00  0.0000000000000D+00  0.0000000000000D+00
332  3.3100000000000D+00  0.0000000000000D+00  0.0000000000000D+00
333  3.3200000000000D+00  0.0000000000000D+00  0.0000000000000D+00
334  3.3300000000000D+00  0.0000000000000D+00  0.0000000000000D+00
335  3.3400000000000D+00  0.0000000000000D+00  0.0000000000000D+00
336  3.3500000000000D+00  0.0000000000000D+00  0.0000000000000D+00
337  3.3600000000000D+00  0.0000000000000D+00  0.0000000000000D+00
338  3.3700000000000D+00  0.0000000000000D+00  0.0000000000000D+00
339  3.3800000000000D+00  0.0000000000000D+00  0.0000000000000D+00
340  3.3900000000000D+00  0.0000000000000D+00  0.0000000000000D+00
341  3.4000000000000D+00  0.0000000000000D+00  0.0000000000000D+00
342  3.4100000000000D+00  0.0000000000000D+00  0.0000000000000D+00
343  3.4200000000000D+00  0.0000000000000D+00  0.0000000000000D+00
344  3.4300000000000D+00  0.0000000000000D+00  0.0000000000000D+00
345  3.4400000000000D+00  0.0000000000000D+00  0.0000000000000D+00
346  3.4500000000000D+00  0.0000000000000D+00  0.0000000000000D+00
347  3.4600000000000D+00  0.0000000000000D+00  0.0000000000000D+00
348  3.4700000000000D+00  0.0000000000000D+00  0.0000000000000D+00
349  3.4800000000000D+00  0.0000000000000D+00  0.0000000000000D+00
350  3.4900000000000D+00  0.0000000000000D+00  0.0000000000000D+00
351  3.5000000000000D+00  0.0000000000000D+00  0.0000000000000D+00
352  3.5100000000000D+00  0.0000000000000D+00  0.0000000000000D+00
353  3.5200000000000D+00  0.0000000000000D+00  0.0000000000000D+00
354  3.5300000000000D+00  0.0000000000000D+00  0.0000000000000D+00
355  3.5400000000000D+00  0.0000000000000D+00  0.0000000000000D+00
356  3.5500000000000D+00  0.0000000000000D+00  0.0000000000000D+00
357  3.5600000000000D+00  0.0000000000000D+00  0.0000000000000D+00
358  3.5700000000000D+00  0.0000000000000D+00  0.0000000000000D+00
359  3.5800000000000D+00  0.0000000000000D+00  0.0000000000000D+00
360  3.5900000000000D+00  0.0000000000000D+00  0.0000000000000D+00
361  3.6000000000000D+00  0.0000000000000D+00  0.0000000000000D+00
362  3.6100000000000D+00  0.0000000000000D+00  0.0000000000000D+00
363  3.6200000000000D+00  0.0000000000000D+00  0.0000000000000D+00
364  3.6300000000000D+00  0.0000000000000D+00  0.0000000000000D+00
365  3.6400000000000D+00  0.0000000000000D+00  0.0000000000000D+00
366  3.6500000000000D+00  0.0000000000000D+00  0.0000000000000D+00
367  3.6600000000000D+00  0.0000000000000D+00  0.0000000000000D+00
368  3.6700000000000D+00  0.0000000000000D+00  0.0000000000000D+00
369  3.6800000000000D+00  0.0000000000000D+00  0.0000000000000D+00
370  3.6900000000000D+00  0.0000000000000D+00  0.0000000000000D+00
371  3.7000000000000D+00  0.0000000000000D+00  0.0000000000000D+00
372  3.7100000000000D+00  0.0000000000000D+00  0.0000000000000D+00
373  3.7200000000000D+00  0.0000000000000D+00  0.0000000000000D+00
374  3.7300000000000D+00  0.0000000000000D+00  0.0000000000000D+00
375  3.7400000000000D+00  0.0000000000000D+00  0.0000000000000D+00
376  3.7500000000000D+00  0.0000000000000D+00  0.0000000000000D+00
377  3.7600000000000D+00  0.0000000000000D+00  0.0000000000000D+00
378  3.7700000000000D+00  0.0000000000000D+00  0.0000000000000D+00
379  3.7800000000000D+00  0.0000000000000D+00  0.0000000000000D+00
380  3.7900000000000D+00  0.0000000000000D+00  0.0000000000000D+00
381  3.8000000000000D+00  0.0000000000000D+00  0.0000000000000D+00
382  3.8100000000000D+00  0.0000000000000D+00  0.0000000000000D+00
383  3.8200000000000D+00  0.0000000000000D+00  0.0000000000000D+00
384  3.8300000000000D+00  0.0000000000000D+00  0.0000000000000D+00
385  3.8400000000000D+00  0.0000000000000D+00  0.0000000000000D+00
386  3.8500000000000D+00  0.0000000000000D+00  0.0000000000000D+00
387  3.8600000000000D+00  0.0000000000000D+00  0.0000000000000D+00
388  3.8700000000000D+00  0.0000000000000D+00  0.0000000000000D+00
389  3.8800000000000D+00  0.0000000000000D+00  0.0000000000000D+00
390  3.8900000000000D+00  0.0000000000000D+00  0.0000000000000D+00
391  3.9000000000000D+00  0.0000000000000D+00  0.0000000000000D+00
392  3.9100000000000D+00  0.0000000000000D+00  0.0000000000000D+00
393  3.9200000000000D+00  0.0000000000000D+00  0.0000000000000D+00
394  3.9300000000000D+00  0.0000000000000D+00  0.0000000000000D+00
395  3.9400000000000D+00  0.0000000000000D+00  0.0000000000000D+00
396  3.9500000000000D+00  0.0000000000000D+00  0.0000000000000D+00
397  3.9600000000000D+00  0.0000000000000D+00  0.0000000000000D+00
398  3.9700000000000D+00  0.0000000000000D+00  0.0000000000000D+00
399  3.9800000000000D+00  0.0000000000000D+00  0.0000000000000D+00
400  3.9900000000000D+00  0.0000000000000D+00  0.0000000000000D+00
401  4.0000000000000D+00  0.0000000000000D+00  0.0000000000000D+00
402  4.0100000000000D+00  0.0000000000000D+00  0.0000000000000D+00
403  4.0200000000000D+00  0.0000000000000D+00  0.0000000000000D+00
404  4.0300000000000D+00  0.0000000000000D+00  0.0000000000000D+00
405  4.0400000000000D+00  0.0000000000000D+00  0.0000000000000D+00
406  4.0500000000000D+00  0.0000000000000D+00  0.0000000000000D+00
407  4.0600000000000D+00  0.0000000000000D+00  0.0000000000000D+00
408  4.0700000000000D+00  0.0000000000000D+00  0.0000000000000D+00
409  4.0800000000000D+00  0.0000000000000D+00  0.0000000000000D+00
410  4.0900000000000D+00  0.0000000000000D+00  0.0000000000000D+00
411  4.1000000000000D+00  0.0000000000000D+00  0.0000000000000D+00
412  4.1100000000000D+00  0.0000000000000D+00  0.0000000000000D+00
413  4.1200000000000D+00  0.0000000000000D+00  0.0000000000000D+00
414  4.1300000000000D+00  0.0000000000000D+00  0.0000000000000D+00
415  4.1400000000000D+00  0.0000000000000D+00  0.0000000000000D+00
416  4.1500000000000D+00  0.0000000000000D+00  0.0000000000000D+00
417  4.1600000000000D+00  0.0000000000000D+00  0.0000000000000D+00
418  4.1700000000000D+00  0.0000000000000D+00  0.0000000000000D+00
419  4.1800000000000D+00  0.0000000000000D+00  0.0000000000000D+00
420  4.1900000000000D+00  0.0000000000000D+00  0.0000000000000D+00
421  4.2000000000000D+00  0.0000000000000D+00  0.0000000000000D+00
422  4.2100000000000D+00  0.0000000000000D+00  0.0000000000000D+00
423  4.2200000000000D+00  0.0000000000000D+00  0.0000000000000D+00
424  4.2300000000000D+00  0.0000000000000D+00  0.0000000000000D+00
425  4.2400000000000D+00  0.0000000000000D+00  0.0000000000000D+00
426  4.2500000000000D+00  0.0000000000000D+00  0.0000000000000D+00
427  4.2600000000000D+00  0.0000000000000D+00  0.0000000000000D+00
428  4.2700000000000D+00  0.0000000000000D+00  0.0000000000000D+00
429  4.2800000000000D+00  0.0000000000000D+00  0.0000000000000D+00
430  4.2900000000000D+00  0.0000000000000D+00  0.0000000000000D+00
431  4.3000000000000D+00  0.0000000000000D+00  0.0000000000000D+00
432  4.3100000000000D+00  0.0000000000000D+00  0.0000000000000D+00
433  4.3200000000000D+00  0.0000000000000D+00  0.0000000000000D+00
434  4.3300000000000D+00  0.0000000000000D+00  0.0000000000000D+00
435  4.3400000000000D+00  0.0000000000000D+00  0.0000000000000D+00
436  4.3500000000000D+00  0.0000000000000D+00  0.0000000000000D+00
437  4.3600000000000D+00  0.0000000000000D+00  0.0000000000000D+00
438  4.3700000000000D+00  0.0000000000000D+00  0.0000000000000D+00
439  4.3800000000000D+00  0.0000000000000D+00  0.0000000000000D+00
440  4.3900000000000D+00  0.0000000000000D+00  0.0000000000000D+00
441  4.4000000000000D+00  0.0000000000000D+00  0.0000000000000D+00
442  4.4100000000000D+00  0.0000000000000D+00  0.0000000000000D+00
443  4.4200000000000D+00  0.0000000000000D+00  0.0000000000000D+00
444  4.4300000000000D+00  0.0000000000000D+00  0.0000000000000D+00