Os    ONCVPSP  r_core=  1.51  1.46  1.36  1.92
76.0000     30.0000      140827    zatom,zion,pspd
8    11     3     4   601     0    pspcod,pspxc,lmax,lloc,mmax,r2well
6.00000000  0.35000000  0.00000000    rchrg fchrg qchrg
2     2     2     2     0    nproj
0                 extension_switch
0                         1.4014053805568D+01  1.8135849879487D+00
1  0.0000000000000D+00 -0.0000000000000D+00  0.0000000000000D+00
2  1.0000000000000D-02 -5.8705559342418D-02  7.3024440196554D-03
3  2.0000000000000D-02 -1.1736218337639D-01  1.4650742936305D-02
4  3.0000000000000D-02 -1.7592052252946D-01  2.2089598811199D-02
5  4.0000000000000D-02 -2.3433040399764D-01  2.9661420251696D-02
6  5.0000000000000D-02 -2.9254043332488D-01  3.7405206124695D-02
7  6.0000000000000D-02 -3.5049761168919D-01  4.5355465511302D-02
8  7.0000000000000D-02 -4.0814697391694D-01  5.3541185499859D-02
9  8.0000000000000D-02 -4.6543125207044D-01  6.1984858019706D-02
10  9.0000000000000D-02 -5.2229056922526D-01  7.0701576398402D-02
11  1.0000000000000D-01 -5.7866216779651D-01  7.9698211749245D-02
12  1.1000000000000D-01 -6.3448017646712D-01  8.8972678603779D-02
13  1.2000000000000D-01 -6.8967541942767D-01  9.8513298425448D-02
14  1.3000000000000D-01 -7.4417527126584D-01  1.0829826879856D-01
15  1.4000000000000D-01 -7.9790356046290D-01  1.1829524526592D-01
16  1.5000000000000D-01 -8.5078052394276D-01  1.2846104151859D-01
17  1.6000000000000D-01 -9.0272281478858D-01  1.3874145310126D-01
18  1.7000000000000D-01 -9.5364356460827D-01  1.4907120805288D-01
19  1.8000000000000D-01 -1.0034525016669D+00  1.5937404747548D-01
20  1.9000000000000D-01 -1.0520561253410D+00  1.6956293725300D-01
21  2.0000000000000D-01 -1.0993579366956D+00  1.7954041119923D-01
22  2.1000000000000D-01 -1.1452587252818D+00  1.8919904514502D-01
23  2.2000000000000D-01 -1.1896569102077D+00  1.9842205909122D-01
24  2.3000000000000D-01 -1.2324489347930D+00  2.0708404489514D-01
25  2.4000000000000D-01 -1.2735297115140D+00  2.1505181323898D-01
26  2.5000000000000D-01 -1.3127931177227D+00  2.2218535950858D-01
27  2.6000000000000D-01 -1.3501325322138D+00  2.2833892964498D-01
28  2.7000000000000D-01 -1.3854414199462D+00  2.3336219764461D-01
29  2.8000000000000D-01 -1.4186139483903D+00  2.3710152293735D-01
30  2.9000000000000D-01 -1.4495456407442D+00  2.3940129552755D-01
31  3.0000000000000D-01 -1.4781340568837D+00  2.4010535021762D-01
32  3.1000000000000D-01 -1.5042794975246D+00  2.3905843946892D-01
33  3.2000000000000D-01 -1.5278857220240D+00  2.3610774416655D-01
34  3.3000000000000D-01 -1.5488606901182D+00  2.3110444211027D-01
35  3.4000000000000D-01 -1.5671172943644D+00  2.2390526532955D-01
36  3.5000000000000D-01 -1.5825740981965D+00  2.1437407482574D-01
37  3.6000000000000D-01 -1.5951560737498D+00  2.0238344025644D-01
38  3.7000000000000D-01 -1.6047953204890D+00  1.8781618383212D-01
39  3.8000000000000D-01 -1.6114317508660D+00  1.7056685814456D-01
40  3.9000000000000D-01 -1.6150137817882D+00  1.5054323851148D-01
41  4.0000000000000D-01 -1.6154989677709D+00  1.2766769422843D-01
42  4.1000000000000D-01 -1.6128545978710D+00  1.0187848384338D-01
43  4.2000000000000D-01 -1.6070582555607D+00  7.3130972056824D-02
44  4.3000000000000D-01 -1.5980983247468D+00  4.1398731926583D-02
45  4.4000000000000D-01 -1.5859744394636D+00  6.6745263486236D-03
46  4.5000000000000D-01 -1.5706978721063D+00 -3.1028842752084D-02
47  4.6000000000000D-01 -1.5522918553019D+00 -7.1677828515756D-02
48  4.7000000000000D-01 -1.5307918301909D+00 -1.1521759246068D-01
49  4.8000000000000D-01 -1.5062456181769D+00 -1.6157162369298D-01
50  4.9000000000000D-01 -1.4787135538205D+00 -2.1064144307085D-01
51  5.0000000000000D-01 -1.4482684681795D+00 -2.6230663057205D-01
52  5.1000000000000D-01 -1.4149956220080D+00 -3.1642496231242D-01
53  5.2000000000000D-01 -1.3789925925879D+00 -3.7283264853229D-01
54  5.3000000000000D-01 -1.3403690299986D+00 -4.3134485376156D-01
55  5.4000000000000D-01 -1.2992463072912D+00 -4.9175644668206D-01
56  5.5000000000000D-01 -1.2557571843212D+00 -5.5384272000324D-01
57  5.6000000000000D-01 -1.2100452635098D+00 -6.1736055950039D-01
58  5.7000000000000D-01 -1.1622644625355D+00 -6.8204957435466D-01
59  5.8000000000000D-01 -1.1125783628226D+00 -7.4763349483361D-01
60  5.9000000000000D-01 -1.0611594682529D+00 -8.1382175885660D-01
61  6.0000000000000D-01 -1.0081884928615D+00 -8.8031103598280D-01
62  6.1000000000000D-01 -9.5385336639728D-01 -9.4678734890539D-01
63  6.2000000000000D-01 -8.9834848277688D-01 -1.0129276735026D+00
64  6.3000000000000D-01 -8.4187362019291D-01 -1.0784022325688D+00
65  6.4000000000000D-01 -7.8463289061892D-01 -1.1428767193461D+00
66  6.5000000000000D-01 -7.2683384369695D-01 -1.2060141854028D+00
67  6.6000000000000D-01 -6.6868621628364D-01 -1.2674776708013D+00
68  6.7000000000000D-01 -6.1040076138343D-01 -1.3269326525658D+00
69  6.8000000000000D-01 -5.5218826057808D-01 -1.3840490930230D+00
70  6.9000000000000D-01 -4.9425841842697D-01 -1.4385037258633D+00
71  7.0000000000000D-01 -4.3681842333918D-01 -1.4899830231381D+00
72  7.1000000000000D-01 -3.8007193953850D-01 -1.5381852375330D+00
73  7.2000000000000D-01 -3.2421804025216D-01 -1.5828225508692D+00
74  7.3000000000000D-01 -2.6945004213990D-01 -1.6236234068551D+00
75  7.4000000000000D-01 -2.1595443551920D-01 -1.6603346203816D+00
76  7.5000000000000D-01 -1.6390992625522D-01 -1.6927232336286D+00
77  7.6000000000000D-01 -1.1348605106931D-01 -1.7205792095470D+00
78  7.7000000000000D-01 -6.4842655870368D-02 -1.7437163336325D+00
79  7.8000000000000D-01 -1.8128878270587D-02 -1.7619740991590D+00
80  7.9000000000000D-01  2.6517662769929D-02 -1.7752191351373D+00
81  8.0000000000000D-01  6.8971600906933D-02 -1.7833464444390D+00
82  8.1000000000000D-01  1.0912047416239D-01 -1.7862804396410D+00
83  8.2000000000000D-01  1.4686528930077D-01 -1.7839757657984D+00
84  8.3000000000000D-01  1.8212099436707D-01 -1.7764179010879D+00
85  8.4000000000000D-01  2.1481685564868D-01 -1.7636235280729D+00
86  8.5000000000000D-01  2.4489673607259D-01 -1.7456406702047D+00
87  8.6000000000000D-01  2.7231927281981D-01 -1.7225485900874D+00
88  8.7000000000000D-01  2.9705795272759D-01 -1.6944574479945D+00
89  8.8000000000000D-01  3.1910108485756D-01 -1.6615077211292D+00
90  8.9000000000000D-01  3.3845167043619D-01 -1.6238693861750D+00
91  9.0000000000000D-01  3.5512717122544D-01 -1.5817408697882D+00
92  9.1000000000000D-01  3.6915917825882D-01 -1.5353477738505D+00
93  9.2000000000000D-01  3.8059298378344D-01 -1.4849413845198D+00
94  9.3000000000000D-01  3.8948706018037D-01 -1.4307969763871D+00
95  9.4000000000000D-01  3.9591245058862D-01 -1.3732119253492D+00
96  9.5000000000000D-01  3.9995204112251D-01 -1.3125036546532D+00
97  9.6000000000000D-01  4.0169988558501D-01 -1.2490075334532D+00
98  9.7000000000000D-01  4.0126038736503D-01 -1.1830743104897D+00
99  9.8000000000000D-01  3.9874723256563D-01 -1.1150676228268D+00
100  9.9000000000000D-01  3.9428250183521D-01 -1.0453614262770D+00
101  1.0000000000000D+00  3.8799566095759D-01 -9.7433731380297D-01
102  1.0100000000000D+00  3.8002251629357D-01 -9.0238178459245D-01
103  1.0200000000000D+00  3.7050427008697D-01 -8.2988401021039D-01
104  1.0300000000000D+00  3.5958631298695D-01 -7.5723234624142D-01
105  1.0400000000000D+00  3.4741681842533D-01 -6.8481069954811D-01
106  1.0500000000000D+00  3.3414595738272D-01 -6.1299714622884D-01
107  1.0600000000000D+00  3.1992471252639D-01 -5.4216081634984D-01
108  1.0700000000000D+00  3.0490407559349D-01 -4.7266016600472D-01
109  1.0800000000000D+00  2.8923384642503D-01 -4.0483988381683D-01
110  1.0900000000000D+00  2.7306041859972D-01 -3.3902503953722D-01
111  1.1000000000000D+00  2.5652721119362D-01 -2.7552331461147D-01
112  1.1100000000000D+00  2.3977333943924D-01 -2.1462160805045D-01
113  1.1200000000000D+00  2.2293414174086D-01 -1.5658798589472D-01
114  1.1300000000000D+00  2.0613605542580D-01 -1.0165790006842D-01
115  1.1400000000000D+00  1.8949969753575D-01 -5.0043677061991D-02
116  1.1500000000000D+00  1.7313846731487D-01 -1.9310146785790D-03
117  1.1600000000000D+00  1.5715905152418D-01  4.2519371492681D-02
118  1.1700000000000D+00  1.4165581136968D-01  8.3185784290870D-02
119  1.1800000000000D+00  1.2671556802139D-01  1.1997231689332D-01
120  1.1900000000000D+00  1.1241707311415D-01  1.5281009533652D-01
121  1.2000000000000D+00  9.8827593650243D-02  1.8166537741480D-01
122  1.2100000000000D+00  8.6003208241156D-02  2.0653782016715D-01
123  1.2200000000000D+00  7.3991764632930D-02  2.2745291872033D-01
124  1.2300000000000D+00  6.2831582964075D-02  2.4446498973038D-01
125  1.2400000000000D+00  5.2547233565565D-02  2.5766575253759D-01
126  1.2500000000000D+00  4.3155811519721D-02  2.6716936907324D-01
127  1.2600000000000D+00  3.4666188022790D-02  2.7311436240601D-01
128  1.2700000000000D+00  2.7073241361181D-02  2.7567431614627D-01
129  1.2800000000000D+00  2.0365628060194D-02  2.7504089701090D-01
130  1.2900000000000D+00  1.4524321413270D-02  2.7142728789225D-01
131  1.3000000000000D+00  9.5182560584465D-03  2.6507396234532D-01
132  1.3100000000000D+00  5.3115392259668D-03  2.5623523938759D-01
133  1.3200000000000D+00  1.8607452027470D-03  2.4518408701780D-01
134  1.3300000000000D+00 -8.8605931518501D-04  2.3220995370770D-01
135  1.3400000000000D+00 -2.9845815402824D-03  2.1761333169758D-01
136  1.3500000000000D+00 -4.4975092681996D-03  2.0170773769659D-01
137  1.3600000000000D+00 -5.4919169961957D-03  1.8481268697194D-01
138  1.3700000000000D+00 -6.0388306254323D-03  1.6725977674793D-01
139  1.3800000000000D+00 -6.2098117780183D-03  1.4936753219382D-01
140  1.3900000000000D+00 -6.0752725030253D-03  1.3144910288663D-01
141  1.4000000000000D+00 -5.7043086030410D-03  1.1380671222393D-01
142  1.4100000000000D+00 -5.1583566290876D-03  9.6708029546057D-02
143  1.4200000000000D+00 -4.5004369391199D-03  8.0426222099305D-02
144  1.4300000000000D+00 -3.7817757737519D-03  6.5184879032966D-02
145  1.4400000000000D+00 -3.0515687770320D-03  5.1200107426198D-02
146  1.4500000000000D+00 -2.3524556143949D-03  3.8661428907614D-02
147  1.4600000000000D+00 -1.7151259334637D-03  2.7713474530470D-02
148  1.4700000000000D+00 -1.1718644288887D-03  1.8506363431747D-02
149  1.4800000000000D+00 -7.3458331891104D-04  1.1115018486946D-02
150  1.4900000000000D+00 -4.1799936742225D-04  5.6248271991235D-03
151  1.5000000000000D+00 -2.2880687270738D-04  2.1831770035580D-03
152  1.5100000000000D+00 -1.4487613039260D-04  5.8091670834696D-04
153  1.5200000000000D+00 -7.2241290608131D-05 -1.3902466178443D-06
154  1.5300000000000D+00 -7.7356101585655D-06 -2.4500694964940D-05
155  1.5400000000000D+00  8.4260018636799D-06 -2.0386215795137D-05
156  1.5500000000000D+00  6.9796074411180D-08 -1.6886749583251D-07
157  1.5600000000000D+00  0.0000000000000D+00  0.0000000000000D+00
158  1.5700000000000D+00  0.0000000000000D+00  0.0000000000000D+00
159  1.5800000000000D+00  0.0000000000000D+00  0.0000000000000D+00
160  1.5900000000000D+00  0.0000000000000D+00  0.0000000000000D+00
161  1.6000000000000D+00  0.0000000000000D+00  0.0000000000000D+00
162  1.6100000000000D+00  0.0000000000000D+00  0.0000000000000D+00
163  1.6200000000000D+00  0.0000000000000D+00  0.0000000000000D+00
164  1.6300000000000D+00  0.0000000000000D+00  0.0000000000000D+00
165  1.6400000000000D+00  0.0000000000000D+00  0.0000000000000D+00
166  1.6500000000000D+00  0.0000000000000D+00  0.0000000000000D+00
167  1.6600000000000D+00  0.0000000000000D+00  0.0000000000000D+00
168  1.6700000000000D+00  0.0000000000000D+00  0.0000000000000D+00
169  1.6800000000000D+00  0.0000000000000D+00  0.0000000000000D+00
170  1.6900000000000D+00  0.0000000000000D+00  0.0000000000000D+00
171  1.7000000000000D+00  0.0000000000000D+00  0.0000000000000D+00
172  1.7100000000000D+00  0.0000000000000D+00  0.0000000000000D+00
173  1.7200000000000D+00  0.0000000000000D+00  0.0000000000000D+00
174  1.7300000000000D+00  0.0000000000000D+00  0.0000000000000D+00
175  1.7400000000000D+00  0.0000000000000D+00  0.0000000000000D+00
176  1.7500000000000D+00  0.0000000000000D+00  0.0000000000000D+00
177  1.7600000000000D+00  0.0000000000000D+00  0.0000000000000D+00
178  1.7700000000000D+00  0.0000000000000D+00  0.0000000000000D+00
179  1.7800000000000D+00  0.0000000000000D+00  0.0000000000000D+00
180  1.7900000000000D+00  0.0000000000000D+00  0.0000000000000D+00
181  1.8000000000000D+00  0.0000000000000D+00  0.0000000000000D+00
182  1.8100000000000D+00  0.0000000000000D+00  0.0000000000000D+00
183  1.8200000000000D+00  0.0000000000000D+00  0.0000000000000D+00
184  1.8300000000000D+00  0.0000000000000D+00  0.0000000000000D+00
185  1.8400000000000D+00  0.0000000000000D+00  0.0000000000000D+00
186  1.8500000000000D+00  0.0000000000000D+00  0.0000000000000D+00
187  1.8600000000000D+00  0.0000000000000D+00  0.0000000000000D+00
188  1.8700000000000D+00  0.0000000000000D+00  0.0000000000000D+00
189  1.8800000000000D+00  0.0000000000000D+00  0.0000000000000D+00
190  1.8900000000000D+00  0.0000000000000D+00  0.0000000000000D+00
191  1.9000000000000D+00  0.0000000000000D+00  0.0000000000000D+00
192  1.9100000000000D+00  0.0000000000000D+00  0.0000000000000D+00
193  1.9200000000000D+00  0.0000000000000D+00  0.0000000000000D+00
194  1.9300000000000D+00  0.0000000000000D+00  0.0000000000000D+00
195  1.9400000000000D+00  0.0000000000000D+00  0.0000000000000D+00
196  1.9500000000000D+00  0.0000000000000D+00  0.0000000000000D+00
197  1.9600000000000D+00  0.0000000000000D+00  0.0000000000000D+00
198  1.9700000000000D+00  0.0000000000000D+00  0.0000000000000D+00
199  1.9800000000000D+00  0.0000000000000D+00  0.0000000000000D+00
200  1.9900000000000D+00  0.0000000000000D+00  0.0000000000000D+00
201  2.0000000000000D+00  0.0000000000000D+00  0.0000000000000D+00
202  2.0100000000000D+00  0.0000000000000D+00  0.0000000000000D+00
203  2.0200000000000D+00  0.0000000000000D+00  0.0000000000000D+00
204  2.0300000000000D+00  0.0000000000000D+00  0.0000000000000D+00
205  2.0400000000000D+00  0.0000000000000D+00  0.0000000000000D+00
206  2.0500000000000D+00  0.0000000000000D+00  0.0000000000000D+00
207  2.0600000000000D+00  0.0000000000000D+00  0.0000000000000D+00
208  2.0700000000000D+00  0.0000000000000D+00  0.0000000000000D+00
209  2.0800000000000D+00  0.0000000000000D+00  0.0000000000000D+00
210  2.0900000000000D+00  0.0000000000000D+00  0.0000000000000D+00
211  2.1000000000000D+00  0.0000000000000D+00  0.0000000000000D+00
212  2.1100000000000D+00  0.0000000000000D+00  0.0000000000000D+00
213  2.1200000000000D+00  0.0000000000000D+00  0.0000000000000D+00
214  2.1300000000000D+00  0.0000000000000D+00  0.0000000000000D+00
215  2.1400000000000D+00  0.0000000000000D+00  0.0000000000000D+00
216  2.1500000000000D+00  0.0000000000000D+00  0.0000000000000D+00
217  2.1600000000000D+00  0.0000000000000D+00  0.0000000000000D+00
218  2.1700000000000D+00  0.0000000000000D+00  0.0000000000000D+00
219  2.1800000000000D+00  0.0000000000000D+00  0.0000000000000D+00
220  2.1900000000000D+00  0.0000000000000D+00  0.0000000000000D+00
221  2.2000000000000D+00  0.0000000000000D+00  0.0000000000000D+00
222  2.2100000000000D+00  0.0000000000000D+00  0.0000000000000D+00
223  2.2200000000000D+00  0.0000000000000D+00  0.0000000000000D+00
224  2.2300000000000D+00  0.0000000000000D+00  0.0000000000000D+00
225  2.2400000000000D+00  0.0000000000000D+00  0.0000000000000D+00
226  2.2500000000000D+00  0.0000000000000D+00  0.0000000000000D+00
227  2.2600000000000D+00  0.0000000000000D+00  0.0000000000000D+00
228  2.2700000000000D+00  0.0000000000000D+00  0.0000000000000D+00
229  2.2800000000000D+00  0.0000000000000D+00  0.0000000000000D+00
230  2.2900000000000D+00  0.0000000000000D+00  0.0000000000000D+00
231  2.3000000000000D+00  0.0000000000000D+00  0.0000000000000D+00
232  2.3100000000000D+00  0.0000000000000D+00  0.0000000000000D+00
233  2.3200000000000D+00  0.0000000000000D+00  0.0000000000000D+00
234  2.3300000000000D+00  0.0000000000000D+00  0.0000000000000D+00
235  2.3400000000000D+00  0.0000000000000D+00  0.0000000000000D+00
236  2.3500000000000D+00  0.0000000000000D+00  0.0000000000000D+00
237  2.3600000000000D+00  0.0000000000000D+00  0.0000000000000D+00
238  2.3700000000000D+00  0.0000000000000D+00  0.0000000000000D+00
239  2.3800000000000D+00  0.0000000000000D+00  0.0000000000000D+00
240  2.3900000000000D+00  0.0000000000000D+00  0.0000000000000D+00
241  2.4000000000000D+00  0.0000000000000D+00  0.0000000000000D+00
242  2.4100000000000D+00  0.0000000000000D+00  0.0000000000000D+00
243  2.4200000000000D+00  0.0000000000000D+00  0.0000000000000D+00
244  2.4300000000000D+00  0.0000000000000D+00  0.0000000000000D+00
245  2.4400000000000D+00  0.0000000000000D+00  0.0000000000000D+00
246  2.4500000000000D+00  0.0000000000000D+00  0.0000000000000D+00
247  2.4600000000000D+00  0.0000000000000D+00  0.0000000000000D+00
248  2.4700000000000D+00  0.0000000000000D+00  0.0000000000000D+00
249  2.4800000000000D+00  0.0000000000000D+00  0.0000000000000D+00
250  2.4900000000000D+00  0.0000000000000D+00  0.0000000000000D+00
251  2.5000000000000D+00  0.0000000000000D+00  0.0000000000000D+00
252  2.5100000000000D+00  0.0000000000000D+00  0.0000000000000D+00
253  2.5200000000000D+00  0.0000000000000D+00  0.0000000000000D+00
254  2.5300000000000D+00  0.0000000000000D+00  0.0000000000000D+00
255  2.5400000000000D+00  0.0000000000000D+00  0.0000000000000D+00
256  2.5500000000000D+00  0.0000000000000D+00  0.0000000000000D+00
257  2.5600000000000D+00  0.0000000000000D+00  0.0000000000000D+00
258  2.5700000000000D+00  0.0000000000000D+00  0.0000000000000D+00
259  2.5800000000000D+00  0.0000000000000D+00  0.0000000000000D+00
260  2.5900000000000D+00  0.0000000000000D+00  0.0000000000000D+00
261  2.6000000000000D+00  0.0000000000000D+00  0.0000000000000D+00
262  2.6100000000000D+00  0.0000000000000D+00  0.0000000000000D+00
263  2.6200000000000D+00  0.0000000000000D+00  0.0000000000000D+00
264  2.6300000000000D+00  0.0000000000000D+00  0.0000000000000D+00
265  2.6400000000000D+00  0.0000000000000D+00  0.0000000000000D+00
266  2.6500000000000D+00  0.0000000000000D+00  0.0000000000000D+00
267  2.6600000000000D+00  0.0000000000000D+00  0.0000000000000D+00
268  2.6700000000000D+00  0.0000000000000D+00  0.0000000000000D+00
269  2.6800000000000D+00  0.0000000000000D+00  0.0000000000000D+00
270  2.6900000000000D+00  0.0000000000000D+00  0.0000000000000D+00
271  2.7000000000000D+00  0.0000000000000D+00  0.0000000000000D+00
272  2.7100000000000D+00  0.0000000000000D+00  0.0000000000000D+00
273  2.7200000000000D+00  0.0000000000000D+00  0.0000000000000D+00
274  2.7300000000000D+00  0.0000000000000D+00  0.0000000000000D+00
275  2.7400000000000D+00  0.0000000000000D+00  0.0000000000000D+00
276  2.7500000000000D+00  0.0000000000000D+00  0.0000000000000D+00
277  2.7600000000000D+00  0.0000000000000D+00  0.0000000000000D+00
278  2.7700000000000D+00  0.0000000000000D+00  0.0000000000000D+00
279  2.7800000000000D+00  0.0000000000000D+00  0.0000000000000D+00
280  2.7900000000000D+00  0.0000000000000D+00  0.0000000000000D+00
281  2.8000000000000D+00  0.0000000000000D+00  0.0000000000000D+00
282  2.8100000000000D+00  0.0000000000000D+00  0.0000000000000D+00
283  2.8200000000000D+00  0.0000000000000D+00  0.0000000000000D+00
284  2.8300000000000D+00  0.0000000000000D+00  0.0000000000000D+00
285  2.8400000000000D+00  0.0000000000000D+00  0.0000000000000D+00
286  2.8500000000000D+00  0.0000000000000D+00  0.0000000000000D+00
287  2.8600000000000D+00  0.0000000000000D+00  0.0000000000000D+00
288  2.8700000000000D+00  0.0000000000000D+00  0.0000000000000D+00
289  2.8800000000000D+00  0.0000000000000D+00  0.0000000000000D+00
290  2.8900000000000D+00  0.0000000000000D+00  0.0000000000000D+00
291  2.9000000000000D+00  0.0000000000000D+00  0.0000000000000D+00
292  2.9100000000000D+00  0.0000000000000D+00  0.0000000000000D+00
293  2.9200000000000D+00  0.0000000000000D+00  0.0000000000000D+00
294  2.9300000000000D+00  0.0000000000000D+00  0.0000000000000D+00
295  2.9400000000000D+00  0.0000000000000D+00  0.0000000000000D+00
296  2.9500000000000D+00  0.0000000000000D+00  0.0000000000000D+00
297  2.9600000000000D+00  0.0000000000000D+00  0.0000000000000D+00
298  2.9700000000000D+00  0.0000000000000D+00  0.0000000000000D+00
299  2.9800000000000D+00  0.0000000000000D+00  0.0000000000000D+00
300  2.9900000000000D+00  0.0000000000000D+00  0.0000000000000D+00
301  3.0000000000000D+00  0.0000000000000D+00  0.0000000000000D+00
302  3.0100000000000D+00  0.0000000000000D+00  0.0000000000000D+00
303  3.0200000000000D+00  0.0000000000000D+00  0.0000000000000D+00
304  3.0300000000000D+00  0.0000000000000D+00  0.0000000000000D+00
305  3.0400000000000D+00  0.0000000000000D+00  0.0000000000000D+00
306  3.0500000000000D+00  0.0000000000000D+00  0.0000000000000D+00
307  3.0600000000000D+00  0.0000000000000D+00  0.0000000000000D+00
308  3.0700000000000D+00  0.0000000000000D+00  0.0000000000000D+00
309  3.0800000000000D+00  0.0000000000000D+00  0.0000000000000D+00
310  3.0900000000000D+00  0.0000000000000D+00  0.0000000000000D+00
311  3.1000000000000D+00  0.0000000000000D+00  0.0000000000000D+00
312  3.1100000000000D+00  0.0000000000000D+00  0.0000000000000D+00
313  3.1200000000000D+00  0.0000000000000D+00  0.0000000000000D+00
314  3.1300000000000D+00  0.0000000000000D+00  0.0000000000000D+00
315  3.1400000000000D+00  0.0000000000000D+00  0.0000000000000D+00
316  3.1500000000000D+00  0.0000000000000D+00  0.0000000000000D+00
317  3.1600000000000D+00  0.0000000000000D+00  0.0000000000000D+00
318  3.1700000000000D+00  0.0000000000000D+00  0.0000000000000D+00
319  3.1800000000000D+00  0.0000000000000D+00  0.0000000000000D+00
320  3.1900000000000D+00  0.0000000000000D+00  0.0000000000000D+00
321  3.2000000000000D+00  0.0000000000000D+00  0.0000000000000D+00
322  3.2100000000000D+00  0.0000000000000D+00  0.0000000000000D+00
323  3.2200000000000D+00  0.0000000000000D+00  0.0000000000000D+00
324  3.2300000000000D+00  0.0000000000000D+00  0.0000000000000D+00
325  3.2400000000000D+00  0.0000000000000D+00  0.0000000000000D+00
326  3.2500000000000D+00  0.0000000000000D+00  0.0000000000000D+00
327  3.2600000000000D+00  0.0000000000000D+00  0.0000000000000D+00
328  3.2700000000000D+00  0.0000000000000D+00  0.0000000000000D+00
329  3.2800000000000D+00  0.0000000000000D+00  0.0000000000000D+00
330  3.2900000000000D+00  0.0000000000000D+00  0.0000000000000D+00
331  3.3000000000000D+00  0.0000000000000D+00  0.0000000000000D+00
332  3.3100000000000D+00  0.0000000000000D+00  0.0000000000000D+00
333  3.3200000000000D+00  0.0000000000000D+00  0.0000000000000D+00
334  3.3300000000000D+00  0.0000000000000D+00  0.0000000000000D+00
335  3.3400000000000D+00  0.0000000000000D+00  0.0000000000000D+00
336  3.3500000000000D+00  0.0000000000000D+00  0.0000000000000D+00
337  3.3600000000000D+00  0.0000000000000D+00  0.0000000000000D+00
338  3.3700000000000D+00  0.0000000000000D+00  0.0000000000000D+00
339  3.3800000000000D+00  0.0000000000000D+00  0.0000000000000D+00
340  3.3900000000000D+00  0.0000000000000D+00  0.0000000000000D+00
341  3.4000000000000D+00  0.0000000000000D+00  0.0000000000000D+00
342  3.4100000000000D+00  0.0000000000000D+00  0.0000000000000D+00
343  3.4200000000000D+00  0.0000000000000D+00  0.0000000000000D+00
344  3.4300000000000D+00  0.0000000000000D+00  0.0000000000000D+00
345  3.4400000000000D+00  0.0000000000000D+00  0.0000000000000D+00
346  3.4500000000000D+00  0.0000000000000D+00  0.0000000000000D+00
347  3.4600000000000D+00  0.0000000000000D+00  0.0000000000000D+00
348  3.4700000000000D+00  0.0000000000000D+00  0.0000000000000D+00
349  3.4800000000000D+00  0.0000000000000D+00  0.0000000000000D+00
350  3.4900000000000D+00  0.0000000000000D+00  0.0000000000000D+00
351  3.5000000000000D+00  0.0000000000000D+00  0.0000000000000D+00
352  3.5100000000000D+00  0.0000000000000D+00  0.0000000000000D+00
353  3.5200000000000D+00  0.0000000000000D+00  0.0000000000000D+00
354  3.5300000000000D+00  0.0000000000000D+00  0.0000000000000D+00
355  3.5400000000000D+00  0.0000000000000D+00  0.0000000000000D+00
356  3.5500000000000D+00  0.0000000000000D+00  0.0000000000000D+00
357  3.5600000000000D+00  0.0000000000000D+00  0.0000000000000D+00
358  3.5700000000000D+00  0.0000000000000D+00  0.0000000000000D+00
359  3.5800000000000D+00  0.0000000000000D+00  0.0000000000000D+00
360  3.5900000000000D+00  0.0000000000000D+00  0.0000000000000D+00
361  3.6000000000000D+00  0.0000000000000D+00  0.0000000000000D+00
362  3.6100000000000D+00  0.0000000000000D+00  0.0000000000000D+00
363  3.6200000000000D+00  0.0000000000000D+00  0.0000000000000D+00
364  3.6300000000000D+00  0.0000000000000D+00  0.0000000000000D+00
365  3.6400000000000D+00  0.0000000000000D+00  0.0000000000000D+00
366  3.6500000000000D+00  0.0000000000000D+00  0.0000000000000D+00
367  3.6600000000000D+00  0.0000000000000D+00  0.0000000000000D+00
368  3.6700000000000D+00  0.0000000000000D+00  0.0000000000000D+00
369  3.6800000000000D+00  0.0000000000000D+00  0.0000000000000D+00
370  3.6900000000000D+00  0.0000000000000D+00  0.0000000000000D+00
371  3.7000000000000D+00  0.0000000000000D+00  0.0000000000000D+00
372  3.7100000000000D+00  0.0000000000000D+00  0.0000000000000D+00
373  3.7200000000000D+00  0.0000000000000D+00  0.0000000000000D+00
374  3.7300000000000D+00  0.0000000000000D+00  0.0000000000000D+00
375  3.7400000000000D+00  0.0000000000000D+00  0.0000000000000D+00
376  3.7500000000000D+00  0.0000000000000D+00  0.0000000000000D+00
377  3.7600000000000D+00  0.0000000000000D+00  0.0000000000000D+00
378  3.7700000000000D+00  0.0000000000000D+00  0.0000000000000D+00
379  3.7800000000000D+00  0.0000000000000D+00  0.0000000000000D+00
380  3.7900000000000D+00  0.0000000000000D+00  0.0000000000000D+00
381  3.8000000000000D+00  0.0000000000000D+00  0.0000000000000D+00
382  3.8100000000000D+00  0.0000000000000D+00  0.0000000000000D+00
383  3.8200000000000D+00  0.0000000000000D+00  0.0000000000000D+00
384  3.8300000000000D+00  0.0000000000000D+00  0.0000000000000D+00
385  3.8400000000000D+00  0.0000000000000D+00  0.0000000000000D+00
386  3.8500000000000D+00  0.0000000000000D+00  0.0000000000000D+00
387  3.8600000000000D+00  0.0000000000000D+00  0.0000000000000D+00
388  3.8700000000000D+00  0.0000000000000D+00  0.0000000000000D+00
389  3.8800000000000D+00  0.0000000000000D+00  0.0000000000000D+00
390  3.8900000000000D+00  0.0000000000000D+00  0.0000000000000D+00
391  3.9000000000000D+00  0.0000000000000D+00  0.0000000000000D+00
392  3.9100000000000D+00  0.0000000000000D+00  0.0000000000000D+00
393  3.9200000000000D+00  0.0000000000000D+00  0.0000000000000D+00
394  3.9300000000000D+00  0.0000000000000D+00  0.0000000000000D+00
395  3.9400000000000D+00  0.0000000000000D+00  0.0000000000000D+00
396  3.9500000000000D+00  0.0000000000000D+00  0.0000000000000D+00
397  3.9600000000000D+00  0.0000000000000D+00  0.0000000000000D+00
398  3.9700000000000D+00  0.0000000000000D+00  0.0000000000000D+00
399  3.9800000000000D+00  0.0000000000000D+00  0.0000000000000D+00
400  3.9900000000000D+00  0.0000000000000D+00  0.0000000000000D+00
401  4.0000000000000D+00  0.0000000000000D+00  0.0000000000000D+00
402  4.0100000000000D+00  0.0000000000000D+00  0.0000000000000D+00
403  4.0200000000000D+00  0.0000000000000D+00  0.0000000000000D+00
404  4.0300000000000D+00  0.0000000000000D+00  0.0000000000000D+00
405  4.0400000000000D+00  0.0000000000000D+00  0.0000000000000D+00
406  4.0500000000000D+00  0.0000000000000D+00  0.0000000000000D+00
407  4.0600000000000D+00  0.0000000000000D+00  0.0000000000000D+00
408  4.0700000000000D+00  0.0000000000000D+00  0.0000000000000D+00
409  4.0800000000000D+00  0.0000000000000D+00  0.0000000000000D+00
410  4.0900000000000D+00  0.0000000000000D+00  0.0000000000000D+00
411  4.1000000000000D+00  0.0000000000000D+00  0.0000000000000D+00
412  4.1100000000000D+00  0.0000000000000D+00  0.0000000000000D+00
413  4.1200000000000D+00  0.0000000000000D+00  0.0000000000000D+00
414  4.1300000000000D+00  0.0000000000000D+00  0.0000000000000D+00
415  4.1400000000000D+00  0.0000000000000D+00  0.0000000000000D+00
416  4.1500000000000D+00  0.0000000000000D+00  0.0000000000000D+00
417  4.1600000000000D+00  0.0000000000000D+00  0.0000000000000D+00
418  4.1700000000000D+00  0.0000000000000D+00  0.0000000000000D+00
419  4.1800000000000D+00  0.0000000000000D+00  0.0000000000000D+00
420  4.1900000000000D+00  0.0000000000000D+00  0.0000000000000D+00
421  4.2000000000000D+00  0.0000000000000D+00  0.0000000000000D+00
422  4.2100000000000D+00  0.0000000000000D+00  0.0000000000000D+00
423  4.2200000000000D+00  0.0000000000000D+00  0.0000000000000D+00
424  4.2300000000000D+00  0.0000000000000D+00  0.0000000000000D+00
425  4.2400000000000D+00  0.0000000000000D+00  0.0000000000000D+00
426  4.2500000000000D+00  0.0000000000000D+00  0.0000000000000D+00
427  4.2600000000000D+00  0.0000000000000D+00  0.0000000000000D+00
428  4.2700000000000D+00  0.0000000000000D+00  0.0000000000000D+00
429  4.2800000000000D+00  0.0000000000000D+00  0.0000000000000D+00
430  4.2900000000000D+00  0.0000000000000D+00  0.0000000000000D+00
431  4.3000000000000D+00  0.0000000000000D+00  0.0000000000000D+00
432  4.3100000000000D+00  0.0000000000000D+00  0.0000000000000D+00
433  4.3200000000000D+00  0.0000000000000D+00  0.0000000000000D+00
434  4.3300000000000D+00  0.0000000000000D+00  0.0000000000000D+00
435  4.3400000000000D+00  0.0000000000000D+00  0.0000000000000D+00
436  4.3500000000000D+00  0.0000000000000D+00  0.0000000000000D+00
437  4.3600000000000D+00  0.0000000000000D+00  0.0000000000000D+00
438  4.3700000000000D+00  0.0000000000000D+00  0.0000000000000D+00
439  4.3800000000000D+00  0.0000000000000D+00  0.0000000000000D+00
440  4.3900000000000D+00  0.0000000000000D+00  0.0000000000000D+00
441  4.4000000000000D+00  0.0000000000000D+00  0.0000000000000D+00
442  4.4100000000000D+00  0.0000000000000D+00  0.0000000000000D+00
443  4.4200000000000D+00  0.0000000000000D+00  0.0000000000000D+00