H     ONCVPSP  r_core=  1.01  0.91
1.0000      1.0000      161009    zatom,zion,pspd
8   -1012   1     4   300     0    pspcod,pspxc,lmax,lloc,mmax,r2well
2.99000000  0.00000000  0.00000000    rchrg fchrg qchrg
2     1     0     0     0    nproj
1                 extension_switch
0                        -8.0229637403002D+00 -8.4762134543966D-01
1  0.0000000000000D+00 -4.9164928572765D-08  7.9362807992034D-09
2  1.0000000000000D-02  2.5646424776034D-01  3.0979783671558D-02
3  2.0000000000000D-02  5.0975599531508D-01  6.2412867122767D-02
4  3.0000000000000D-02  7.5674915418985D-01  9.4744011795456D-02
5  4.0000000000000D-02  9.9440970939756D-01  1.2840103503174D-01
6  5.0000000000000D-02  1.2198398940972D+00  1.6378666739779D-01
7  6.0000000000000D-02  1.4303201655131D+00  2.0127079950391D-01
8  7.0000000000000D-02  1.6233483081263D+00  2.4118323866511D-01
9  8.0000000000000D-02  1.7966750393172D+00  2.8380708781016D-01
10  9.0000000000000D-02  1.9483355524398D+00  3.2937284936802D-01
11  1.0000000000000D-01  2.0766765017054D+00  3.7805334559396D-01
12  1.1000000000000D-01  2.1803780109949D+00  4.2995953412407D-01
13  1.2000000000000D-01  2.2584703734626D+00  4.8513728366812D-01
14  1.3000000000000D-01  2.3103451990141D+00  5.4356515989029D-01
15  1.4000000000000D-01  2.3357608608747D+00  6.0515325591993D-01
16  1.5000000000000D-01  2.3348421888309D+00  6.6974308583121D-01
17  1.6000000000000D-01  2.3080744536453D+00  7.3710854308560D-01
18  1.7000000000000D-01  2.2562917829105D+00  8.0695790960424D-01
19  1.8000000000000D-01  2.1806602415279D+00  8.7893688508749D-01
20  1.9000000000000D-01  2.0826558984684D+00  9.5263259067750D-01
21  2.0000000000000D-01  1.9640382839299D+00  1.0275784863123D+00
22  2.1000000000000D-01  1.8268197160321D+00  1.1032601273744D+00
23  2.2000000000000D-01  1.6732310424774D+00  1.1791216737095D+00
24  2.3000000000000D-01  1.5056843990287D+00  1.2545730529706D+00
25  2.4000000000000D-01  1.3267336322410D+00  1.3289976707024D+00
26  2.5000000000000D-01  1.1390330678886D+00  1.4017605517605D+00
27  2.6000000000000D-01  9.4529532838843D-01  1.4722167916740D+00
28  2.7000000000000D-01  7.4824891191575D-01  1.5397201924955D+00
29  2.8000000000000D-01  5.5059624272914D-01  1.6036319555859D+00
30  2.9000000000000D-01  3.5497288659595D-01  1.6633293036783D+00
31  3.0000000000000D-01  1.6390859748697D-01  1.7182139064421D+00
32  3.1000000000000D-01 -2.0209177544405D-02  1.7677199875757D+00
33  3.2000000000000D-01 -1.9516875838932D-01  1.8113219971256D+00
34  3.3000000000000D-01 -3.5896413969947D-01  1.8485417401535D+00
35  3.4000000000000D-01 -5.0982089780576D-01  1.8789548619122D+00
36  3.5000000000000D-01 -6.4621772383029D-01  1.9021966001970D+00
37  3.6000000000000D-01 -7.6690329177422D-01  1.9179667273262D+00
38  3.7000000000000D-01 -8.7090825644570D-01  1.9260336170679D+00
39  3.8000000000000D-01 -9.5755226495736D-01  1.9262373855649D+00
40  3.9000000000000D-01 -1.0264459555311D+00  1.9184920696763D+00
41  4.0000000000000D-01 -1.0774880068324D+00  1.9027868209274D+00
42  4.1000000000000D-01 -1.1108573883821D+00  1.8791861081897D+00
43  4.2000000000000D-01 -1.1270010461733D+00  1.8478289370691D+00
44  4.3000000000000D-01 -1.1266173359270D+00  1.8089271085215D+00
45  4.4000000000000D-01 -1.1106355880725D+00  1.7627625532163D+00
46  4.5000000000000D-01 -1.0801922522386D+00  1.7096837914169D+00
47  4.6000000000000D-01 -1.0366041237059D+00  1.6501015804357D+00
48  4.7000000000000D-01 -9.8133919893739D-01  1.5844838228851D+00
49  4.8000000000000D-01 -9.1598574126056D-01  1.5133498188032D+00
50  4.9000000000000D-01 -8.4222016046639D-01  1.4372639531770D+00
51  5.0000000000000D-01 -7.6177432123346D-01  1.3568289172785D+00
52  5.1000000000000D-01 -6.7640289477271D-01  1.2726785675204D+00
53  5.2000000000000D-01 -5.8785135606025D-01  1.1854705291493D+00
54  5.3000000000000D-01 -4.9782520586861D-01  1.0958786540188D+00
55  5.4000000000000D-01 -4.0796096305830D-01  1.0045854419296D+00
56  5.5000000000000D-01 -3.1979942900418D-01  9.1227453360701D-01
57  5.6000000000000D-01 -2.3476167374005D-01  8.1962338040260D-01
58  5.7000000000000D-01 -1.5412813313432D-01  7.2729619129552D-01
59  5.8000000000000D-01 -7.9021140059991D-02  6.3593725190962D-01
60  5.9000000000000D-01 -1.0391140648729D-02  5.4616470310134D-01
61  6.0000000000000D-01  5.0993228198217D-02  4.5856485847089D-01
62  6.1000000000000D-01  1.0455110151242D-01  3.7368713093251D-01
63  6.2000000000000D-01  1.4989136800609D-01  2.9203962860532D-01
64  6.3000000000000D-01  1.8681072681160D-01  2.1408546973438D-01
65  6.4000000000000D-01  2.1528794906437D-01  1.4023985550722D-01
66  6.5000000000000D-01  2.3547454430890D-01  7.0867928569600D-02
67  6.6000000000000D-01  2.4768209658804D-01  6.2834339564240D-03
68  6.7000000000000D-01  2.5236659299894D-01 -5.3251811692585D-02
69  6.8000000000000D-01  2.5011011787844D-01 -1.0752764726870D-01
70  6.9000000000000D-01  2.4160032640403D-01 -1.5638450354739D-01
71  7.0000000000000D-01  2.2760816696172D-01 -1.9971160732057D-01
72  7.1000000000000D-01  2.0896419823643D-01 -2.3744428947087D-01
73  7.2000000000000D-01  1.8653667284381D-01 -2.6956465568530D-01
74  7.3000000000000D-01  1.6121563572888D-01 -2.9611058042822D-01
75  7.4000000000000D-01  1.3389458149320D-01 -3.1717816326944D-01
76  7.5000000000000D-01  1.0544962139161D-01 -3.3291803728222D-01
77  7.6000000000000D-01  7.6720009135470D-02 -3.4353144036155D-01
78  7.7000000000000D-01  4.8490279142046D-02 -3.4926586933855D-01
79  7.8000000000000D-01  2.1474383152415D-02 -3.5041044353927D-01
80  7.9000000000000D-01 -3.6978769625417D-03 -3.4729103948787D-01
81  8.0000000000000D-01 -2.6491878644009D-02 -3.4026525858621D-01
82  8.1000000000000D-01 -4.6476489570852D-02 -3.2971728809397D-01
83  8.2000000000000D-01 -6.3329543385414D-02 -3.1605271283708D-01
84  8.3000000000000D-01 -7.6840429162581D-02 -2.9969333153141D-01
85  8.4000000000000D-01 -8.6909809322587D-02 -2.8107202754404D-01
86  8.5000000000000D-01 -9.3546545177688D-02 -2.6062773944890D-01
87  8.6000000000000D-01 -9.6861971161904D-02 -2.3880057199254D-01
88  8.7000000000000D-01 -9.7061716725522D-02 -2.1602708319321D-01
89  8.8000000000000D-01 -9.4435327678321D-02 -1.9273577837233D-01
90  8.9000000000000D-01 -8.9343985349461D-02 -1.6934283707461D-01
91  9.0000000000000D-01 -8.2206661348991D-02 -1.4624809417605D-01
92  9.1000000000000D-01 -7.3485077174433D-02 -1.2383129209969D-01
93  9.2000000000000D-01 -6.3667860786818D-02 -1.0244861703823D-01
94  9.3000000000000D-01 -5.3254306151163D-02 -8.2429528483518D-02
95  9.4000000000000D-01 -4.2738146356318D-02 -6.4073888236547D-02
96  9.5000000000000D-01 -3.2591746331112D-02 -4.7649392449958D-02
97  9.6000000000000D-01 -2.3251106969993D-02 -3.3389308145337D-02
98  9.7000000000000D-01 -1.5102050695590D-02 -2.1490514088455D-02
99  9.8000000000000D-01 -8.4704824274273D-03 -1.2116272412337D-02
100  9.9000000000000D-01 -3.5869176445079D-03 -5.3490742650940D-03
101  1.0000000000000D+00 -6.8353447624949D-04 -1.3968412464037D-03
102  1.0100000000000D+00  2.6294732950852D-04 -6.3871811513744D-05
103  1.0200000000000D+00  5.2033281078008D-05  1.9021415232575D-05
104  1.0300000000000D+00 -3.7700319434436D-05 -1.7395355698597D-05
105  1.0400000000000D+00  1.0173209895794D-05  3.5705086768545D-06
106  1.0500000000000D+00 -6.1071000053957D-07  2.0399548027117D-07
107  1.0600000000000D+00  0.0000000000000D+00  0.0000000000000D+00
108  1.0700000000000D+00  0.0000000000000D+00  0.0000000000000D+00
109  1.0800000000000D+00  0.0000000000000D+00  0.0000000000000D+00
110  1.0900000000000D+00  0.0000000000000D+00  0.0000000000000D+00
111  1.1000000000000D+00  0.0000000000000D+00  0.0000000000000D+00
112  1.1100000000000D+00  0.0000000000000D+00  0.0000000000000D+00
113  1.1200000000000D+00  0.0000000000000D+00  0.0000000000000D+00
114  1.1300000000000D+00  0.0000000000000D+00  0.0000000000000D+00
115  1.1400000000000D+00  0.0000000000000D+00  0.0000000000000D+00
116  1.1500000000000D+00  0.0000000000000D+00  0.0000000000000D+00
117  1.1600000000000D+00  0.0000000000000D+00  0.0000000000000D+00
118  1.1700000000000D+00  0.0000000000000D+00  0.0000000000000D+00
119  1.1800000000000D+00  0.0000000000000D+00  0.0000000000000D+00
120  1.1900000000000D+00  0.0000000000000D+00  0.0000000000000D+00
121  1.2000000000000D+00  0.0000000000000D+00  0.0000000000000D+00
122  1.2100000000000D+00  0.0000000000000D+00  0.0000000000000D+00
123  1.2200000000000D+00  0.0000000000000D+00  0.0000000000000D+00
124  1.2300000000000D+00  0.0000000000000D+00  0.0000000000000D+00
125  1.2400000000000D+00  0.0000000000000D+00  0.0000000000000D+00
126  1.2500000000000D+00  0.0000000000000D+00  0.0000000000000D+00
127  1.2600000000000D+00  0.0000000000000D+00  0.0000000000000D+00
128  1.2700000000000D+00  0.0000000000000D+00  0.0000000000000D+00
129  1.2800000000000D+00  0.0000000000000D+00  0.0000000000000D+00
130  1.2900000000000D+00  0.0000000000000D+00  0.0000000000000D+00
131  1.3000000000000D+00  0.0000000000000D+00  0.0000000000000D+00
132  1.3100000000000D+00  0.0000000000000D+00  0.0000000000000D+00
133  1.3200000000000D+00  0.0000000000000D+00  0.0000000000000D+00
134  1.3300000000000D+00  0.0000000000000D+00  0.0000000000000D+00
135  1.3400000000000D+00  0.0000000000000D+00  0.0000000000000D+00
136  1.3500000000000D+00  0.0000000000000D+00  0.0000000000000D+00
137  1.3600000000000D+00  0.0000000000000D+00  0.0000000000000D+00
138  1.3700000000000D+00  0.0000000000000D+00  0.0000000000000D+00
139  1.3800000000000D+00  0.0000000000000D+00  0.0000000000000D+00
140  1.3900000000000D+00  0.0000000000000D+00  0.0000000000000D+00
141  1.4000000000000D+00  0.0000000000000D+00  0.0000000000000D+00
142  1.4100000000000D+00  0.0000000000000D+00  0.0000000000000D+00
143  1.4200000000000D+00  0.0000000000000D+00  0.0000000000000D+00
144  1.4300000000000D+00  0.0000000000000D+00  0.0000000000000D+00
145  1.4400000000000D+00  0.0000000000000D+00  0.0000000000000D+00
146  1.4500000000000D+00  0.0000000000000D+00  0.0000000000000D+00
147  1.4600000000000D+00  0.0000000000000D+00  0.0000000000000D+00
148  1.4700000000000D+00  0.0000000000000D+00  0.0000000000000D+00
149  1.4800000000000D+00  0.0000000000000D+00  0.0000000000000D+00
150  1.4900000000000D+00  0.0000000000000D+00  0.0000000000000D+00
151  1.5000000000000D+00  0.0000000000000D+00  0.0000000000000D+00
152  1.5100000000000D+00  0.0000000000000D+00  0.0000000000000D+00
153  1.5200000000000D+00  0.0000000000000D+00  0.0000000000000D+00
154  1.5300000000000D+00  0.0000000000000D+00  0.0000000000000D+00
155  1.5400000000000D+00  0.0000000000000D+00  0.0000000000000D+00
156  1.5500000000000D+00  0.0000000000000D+00  0.0000000000000D+00
157  1.5600000000000D+00  0.0000000000000D+00  0.0000000000000D+00
158  1.5700000000000D+00  0.0000000000000D+00  0.0000000000000D+00
159  1.5800000000000D+00  0.0000000000000D+00  0.0000000000000D+00
160  1.5900000000000D+00  0.0000000000000D+00  0.0000000000000D+00
161  1.6000000000000D+00  0.0000000000000D+00  0.0000000000000D+00
162  1.6100000000000D+00  0.0000000000000D+00  0.0000000000000D+00
163  1.6200000000000D+00  0.0000000000000D+00  0.0000000000000D+00
164  1.6300000000000D+00  0.0000000000000D+00  0.0000000000000D+00
165  1.6400000000000D+00  0.0000000000000D+00  0.0000000000000D+00
166  1.6500000000000D+00  0.0000000000000D+00  0.0000000000000D+00
167  1.6600000000000D+00  0.0000000000000D+00  0.0000000000000D+00
168  1.6700000000000D+00  0.0000000000000D+00  0.0000000000000D+00
169  1.6800000000000D+00  0.0000000000000D+00  0.0000000000000D+00
170  1.6900000000000D+00  0.0000000000000D+00  0.0000000000000D+00
171  1.7000000000000D+00  0.0000000000000D+00  0.0000000000000D+00
172  1.7100000000000D+00  0.0000000000000D+00  0.0000000000000D+00
173  1.7200000000000D+00  0.0000000000000D+00  0.0000000000000D+00
174  1.7300000000000D+00  0.0000000000000D+00  0.0000000000000D+00
175  1.7400000000000D+00  0.0000000000000D+00  0.0000000000000D+00
176  1.7500000000000D+00  0.0000000000000D+00  0.0000000000000D+00
177  1.7600000000000D+00  0.0000000000000D+00  0.0000000000000D+00
178  1.7700000000000D+00  0.0000000000000D+00  0.0000000000000D+00
179  1.7800000000000D+00  0.0000000000000D+00  0.0000000000000D+00
180  1.7900000000000D+00  0.0000000000000D+00  0.0000000000000D+00
181  1.8000000000000D+00  0.0000000000000D+00  0.0000000000000D+00
182  1.8100000000000D+00  0.0000000000000D+00  0.0000000000000D+00
183  1.8200000000000D+00  0.0000000000000D+00  0.0000000000000D+00
184  1.8300000000000D+00  0.0000000000000D+00  0.0000000000000D+00
185  1.8400000000000D+00  0.0000000000000D+00  0.0000000000000D+00
186  1.8500000000000D+00  0.0000000000000D+00  0.0000000000000D+00
187  1.8600000000000D+00  0.0000000000000D+00  0.0000000000000D+00
188  1.8700000000000D+00  0.0000000000000D+00  0.0000000000000D+00
189  1.8800000000000D+00  0.0000000000000D+00  0.0000000000000D+00
190  1.8900000000000D+00  0.0000000000000D+00  0.0000000000000D+00
191  1.9000000000000D+00  0.0000000000000D+00  0.0000000000000D+00
192  1.9100000000000D+00  0.0000000000000D+00  0.0000000000000D+00
193  1.9200000000000D+00  0.0000000000000D+00  0.0000000000000D+00
194  1.9300000000000D+00  0.0000000000000D+00  0.0000000000000D+00
195  1.9400000000000D+00  0.0000000000000D+00  0.0000000000000D+00
196  1.9500000000000D+00  0.0000000000000D+00  0.0000000000000D+00
197  1.9600000000000D+00  0.0000000000000D+00  0.0000000000000D+00
198  1.9700000000000D+00  0.0000000000000D+00  0.0000000000000D+00
199  1.9800000000000D+00  0.0000000000000D+00  0.0000000000000D+00
200  1.9900000000000D+00  0.0000000000000D+00  0.0000000000000D+00
201  2.0000000000000D+00  0.0000000000000D+00  0.0000000000000D+00
202  2.0100000000000D+00  0.0000000000000D+00  0.0000000000000D+00
203  2.0200000000000D+00  0.0000000000000D+00  0.0000000000000D+00
204  2.0300000000000D+00  0.0000000000000D+00  0.0000000000000D+00
205  2.0400000000000D+00  0.0000000000000D+00  0.0000000000000D+00
206  2.0500000000000D+00  0.0000000000000D+00  0.0000000000000D+00
207  2.0600000000000D+00  0.0000000000000D+00  0.0000000000000D+00
208  2.0700000000000D+00  0.0000000000000D+00  0.0000000000000D+00
209  2.0800000000000D+00  0.0000000000000D+00  0.0000000000000D+00
210  2.0900000000000D+00  0.0000000000000D+00  0.0000000000000D+00
211  2.1000000000000D+00  0.0000000000000D+00  0.0000000000000D+00
212  2.1100000000000D+00  0.0000000000000D+00  0.0000000000000D+00
213  2.1200000000000D+00  0.0000000000000D+00  0.0000000000000D+00
214  2.1300000000000D+00  0.0000000000000D+00  0.0000000000000D+00
215  2.1400000000000D+00  0.0000000000000D+00  0.0000000000000D+00
216  2.1500000000000D+00  0.0000000000000D+00  0.0000000000000D+00
217  2.1600000000000D+00  0.0000000000000D+00  0.0000000000000D+00
218  2.1700000000000D+00  0.0000000000000D+00  0.0000000000000D+00
219  2.1800000000000D+00  0.0000000000000D+00  0.0000000000000D+00
220  2.1900000000000D+00  0.0000000000000D+00  0.0000000000000D+00
221  2.2000000000000D+00  0.0000000000000D+00  0.0000000000000D+00
222  2.2100000000000D+00  0.0000000000000D+00  0.0000000000000D+00
223  2.2200000000000D+00  0.0000000000000D+00  0.0000000000000D+00
224  2.2300000000000D+00  0.0000000000000D+00  0.0000000000000D+00
225  2.2400000000000D+00  0.0000000000000D+00  0.0000000000000D+00
226  2.2500000000000D+00  0.0000000000000D+00  0.0000000000000D+00
227  2.2600000000000D+00  0.0000000000000D+00  0.0000000000000D+00
228  2.2700000000000D+00  0.0000000000000D+00  0.0000000000000D+00
229  2.2800000000000D+00  0.0000000000000D+00  0.0000000000000D+00
230  2.2900000000000D+00  0.0000000000000D+00  0.0000000000000D+00
231  2.3000000000000D+00  0.0000000000000D+00  0.0000000000000D+00
232  2.3100000000000D+00  0.0000000000000D+00  0.0000000000000D+00
233  2.3200000000000D+00  0.0000000000000D+00  0.0000000000000D+00
234  2.3300000000000D+00  0.0000000000000D+00  0.0000000000000D+00
235  2.3400000000000D+00  0.0000000000000D+00  0.0000000000000D+00
236  2.3500000000000D+00  0.0000000000000D+00  0.0000000000000D+00
237  2.3600000000000D+00  0.0000000000000D+00  0.0000000000000D+00
238  2.3700000000000D+00  0.0000000000000D+00  0.0000000000000D+00
239  2.3800000000000D+00  0.0000000000000D+00  0.0000000000000D+00
240  2.3900000000000D+00  0.0000000000000D+00  0.0000000000000D+00
241  2.4000000000000D+00  0.0000000000000D+00  0.0000000000000D+00
242  2.4100000000000D+00  0.0000000000000D+00  0.0000000000000D+00
243  2.4200000000000D+00  0.0000000000000D+00  0.0000000000000D+00
244  2.4300000000000D+00  0.0000000000000D+00  0.0000000000000D+00
245  2.4400000000000D+00  0.0000000000000D+00  0.0000000000000D+00
246  2.4500000000000D+00  0.0000000000000D+00  0.0000000000000D+00
247  2.4600000000000D+00  0.0000000000000D+00  0.0000000000000D+00
248  2.4700000000000D+00  0.0000000000000D+00  0.0000000000000D+00
249  2.4800000000000D+00  0.0000000000000D+00  0.0000000000000D+00
250  2.4900000000000D+00  0.0000000000000D+00  0.0000000000000D+00
251  2.5000000000000D+00  0.0000000000000D+00  0.0000000000000D+00
252  2.5100000000000D+00  0.0000000000000D+00  0.0000000000000D+00
253  2.5200000000000D+00  0.0000000000000D+00  0.0000000000000D+00
254  2.5300000000000D+00  0.0000000000000D+00  0.0000000000000D+00
255  2.5400000000000D+00  0.0000000000000D+00  0.0000000000000D+00
256  2.5500000000000D+00  0.0000000000000D+00  0.0000000000000D+00
257  2.5600000000000D+00  0.0000000000000D+00  0.0000000000000D+00
258  2.5700000000000D+00  0.0000000000000D+00  0.0000000000000D+00
259  2.5800000000000D+00  0.0000000000000D+00  0.0000000000000D+00
260  2.5900000000000D+00  0.0000000000000D+00  0.0000000000000D+00
261  2.6000000000000D+00  0.0000000000000D+00  0.0000000000000D+00
262  2.6100000000000D+00  0.0000000000000D+00  0.0000000000000D+00
263  2.6200000000000D+00  0.0000000000000D+00  0.0000000000000D+00
264  2.6300000000000D+00  0.0000000000000D+00  0.0000000000000D+00
265  2.6400000000000D+00  0.0000000000000D+00  0.0000000000000D+00
266  2.6500000000000D+00  0.0000000000000D+00  0.0000000000000D+00
267  2.6600000000000D+00  0.0000000000000D+00  0.0000000000000D+00
268  2.6700000000000D+00  0.0000000000000D+00  0.0000000000000D+00
269  2.6800000000000D+00  0.0000000000000D+00  0.0000000000000D+00
270  2.6900000000000D+00  0.0000000000000D+00  0.0000000000000D+00
271  2.7000000000000D+00  0.0000000000000D+00  0.0000000000000D+00
272  2.7100000000000D+00  0.0000000000000D+00  0.0000000000000D+00
273  2.7200000000000D+00  0.0000000000000D+00  0.0000000000000D+00
274  2.7300000000000D+00  0.0000000000000D+00  0.0000000000000D+00
275  2.7400000000000D+00  0.0000000000000D+00  0.0000000000000D+00
276  2.7500000000000D+00  0.0000000000000D+00  0.0000000000000D+00
277  2.7600000000000D+00  0.0000000000000D+00  0.0000000000000D+00
278  2.7700000000000D+00  0.0000000000000D+00  0.0000000000000D+00
279  2.7800000000000D+00  0.0000000000000D+00  0.0000000000000D+00
280  2.7900000000000D+00  0.0000000000000D+00  0.0000000000000D+00
281  2.8000000000000D+00  0.0000000000000D+00  0.0000000000000D+00
282  2.8100000000000D+00  0.0000000000000D+00  0.0000000000000D+00
283  2.8200000000000D+00  0.0000000000000D+00  0.0000000000000D+00
284  2.8300000000000D+00  0.0000000000000D+00  0.0000000000000D+00
285  2.8400000000000D+00  0.0000000000000D+00  0.0000000000000D+00
286  2.8500000000000D+00  0.0000000000000D+00  0.0000000000000D+00
287  2.8600000000000D+00  0.0000000000000D+00  0.0000000000000D+00
288  2.8700000000000D+00  0.0000000000000D+00  0.0000000000000D+00
289  2.8800000000000D+00  0.0000000000000D+00  0.0000000000000D+00
290  2.8900000000000D+00  0.0000000000000D+00  0.0000000000000D+00
291  2.9000000000000D+00  0.0000000000000D+00  0.0000000000000D+00
292  2.9100000000000D+00  0.0000000000000D+00  0.0000000000000D+00
293  2.9200000000000D+00  0.0000000000000D+00  0.0000000000000D+00
294  2.9300000000000D+00  0.0000000000000D+00  0.0000000000000D+00
295  2.9400000000000D+00  0.0000000000000D+00  0.0000000000000D+00
296  2.9500000000000D+00  0.0000000000000D+00  0.0000000000000D+00
297  2.9600000000000D+00  0.0000000000000D+00  0.0000000000000D+00
298  2.9700000000000D+00  0.0000000000000D+00  0.0000000000000D+00
299  2.9800000000000D+00  0.0000000000000D+00  0.0000000000000D+00
300  2.9900000000000D+00  0.0000000000000D+00  0.0000000000000D+00
1                        -7.9810666085978D-01
1  0.0000000000000D+00 -1.7249056914748D-07
2  1.0000000000000D-02  1.5105031411825D-03
3  2.0000000000000D-02  6.1155526353567D-03
4  3.0000000000000D-02  1.4032376362754D-02
5  4.0000000000000D-02  2.5611825904813D-02
6  5.0000000000000D-02  4.1321975859787D-02
7  6.0000000000000D-02  6.1725933831150D-02
8  7.0000000000000D-02  8.7454603608750D-02
9  8.0000000000000D-02  1.1917531655321D-01
10  9.0000000000000D-02  1.5755739056757D-01
11  1.0000000000000D-01  2.0323578780526D-01
12  1.1000000000000D-01  2.5677411789152D-01
13  1.2000000000000D-01  3.1862827047947D-01
14  1.3000000000000D-01  3.8911195812342D-01
15  1.4000000000000D-01  4.6836540762496D-01
16  1.5000000000000D-01  5.5632835628504D-01
17  1.6000000000000D-01  6.5271839113689D-01
18  1.7000000000000D-01  7.5701551760756D-01
19  1.8000000000000D-01  8.6845366353325D-01
20  1.9000000000000D-01  9.8601962029225D-01
21  2.0000000000000D-01  1.1084597010054D+00
22  2.1000000000000D-01  1.2342941628289D+00
23  2.2000000000000D-01  1.3618392032349D+00
24  2.3000000000000D-01  1.4892361059032D+00
25  2.4000000000000D-01  1.6144868874660D+00
26  2.5000000000000D-01  1.7354955886033D+00
27  2.6000000000000D-01  1.8501141682163D+00
28  2.7000000000000D-01  1.9561918032582D+00
29  2.8000000000000D-01  2.0516262741516D+00
30  2.9000000000000D-01  2.1344160304572D+00
31  3.0000000000000D-01  2.2027114864097D+00
32  3.1000000000000D-01  2.2548640927584D+00
33  3.2000000000000D-01  2.2894717704745D+00
34  3.3000000000000D-01  2.3054193725254D+00
35  3.4000000000000D-01  2.3019129600311D+00
36  3.5000000000000D-01  2.2785068355391D+00
37  3.6000000000000D-01  2.2351224646009D+00
38  3.7000000000000D-01  2.1720586320902D+00
39  3.8000000000000D-01  2.0899924157269D+00
40  3.9000000000000D-01  1.9899708094038D+00
41  4.0000000000000D-01  1.8733930860178D+00
42  4.1000000000000D-01  1.7419842462448D+00
43  4.2000000000000D-01  1.5977601486908D+00
44  4.3000000000000D-01  1.4429851508908D+00
45  4.4000000000000D-01  1.2801233029542D+00
46  4.5000000000000D-01  1.1117843200651D+00
47  4.6000000000000D-01  9.4066571114806D-01
48  4.7000000000000D-01  7.6949255435573D-01
49  4.8000000000000D-01  6.0095648223532D-01
50  4.9000000000000D-01  4.3765546830827D-01
51  5.0000000000000D-01  2.8203599141250D-01
52  5.1000000000000D-01  1.3633909483074D-01
53  5.2000000000000D-01  2.5517555473869D-03
54  5.3000000000000D-01 -1.1763516207080D-01
55  5.4000000000000D-01 -2.2286127049958D-01
56  5.5000000000000D-01 -3.1212245070021D-01
57  5.6000000000000D-01 -3.8478741184420D-01
58  5.7000000000000D-01 -4.4060460985596D-01
59  5.8000000000000D-01 -4.7969937482533D-01
60  5.9000000000000D-01 -5.0256136156673D-01
61  6.0000000000000D-01 -5.1002269552781D-01
62  6.1000000000000D-01 -5.0322743445482D-01
63  6.2000000000000D-01 -4.8359319312855D-01
64  6.3000000000000D-01 -4.5276598209647D-01
65  6.4000000000000D-01 -4.1256948183442D-01
66  6.5000000000000D-01 -3.6495010887963D-01
67  6.6000000000000D-01 -3.1191932546138D-01
68  6.7000000000000D-01 -2.5549469593722D-01
69  6.8000000000000D-01 -1.9764120153931D-01
70  6.9000000000000D-01 -1.4021428282563D-01
71  7.0000000000000D-01 -8.4906112497142D-02
72  7.1000000000000D-01 -3.3195772324278D-02
73  7.2000000000000D-01  1.3682534161796D-02
74  7.3000000000000D-01  5.4735724379379D-02
75  7.4000000000000D-01  8.9216577933736D-02
76  7.5000000000000D-01  1.1663717813326D-01
77  7.6000000000000D-01  1.3677349752547D-01
78  7.7000000000000D-01  1.4966186211740D-01
79  7.8000000000000D-01  1.5558737809362D-01
80  7.9000000000000D-01  1.5506483472623D-01
81  8.0000000000000D-01  1.4881281782687D-01
82  8.1000000000000D-01  1.3772196727767D-01
83  8.2000000000000D-01  1.2281848377575D-01
84  8.3000000000000D-01  1.0522412713941D-01
85  8.4000000000000D-01  8.6114047295824D-02
86  8.5000000000000D-01  6.6673846515114D-02
87  8.6000000000000D-01  4.8057285922719D-02
88  8.7000000000000D-01  3.1346020440878D-02
89  8.8000000000000D-01  1.7520022554976D-02
90  8.9000000000000D-01  7.3425754737447D-03
91  9.0000000000000D-01  1.7806510075188D-03
92  9.1000000000000D-01  2.0463703448098D-04
93  9.2000000000000D-01 -5.8210210356506D-06
94  9.3000000000000D-01  1.5445966930614D-06
95  9.4000000000000D-01 -7.2199590327776D-08
96  9.5000000000000D-01 -3.8634186701992D-07
97  9.6000000000000D-01  0.0000000000000D+00
98  9.7000000000000D-01  0.0000000000000D+00
99  9.8000000000000D-01  0.0000000000000D+00
100  9.9000000000000D-01  0.0000000000000D+00
101  1.0000000000000D+00  0.0000000000000D+00
102  1.0100000000000D+00  0.0000000000000D+00
103  1.0200000000000D+00  0.0000000000000D+00
104  1.0300000000000D+00  0.0000000000000D+00
105  1.0400000000000D+00  0.0000000000000D+00
106  1.0500000000000D+00  0.0000000000000D+00
107  1.0600000000000D+00  0.0000000000000D+00
108  1.0700000000000D+00  0.0000000000000D+00
109  1.0800000000000D+00  0.0000000000000D+00
110  1.0900000000000D+00  0.0000000000000D+00
111  1.1000000000000D+00  0.0000000000000D+00
112  1.1100000000000D+00  0.0000000000000D+00
113  1.1200000000000D+00  0.0000000000000D+00
114  1.1300000000000D+00  0.0000000000000D+00
115  1.1400000000000D+00  0.0000000000000D+00
116  1.1500000000000D+00  0.0000000000000D+00
117  1.1600000000000D+00  0.0000000000000D+00
118  1.1700000000000D+00  0.0000000000000D+00
119  1.1800000000000D+00  0.0000000000000D+00
120  1.1900000000000D+00  0.0000000000000D+00
121  1.2000000000000D+00  0.0000000000000D+00
122  1.2100000000000D+00  0.0000000000000D+00
123  1.2200000000000D+00  0.0000000000000D+00
124  1.2300000000000D+00  0.0000000000000D+00
125  1.2400000000000D+00  0.0000000000000D+00
126  1.2500000000000D+00  0.0000000000000D+00
127  1.2600000000000D+00  0.0000000000000D+00
128  1.2700000000000D+00  0.0000000000000D+00
129  1.2800000000000D+00  0.0000000000000D+00
130  1.2900000000000D+00  0.0000000000000D+00
131  1.3000000000000D+00  0.0000000000000D+00
132  1.3100000000000D+00  0.0000000000000D+00
133  1.3200000000000D+00  0.0000000000000D+00
134  1.3300000000000D+00  0.0000000000000D+00
135  1.3400000000000D+00  0.0000000000000D+00
136  1.3500000000000D+00  0.0000000000000D+00
137  1.3600000000000D+00  0.0000000000000D+00
138  1.3700000000000D+00  0.0000000000000D+00
139  1.3800000000000D+00  0.0000000000000D+00
140  1.3900000000000D+00  0.0000000000000D+00
141  1.4000000000000D+00  0.0000000000000D+00
142  1.4100000000000D+00  0.0000000000000D+00
143  1.4200000000000D+00  0.0000000000000D+00
144  1.4300000000000D+00  0.0000000000000D+00
145  1.4400000000000D+00  0.0000000000000D+00
146  1.4500000000000D+00  0.0000000000000D+00
147  1.4600000000000D+00  0.0000000000000D+00
148  1.4700000000000D+00  0.0000000000000D+00
149  1.4800000000000D+00  0.0000000000000D+00
150  1.4900000000000D+00  0.0000000000000D+00
151  1.5000000000000D+00  0.0000000000000D+00
152  1.5100000000000D+00  0.0000000000000D+00
153  1.5200000000000D+00  0.0000000000000D+00
154  1.5300000000000D+00  0.0000000000000D+00
155  1.5400000000000D+00  0.0000000000000D+00
156  1.5500000000000D+00  0.0000000000000D+00
157  1.5600000000000D+00  0.0000000000000D+00
158  1.5700000000000D+00  0.0000000000000D+00
159  1.5800000000000D+00  0.0000000000000D+00
160  1.5900000000000D+00  0.0000000000000D+00
161  1.6000000000000D+00  0.0000000000000D+00
162  1.6100000000000D+00  0.0000000000000D+00
163  1.6200000000000D+00  0.0000000000000D+00
164  1.6300000000000D+00  0.0000000000000D+00
165  1.6400000000000D+00  0.0000000000000D+00
166  1.6500000000000D+00  0.0000000000000D+00
167  1.6600000000000D+00  0.0000000000000D+00
168  1.6700000000000D+00  0.0000000000000D+00
169  1.6800000000000D+00  0.0000000000000D+00
170  1.6900000000000D+00  0.0000000000000D+00
171  1.7000000000000D+00  0.0000000000000D+00
172  1.7100000000000D+00  0.0000000000000D+00
173  1.7200000000000D+00  0.0000000000000D+00
174  1.7300000000000D+00  0.0000000000000D+00
175  1.7400000000000D+00  0.0000000000000D+00
176  1.7500000000000D+00  0.0000000000000D+00
177  1.7600000000000D+00  0.0000000000000D+00
178  1.7700000000000D+00  0.0000000000000D+00
179  1.7800000000000D+00  0.0000000000000D+00
180  1.7900000000000D+00  0.0000000000000D+00
181  1.8000000000000D+00  0.0000000000000D+00
182  1.8100000000000D+00  0.0000000000000D+00
183  1.8200000000000D+00  0.0000000000000D+00
184  1.8300000000000D+00  0.0000000000000D+00
185  1.8400000000000D+00  0.0000000000000D+00
186  1.8500000000000D+00  0.0000000000000D+00
187  1.8600000000000D+00  0.0000000000000D+00
188  1.8700000000000D+00  0.0000000000000D+00
189  1.8800000000000D+00  0.0000000000000D+00
190  1.8900000000000D+00  0.0000000000000D+00
191  1.9000000000000D+00  0.0000000000000D+00
192  1.9100000000000D+00  0.0000000000000D+00
193  1.9200000000000D+00  0.0000000000000D+00
194  1.9300000000000D+00  0.0000000000000D+00
195  1.9400000000000D+00  0.0000000000000D+00
196  1.9500000000000D+00  0.0000000000000D+00
197  1.9600000000000D+00  0.0000000000000D+00
198  1.9700000000000D+00  0.0000000000000D+00
199  1.9800000000000D+00  0.0000000000000D+00
200  1.9900000000000D+00  0.0000000000000D+00
201  2.0000000000000D+00  0.0000000000000D+00
202  2.0100000000000D+00  0.0000000000000D+00
203  2.0200000000000D+00  0.0000000000000D+00
204  2.0300000000000D+00  0.0000000000000D+00
205  2.0400000000000D+00  0.0000000000000D+00
206  2.0500000000000D+00  0.0000000000000D+00
207  2.0600000000000D+00  0.0000000000000D+00
208  2.0700000000000D+00  0.0000000000000D+00
209  2.0800000000000D+00  0.0000000000000D+00
210  2.0900000000000D+00  0.0000000000000D+00
211  2.1000000000000D+00  0.0000000000000D+00