Al    ONCVPSP  r_core=  1.81  1.81  1.81
13.0000      3.0000      161002    zatom,zion,pspd
8      11   2     4   600     0    pspcod,pspxc,lmax,lloc,mmax,r2well
5.99000000  5.00000000  0.00000000    rchrg fchrg qchrg
2     2     2     0     0    nproj
1                 extension_switch
0                         5.0845602388239D+00  6.8494538400930D-01
1  0.0000000000000D+00 -5.3742683914226D-10  1.2552468300897D-09
2  1.0000000000000D-02  1.5778608611075D-02  6.1017007098945D-03
3  2.0000000000000D-02  3.1532260900232D-02  1.2270970551145D-02
4  3.0000000000000D-02  4.7236633061491D-02  1.8573837299442D-02
5  4.0000000000000D-02  6.2868656335638D-02  2.5073269482161D-02
6  5.0000000000000D-02  7.8407119709786D-02  3.1827705087162D-02
7  6.0000000000000D-02  9.3833243215612D-02  3.8889649366656D-02
8  7.0000000000000D-02  1.0913121266567D-01  4.6304363273386D-02
9  8.0000000000000D-02  1.2428866720463D-01  5.4108662811107D-02
10  9.0000000000000D-02  1.3929713171029D-01  6.2329848044267D-02
11  1.0000000000000D-01  1.5415238684925D-01  7.0984778713291D-02
12  1.1000000000000D-01  1.6885477046375D-01  8.0079111365983D-02
13  1.2000000000000D-01  1.8340940492707D-01  8.9606710670121D-02
14  1.3000000000000D-01  1.9782634614381D-01  9.9549245146545D-02
15  1.4000000000000D-01  2.1212065097177D-01  1.0987597498968D-01
16  1.5000000000000D-01  2.2631236099200D-01  1.2054373695688D-01
17  1.6000000000000D-01  2.4042640173525D-01  1.3149712854645D-01
18  1.7000000000000D-01  2.5449239767154D-01  1.4266889088296D-01
19  1.8000000000000D-01  2.6854440446883D-01  1.5398048692610D-01
20  1.9000000000000D-01  2.8262056120995D-01  1.6534286885306D-01
21  2.0000000000000D-01  2.9676266640837D-01  1.7665742577224D-01
22  2.1000000000000D-01  3.1101568276782D-01  1.8781710034386D-01
23  2.2000000000000D-01  3.2542717667183D-01  1.9870766044674D-01
24  2.3000000000000D-01  3.4004669935462D-01  2.0920910977250D-01
25  2.4000000000000D-01  3.5492511757939D-01  2.1919721918021D-01
26  2.5000000000000D-01  3.7011390242298D-01  2.2854515883411D-01
27  2.6000000000000D-01  3.8566438542578D-01  2.3712520959943D-01
28  2.7000000000000D-01  4.0162699190393D-01  2.4481053090855D-01
29  2.8000000000000D-01  4.1805046162897D-01  2.5147696134886D-01
30  2.9000000000000D-01  4.3498106735258D-01  2.5700482757999D-01
31  3.0000000000000D-01  4.5246184178682D-01  2.6128073686983D-01
32  3.1000000000000D-01  4.7053182364061D-01  2.6419932855272D-01
33  3.2000000000000D-01  4.8922533316114D-01  2.6566496005928D-01
34  3.3000000000000D-01  5.0857128733564D-01  2.6559330384329D-01
35  3.4000000000000D-01  5.2859256447725D-01  2.6391283252838D-01
36  3.5000000000000D-01  5.4930542735547D-01  2.6056617090428D-01
37  3.6000000000000D-01  5.7071901334162D-01  2.5551129500250D-01
38  3.7000000000000D-01  5.9283489923278D-01  2.4872256035579D-01
39  3.8000000000000D-01  6.1564674750454D-01  2.4019154366854D-01
40  3.9000000000000D-01  6.3914003973342D-01  2.2992768447138D-01
41  4.0000000000000D-01  6.6329190183847D-01  2.1795871587182D-01
42  4.1000000000000D-01  6.8807102463257D-01  2.0433087620968D-01
43  4.2000000000000D-01  7.1343768196064D-01  1.8910889624892D-01
44  4.3000000000000D-01  7.3934384745195D-01  1.7237575944679D-01
45  4.4000000000000D-01  7.6573340964287D-01  1.5423223580037D-01
46  4.5000000000000D-01  7.9254248395041D-01  1.3479619274074D-01
47  4.6000000000000D-01  8.1969981871367D-01  1.1420168948644D-01
48  4.7000000000000D-01  8.4712729128688D-01  9.2597864140973D-02
49  4.8000000000000D-01  8.7474048897818D-01  7.0147625588423D-02
50  4.9000000000000D-01  9.0244936850210D-01  4.7026164865874D-02
51  5.0000000000000D-01  9.3015898656233D-01  2.3419303138853D-02
52  5.1000000000000D-01  9.5777029322150D-01 -4.7830435691066D-04
53  5.2000000000000D-01  9.8518097885828D-01 -2.4465087049088D-02
54  5.3000000000000D-01  1.0122863647713D+00 -4.8334577353797D-02
55  5.4000000000000D-01  1.0389803268738D+00 -7.1877504073829D-02
56  5.5000000000000D-01  1.0651562414426D+00 -9.4883935231542D-02
57  5.6000000000000D-01  1.0907079415448D+00 -1.1714544390743D-01
58  5.7000000000000D-01  1.1155306725729D+00 -1.3845727020466D-01
59  5.8000000000000D-01  1.1395220352755D+00 -1.5862045235982D-01
60  5.9000000000000D-01  1.1625829047795D+00 -1.7744390027138D-01
61  6.0000000000000D-01  1.1846183143552D+00 -1.9474638531808D-01
62  6.1000000000000D-01  1.2055382930859D+00 -2.1035842128862D-01
63  6.2000000000000D-01  1.2252586471467D+00 -2.2412401251946D-01
64  6.3000000000000D-01  1.2437016750896D+00 -2.3590224694303D-01
65  6.4000000000000D-01  1.2607968083417D+00 -2.4556871364256D-01
66  6.5000000000000D-01  1.2764811690576D+00 -2.5301672668551D-01
67  6.6000000000000D-01  1.2907000385071D+00 -2.5815833943789D-01
68  6.7000000000000D-01  1.3034072303155D+00 -2.6092513620025D-01
69  6.8000000000000D-01  1.3145653640803D+00 -2.6126879083639D-01
70  6.9000000000000D-01  1.3241460361760D+00 -2.5916138505188D-01
71  7.0000000000000D-01  1.3321298858757D+00 -2.5459548206919D-01
72  7.1000000000000D-01  1.3385065562805D+00 -2.4758395460677D-01
73  7.2000000000000D-01  1.3432745509134D+00 -2.3815956927055D-01
74  7.3000000000000D-01  1.3464409882052D+00 -2.2637433265334D-01
75  7.4000000000000D-01  1.3480212574381D+00 -2.1229860756874D-01
76  7.5000000000000D-01  1.3480385810203D+00 -1.9602001088906D-01
77  7.6000000000000D-01  1.3465234892100D+00 -1.7764210736981D-01
78  7.7000000000000D-01  1.3435132145764D+00 -1.5728291656899D-01
79  7.8000000000000D-01  1.3390510145752D+00 -1.3507325251295D-01
80  7.9000000000000D-01  1.3331854315890D+00 -1.1115491803526D-01
81  8.0000000000000D-01  1.3259695006470D+00 -8.5678777730796D-02
82  8.1000000000000D-01  1.3174599157696D+00 -5.8802735175182D-02
83  8.2000000000000D-01  1.3077161664751D+00 -3.0689641443325D-02
84  8.3000000000000D-01  1.2967996564263D+00 -1.5051629955784D-03
85  8.4000000000000D-01  1.2847728164866D+00  2.8584362326610D-02
86  8.5000000000000D-01  1.2716982245770D+00  5.9414052154967D-02
87  8.6000000000000D-01  1.2576377446917D+00  9.0822560340614D-02
88  8.7000000000000D-01  1.2426516972281D+00  1.2265408309915D-01
89  8.8000000000000D-01  1.2267980724256D+00  1.5476026290621D-01
90  8.9000000000000D-01  1.2101317981820D+00  1.8700196371179D-01
91  9.0000000000000D-01  1.1927040728428D+00  2.1925089261675D-01
92  9.1000000000000D-01  1.1745617727348D+00  2.5139104507245D-01
93  9.2000000000000D-01  1.1557469432569D+00  2.8331995290051D-01
94  9.3000000000000D-01  1.1362963812549D+00  3.1494971695970D-01
95  9.4000000000000D-01  1.1162413152114D+00  3.4620780908027D-01
96  9.5000000000000D-01  1.0956071884883D+00  3.7703763090328D-01
97  9.6000000000000D-01  1.0744135494694D+00  4.0739882050345D-01
98  9.7000000000000D-01  1.0526740510316D+00  4.3726730099147D-01
99  9.8000000000000D-01  1.0303965602644D+00  4.6663506881133D-01
100  9.9000000000000D-01  1.0075833778420D+00  4.9550972299130D-01
101  1.0000000000000D+00  9.8423156493113D-01  5.2391374015591D-01
102  1.0100000000000D+00  9.6033337399779D-01  5.5188350366339D-01
103  1.0200000000000D+00  9.3587677839527D-01  5.7946809869457D-01
104  1.0300000000000D+00  9.1084609415203D-01  6.0672788854017D-01
105  1.0400000000000D+00  8.8522268606778D-01  6.3373289040265D-01
106  1.0500000000000D+00  8.5898574888888D-01  6.6056097215858D-01
107  1.0600000000000D+00  8.3211315317207D-01  6.8729589425130D-01
108  1.0700000000000D+00  8.0458234440403D-01  7.1402522332623D-01
109  1.0800000000000D+00  7.7637128299803D-01  7.4083814644488D-01
110  1.0900000000000D+00  7.4745941205210D-01  7.6782321644629D-01
111  1.1000000000000D+00  7.1782863910806D-01  7.9506606054770D-01
112  1.1100000000000D+00  6.8746431770169D-01  8.2264708534166D-01
113  1.1200000000000D+00  6.5635621424844D-01  8.5063921193813D-01
114  1.1300000000000D+00  6.2449944575427D-01  8.7910567514959D-01
115  1.1400000000000D+00  5.9189537385026D-01  9.0809792061092D-01
116  1.1500000000000D+00  5.5855244102351D-01  9.3765363288074D-01
117  1.1600000000000D+00  5.2448693535822D-01  9.6779492655754D-01
118  1.1700000000000D+00  4.8972367084712D-01  9.9852673072655D-01
119  1.1800000000000D+00  4.5429657088027D-01  1.0298353957942D+00
120  1.1900000000000D+00  4.1824914386556D-01  1.0616875486514D+00
121  1.2000000000000D+00  3.8163484103660D-01  1.0940292195549D+00
122  1.2100000000000D+00  3.4451728748950D-01  1.1267852618341D+00
123  1.2200000000000D+00  3.0697037918513D-01  1.1598590815983D+00
124  1.2300000000000D+00  2.6907824034883D-01  1.1931326906859D+00
125  1.2400000000000D+00  2.3093503711020D-01  1.2264670928173D+00
126  1.2500000000000D+00  1.9264464457712D-01  1.2597030097791D+00
127  1.2600000000000D+00  1.5432016728290D-01  1.2926619480834D+00
128  1.2700000000000D+00  1.1608331418076D-01  1.3251476036719D+00
129  1.2800000000000D+00  7.8063630432567D-02  1.3569475997425D+00
130  1.2900000000000D+00  4.0397591798244D-02  1.3878355444907D+00
131  1.3000000000000D+00  3.2275680078030D-03  1.4175733942121D+00
132  1.3100000000000D+00 -3.3299337307619D-02  1.4459141044377D+00
133  1.3200000000000D+00 -6.9032558879780D-02  1.4726045432154D+00
134  1.3300000000000D+00 -1.0381944340380D-01  1.4973886415516D+00
135  1.3400000000000D+00 -1.3750671169041D-01  1.5200107515378D+00
136  1.3500000000000D+00 -1.6994199399725D-01  1.5402191766367D+00
137  1.3600000000000D+00 -2.0097542418186D-01  1.5577698410582D+00
138  1.3700000000000D+00 -2.3046127561272D-01  1.5724300650773D+00
139  1.3800000000000D+00 -2.5825962130729D-01  1.5839823671998D+00
140  1.3900000000000D+00 -2.8423799936924D-01  1.5922283389039D+00
141  1.4000000000000D+00 -3.0827307151528D-01  1.5969924594279D+00
142  1.4100000000000D+00 -3.3025224175371D-01  1.5981258407426D+00
143  1.4200000000000D+00 -3.5007522562623D-01  1.5955088749891D+00
144  1.4300000000000D+00 -3.6765551418602D-01  1.5890534452521D+00
145  1.4400000000000D+00 -3.8292157109136D-01  1.5787003992626D+00
146  1.4500000000000D+00 -3.9581783244202D-01  1.5644176775575D+00
147  1.4600000000000D+00 -4.0630545446735D-01  1.5461998655389D+00
148  1.4700000000000D+00 -4.1436282681084D-01  1.5240667354562D+00
149  1.4800000000000D+00 -4.1998586614198D-01  1.4980617780611D+00
150  1.4900000000000D+00 -4.2318808574205D-01  1.4682510734645D+00
151  1.5000000000000D+00 -4.2400048502511D-01  1.4347223801128D+00
152  1.5100000000000D+00 -4.2247127117300D-01  1.3975847334869D+00
153  1.5200000000000D+00 -4.1866545006069D-01  1.3569684295289D+00
154  1.5300000000000D+00 -4.1266430425813D-01  1.3130254817273D+00
155  1.5400000000000D+00 -4.0456478842445D-01  1.2659304137847D+00
156  1.5500000000000D+00 -3.9447884052923D-01  1.2158812839393D+00
157  1.5600000000000D+00 -3.8253263667981D-01  1.1631007627235D+00
158  1.5700000000000D+00 -3.6886576491359D-01  1.1078371461714D+00
159  1.5800000000000D+00 -3.5363033543591D-01  1.0503650176883D+00
160  1.5900000000000D+00 -3.3699000195937D-01  9.9098559648878D-01
161  1.6000000000000D+00 -3.1911888839082D-01  9.3002639800121D-01
162  1.6100000000000D+00 -3.0020041705341D-01  8.6784040319763D-01
163  1.6200000000000D+00 -2.8042601627554D-01  8.0480442013891D-01
164  1.6300000000000D+00 -2.5999372396181D-01  7.4131687816319D-01
165  1.6400000000000D+00 -2.3910666538340D-01  6.7779487479718D-01
166  1.6500000000000D+00 -2.1797143455015D-01  6.1467070661764D-01
167  1.6600000000000D+00 -1.9679636904638D-01  5.5238783522167D-01
168  1.6700000000000D+00 -1.7578975284095D-01  4.9139648004233D-01
169  1.6800000000000D+00 -1.5515794995722D-01  4.3214887356160D-01
170  1.6900000000000D+00 -1.3510350498287D-01  3.7509433004482D-01
171  1.7000000000000D+00 -1.1582322271202D-01  3.2067420389141D-01
172  1.7100000000000D+00 -9.7506261142606D-02  2.6931684525525D-01
173  1.7200000000000D+00 -8.0332256059182D-02  2.2143264605644D-01
174  1.7300000000000D+00 -6.4469505990979D-02  1.7740923866521D-01
175  1.7400000000000D+00 -5.0073240495792D-02  1.3760694895724D-01
176  1.7500000000000D+00 -3.7288007600926D-02  1.0236559148697D-01
177  1.7600000000000D+00 -2.6235963382723D-02  7.1972429447113D-02
178  1.7700000000000D+00 -1.6990631892524D-02  4.6590172097955D-02
179  1.7800000000000D+00 -9.6487622004887D-03  2.6455103301375D-02
180  1.7900000000000D+00 -4.4298966081781D-03  1.2150648012741D-02
181  1.8000000000000D+00 -1.3722730956317D-03  3.7713069294751D-03
182  1.8100000000000D+00 -9.5410920888400D-06  3.4860803491150D-05
183  1.8200000000000D+00  2.6164008372284D-04 -7.1226147694569D-04
184  1.8300000000000D+00  6.0810612678397D-05 -1.6591068267317D-04
185  1.8400000000000D+00 -7.4674737683310D-05  2.0375755594450D-04
186  1.8500000000000D+00 -4.1429060164502D-05  1.1308645398711D-04
187  1.8600000000000D+00  1.1098132598298D-05 -3.0258609762805D-05
188  1.8700000000000D+00  1.1185143353303D-05 -3.0504508018200D-05
189  1.8800000000000D+00 -5.4372991816242D-08  1.3685869740377D-07
190  1.8900000000000D+00 -1.0065620087497D-07  2.5335513234064D-07
191  1.9000000000000D+00  0.0000000000000D+00  0.0000000000000D+00
192  1.9100000000000D+00  0.0000000000000D+00  0.0000000000000D+00
193  1.9200000000000D+00  0.0000000000000D+00  0.0000000000000D+00
194  1.9300000000000D+00  0.0000000000000D+00  0.0000000000000D+00
195  1.9400000000000D+00  0.0000000000000D+00  0.0000000000000D+00
196  1.9500000000000D+00  0.0000000000000D+00  0.0000000000000D+00
197  1.9600000000000D+00  0.0000000000000D+00  0.0000000000000D+00
198  1.9700000000000D+00  0.0000000000000D+00  0.0000000000000D+00
199  1.9800000000000D+00  0.0000000000000D+00  0.0000000000000D+00
200  1.9900000000000D+00  0.0000000000000D+00  0.0000000000000D+00
201  2.0000000000000D+00  0.0000000000000D+00  0.0000000000000D+00
202  2.0100000000000D+00  0.0000000000000D+00  0.0000000000000D+00
203  2.0200000000000D+00  0.0000000000000D+00  0.0000000000000D+00
204  2.0300000000000D+00  0.0000000000000D+00  0.0000000000000D+00
205  2.0400000000000D+00  0.0000000000000D+00  0.0000000000000D+00
206  2.0500000000000D+00  0.0000000000000D+00  0.0000000000000D+00
207  2.0600000000000D+00  0.0000000000000D+00  0.0000000000000D+00
208  2.0700000000000D+00  0.0000000000000D+00  0.0000000000000D+00
209  2.0800000000000D+00  0.0000000000000D+00  0.0000000000000D+00
210  2.0900000000000D+00  0.0000000000000D+00  0.0000000000000D+00
211  2.1000000000000D+00  0.0000000000000D+00  0.0000000000000D+00
212  2.1100000000000D+00  0.0000000000000D+00  0.0000000000000D+00
213  2.1200000000000D+00  0.0000000000000D+00  0.0000000000000D+00
214  2.1300000000000D+00  0.0000000000000D+00  0.0000000000000D+00
215  2.1400000000000D+00  0.0000000000000D+00  0.0000000000000D+00
216  2.1500000000000D+00  0.0000000000000D+00  0.0000000000000D+00
217  2.1600000000000D+00  0.0000000000000D+00  0.0000000000000D+00
218  2.1700000000000D+00  0.0000000000000D+00  0.0000000000000D+00
219  2.1800000000000D+00  0.0000000000000D+00  0.0000000000000D+00
220  2.1900000000000D+00  0.0000000000000D+00  0.0000000000000D+00
221  2.2000000000000D+00  0.0000000000000D+00  0.0000000000000D+00
222  2.2100000000000D+00  0.0000000000000D+00  0.0000000000000D+00
223  2.2200000000000D+00  0.0000000000000D+00  0.0000000000000D+00
224  2.2300000000000D+00  0.0000000000000D+00  0.0000000000000D+00
225  2.2400000000000D+00  0.0000000000000D+00  0.0000000000000D+00
226  2.2500000000000D+00  0.0000000000000D+00  0.0000000000000D+00
227  2.2600000000000D+00  0.0000000000000D+00  0.0000000000000D+00
228  2.2700000000000D+00  0.0000000000000D+00  0.0000000000000D+00
229  2.2800000000000D+00  0.0000000000000D+00  0.0000000000000D+00
230  2.2900000000000D+00  0.0000000000000D+00  0.0000000000000D+00
231  2.3000000000000D+00  0.0000000000000D+00  0.0000000000000D+00
232  2.3100000000000D+00  0.0000000000000D+00  0.0000000000000D+00
233  2.3200000000000D+00  0.0000000000000D+00  0.0000000000000D+00
234  2.3300000000000D+00  0.0000000000000D+00  0.0000000000000D+00
235  2.3400000000000D+00  0.0000000000000D+00  0.0000000000000D+00
236  2.3500000000000D+00  0.0000000000000D+00  0.0000000000000D+00
237  2.3600000000000D+00  0.0000000000000D+00  0.0000000000000D+00
238  2.3700000000000D+00  0.0000000000000D+00  0.0000000000000D+00
239  2.3800000000000D+00  0.0000000000000D+00  0.0000000000000D+00
240  2.3900000000000D+00  0.0000000000000D+00  0.0000000000000D+00
241  2.4000000000000D+00  0.0000000000000D+00  0.0000000000000D+00
242  2.4100000000000D+00  0.0000000000000D+00  0.0000000000000D+00
243  2.4200000000000D+00  0.0000000000000D+00  0.0000000000000D+00
244  2.4300000000000D+00  0.0000000000000D+00  0.0000000000000D+00
245  2.4400000000000D+00  0.0000000000000D+00  0.0000000000000D+00
246  2.4500000000000D+00  0.0000000000000D+00  0.0000000000000D+00
247  2.4600000000000D+00  0.0000000000000D+00  0.0000000000000D+00
248  2.4700000000000D+00  0.0000000000000D+00  0.0000000000000D+00
249  2.4800000000000D+00  0.0000000000000D+00  0.0000000000000D+00
250  2.4900000000000D+00  0.0000000000000D+00  0.0000000000000D+00
251  2.5000000000000D+00  0.0000000000000D+00  0.0000000000000D+00
252  2.5100000000000D+00  0.0000000000000D+00  0.0000000000000D+00
253  2.5200000000000D+00  0.0000000000000D+00  0.0000000000000D+00
254  2.5300000000000D+00  0.0000000000000D+00  0.0000000000000D+00
255  2.5400000000000D+00  0.0000000000000D+00  0.0000000000000D+00
256  2.5500000000000D+00  0.0000000000000D+00  0.0000000000000D+00
257  2.5600000000000D+00  0.0000000000000D+00  0.0000000000000D+00
258  2.5700000000000D+00  0.0000000000000D+00  0.0000000000000D+00
259  2.5800000000000D+00  0.0000000000000D+00  0.0000000000000D+00
260  2.5900000000000D+00  0.0000000000000D+00  0.0000000000000D+00
261  2.6000000000000D+00  0.0000000000000D+00  0.0000000000000D+00
262  2.6100000000000D+00  0.0000000000000D+00  0.0000000000000D+00
263  2.6200000000000D+00  0.0000000000000D+00  0.0000000000000D+00
264  2.6300000000000D+00  0.0000000000000D+00  0.0000000000000D+00
265  2.6400000000000D+00  0.0000000000000D+00  0.0000000000000D+00
266  2.6500000000000D+00  0.0000000000000D+00  0.0000000000000D+00
267  2.6600000000000D+00  0.0000000000000D+00  0.0000000000000D+00
268  2.6700000000000D+00  0.0000000000000D+00  0.0000000000000D+00
269  2.6800000000000D+00  0.0000000000000D+00  0.0000000000000D+00
270  2.6900000000000D+00  0.0000000000000D+00  0.0000000000000D+00
271  2.7000000000000D+00  0.0000000000000D+00  0.0000000000000D+00
272  2.7100000000000D+00  0.0000000000000D+00  0.0000000000000D+00
273  2.7200000000000D+00  0.0000000000000D+00  0.0000000000000D+00
274  2.7300000000000D+00  0.0000000000000D+00  0.0000000000000D+00
275  2.7400000000000D+00  0.0000000000000D+00  0.0000000000000D+00
276  2.7500000000000D+00  0.0000000000000D+00  0.0000000000000D+00
277  2.7600000000000D+00  0.0000000000000D+00  0.0000000000000D+00
278  2.7700000000000D+00  0.0000000000000D+00  0.0000000000000D+00
279  2.7800000000000D+00  0.0000000000000D+00  0.0000000000000D+00
280  2.7900000000000D+00  0.0000000000000D+00  0.0000000000000D+00
281  2.8000000000000D+00  0.0000000000000D+00  0.0000000000000D+00
282  2.8100000000000D+00  0.0000000000000D+00  0.0000000000000D+00
283  2.8200000000000D+00  0.0000000000000D+00  0.0000000000000D+00
284  2.8300000000000D+00  0.0000000000000D+00  0.0000000000000D+00
285  2.8400000000000D+00  0.0000000000000D+00  0.0000000000000D+00
286  2.8500000000000D+00  0.0000000000000D+00  0.0000000000000D+00
287  2.8600000000000D+00  0.0000000000000D+00  0.0000000000000D+00
288  2.8700000000000D+00  0.0000000000000D+00  0.0000000000000D+00
289  2.8800000000000D+00  0.0000000000000D+00  0.0000000000000D+00
290  2.8900000000000D+00  0.0000000000000D+00  0.0000000000000D+00
291  2.9000000000000D+00  0.0000000000000D+00  0.0000000000000D+00
292  2.9100000000000D+00  0.0000000000000D+00  0.0000000000000D+00
293  2.9200000000000D+00  0.0000000000000D+00  0.0000000000000D+00
294  2.9300000000000D+00  0.0000000000000D+00  0.0000000000000D+00
295  2.9400000000000D+00  0.0000000000000D+00  0.0000000000000D+00
296  2.9500000000000D+00  0.0000000000000D+00  0.0000000000000D+00
297  2.9600000000000D+00  0.0000000000000D+00  0.0000000000000D+00
298  2.9700000000000D+00  0.0000000000000D+00  0.0000000000000D+00
299  2.9800000000000D+00  0.0000000000000D+00  0.0000000000000D+00
300  2.9900000000000D+00  0.0000000000000D+00  0.0000000000000D+00
301  3.0000000000000D+00  0.0000000000000D+00  0.0000000000000D+00
302  3.0100000000000D+00  0.0000000000000D+00  0.0000000000000D+00
303  3.0200000000000D+00  0.0000000000000D+00  0.0000000000000D+00
304  3.0300000000000D+00  0.0000000000000D+00  0.0000000000000D+00
305  3.0400000000000D+00  0.0000000000000D+00  0.0000000000000D+00
306  3.0500000000000D+00  0.0000000000000D+00  0.0000000000000D+00
307  3.0600000000000D+00  0.0000000000000D+00  0.0000000000000D+00
308  3.0700000000000D+00  0.0000000000000D+00  0.0000000000000D+00
309  3.0800000000000D+00  0.0000000000000D+00  0.0000000000000D+00
310  3.0900000000000D+00  0.0000000000000D+00  0.0000000000000D+00
311  3.1000000000000D+00  0.0000000000000D+00  0.0000000000000D+00
312  3.1100000000000D+00  0.0000000000000D+00  0.0000000000000D+00
313  3.1200000000000D+00  0.0000000000000D+00  0.0000000000000D+00
314  3.1300000000000D+00  0.0000000000000D+00  0.0000000000000D+00
315  3.1400000000000D+00  0.0000000000000D+00  0.0000000000000D+00
316  3.1500000000000D+00  0.0000000000000D+00  0.0000000000000D+00
317  3.1600000000000D+00  0.0000000000000D+00  0.0000000000000D+00
318  3.1700000000000D+00  0.0000000000000D+00  0.0000000000000D+00
319  3.1800000000000D+00  0.0000000000000D+00  0.0000000000000D+00
320  3.1900000000000D+00  0.0000000000000D+00  0.0000000000000D+00
321  3.2000000000000D+00  0.0000000000000D+00  0.0000000000000D+00
322  3.2100000000000D+00  0.0000000000000D+00  0.0000000000000D+00
323  3.2200000000000D+00  0.0000000000000D+00  0.0000000000000D+00
324  3.2300000000000D+00  0.0000000000000D+00  0.0000000000000D+00
325  3.2400000000000D+00  0.0000000000000D+00  0.0000000000000D+00
326  3.2500000000000D+00  0.0000000000000D+00  0.0000000000000D+00
327  3.2600000000000D+00  0.0000000000000D+00  0.0000000000000D+00
328  3.2700000000000D+00  0.0000000000000D+00  0.0000000000000D+00
329  3.2800000000000D+00  0.0000000000000D+00  0.0000000000000D+00
330  3.2900000000000D+00  0.0000000000000D+00  0.0000000000000D+00
331  3.3000000000000D+00  0.0000000000000D+00  0.0000000000000D+00
332  3.3100000000000D+00  0.0000000000000D+00  0.0000000000000D+00
333  3.3200000000000D+00  0.0000000000000D+00  0.0000000000000D+00
334  3.3300000000000D+00  0.0000000000000D+00  0.0000000000000D+00
335  3.3400000000000D+00  0.0000000000000D+00  0.0000000000000D+00
336  3.3500000000000D+00  0.0000000000000D+00  0.0000000000000D+00
337  3.3600000000000D+00  0.0000000000000D+00  0.0000000000000D+00
338  3.3700000000000D+00  0.0000000000000D+00  0.0000000000000D+00
339  3.3800000000000D+00  0.0000000000000D+00  0.0000000000000D+00
340  3.3900000000000D+00  0.0000000000000D+00  0.0000000000000D+00
341  3.4000000000000D+00  0.0000000000000D+00  0.0000000000000D+00
342  3.4100000000000D+00  0.0000000000000D+00  0.0000000000000D+00
343  3.4200000000000D+00  0.0000000000000D+00  0.0000000000000D+00
344  3.4300000000000D+00  0.0000000000000D+00  0.0000000000000D+00
345  3.4400000000000D+00  0.0000000000000D+00  0.0000000000000D+00
346  3.4500000000000D+00  0.0000000000000D+00  0.0000000000000D+00
347  3.4600000000000D+00  0.0000000000000D+00  0.0000000000000D+00
348  3.4700000000000D+00  0.0000000000000D+00  0.0000000000000D+00
349  3.4800000000000D+00  0.0000000000000D+00  0.0000000000000D+00
350  3.4900000000000D+00  0.0000000000000D+00  0.0000000000000D+00
351  3.5000000000000D+00  0.0000000000000D+00  0.0000000000000D+00
352  3.5100000000000D+00  0.0000000000000D+00  0.0000000000000D+00
353  3.5200000000000D+00  0.0000000000000D+00  0.0000000000000D+00
354  3.5300000000000D+00  0.0000000000000D+00  0.0000000000000D+00
355  3.5400000000000D+00  0.0000000000000D+00  0.0000000000000D+00
356  3.5500000000000D+00  0.0000000000000D+00  0.0000000000000D+00
357  3.5600000000000D+00  0.0000000000000D+00  0.0000000000000D+00
358  3.5700000000000D+00  0.0000000000000D+00  0.0000000000000D+00
359  3.5800000000000D+00  0.0000000000000D+00  0.0000000000000D+00
360  3.5900000000000D+00  0.0000000000000D+00  0.0000000000000D+00
361  3.6000000000000D+00  0.0000000000000D+00  0.0000000000000D+00
362  3.6100000000000D+00  0.0000000000000D+00  0.0000000000000D+00
363  3.6200000000000D+00  0.0000000000000D+00  0.0000000000000D+00
364  3.6300000000000D+00  0.0000000000000D+00  0.0000000000000D+00
365  3.6400000000000D+00  0.0000000000000D+00  0.0000000000000D+00
366  3.6500000000000D+00  0.0000000000000D+00  0.0000000000000D+00
367  3.6600000000000D+00  0.0000000000000D+00  0.0000000000000D+00
368  3.6700000000000D+00  0.0000000000000D+00  0.0000000000000D+00
369  3.6800000000000D+00  0.0000000000000D+00  0.0000000000000D+00
370  3.6900000000000D+00  0.0000000000000D+00  0.0000000000000D+00
371  3.7000000000000D+00  0.0000000000000D+00  0.0000000000000D+00
372  3.7100000000000D+00  0.0000000000000D+00  0.0000000000000D+00
373  3.7200000000000D+00  0.0000000000000D+00  0.0000000000000D+00
374  3.7300000000000D+00  0.0000000000000D+00  0.0000000000000D+00
375  3.7400000000000D+00  0.0000000000000D+00  0.0000000000000D+00
376  3.7500000000000D+00  0.0000000000000D+00  0.0000000000000D+00
377  3.7600000000000D+00  0.0000000000000D+00  0.0000000000000D+00
378  3.7700000000000D+00  0.0000000000000D+00  0.0000000000000D+00
379  3.7800000000000D+00  0.0000000000000D+00  0.0000000000000D+00
380  3.7900000000000D+00  0.0000000000000D+00  0.0000000000000D+00
381  3.8000000000000D+00  0.0000000000000D+00  0.0000000000000D+00
382  3.8100000000000D+00  0.0000000000000D+00  0.0000000000000D+00
383  3.8200000000000D+00  0.0000000000000D+00  0.0000000000000D+00
384  3.8300000000000D+00  0.0000000000000D+00  0.0000000000000D+00
385  3.8400000000000D+00  0.0000000000000D+00  0.0000000000000D+00
386  3.8500000000000D+00  0.0000000000000D+00  0.0000000000000D+00
387  3.8600000000000D+00  0.0000000000000D+00  0.0000000000000D+00
388  3.8700000000000D+00  0.0000000000000D+00  0.0000000000000D+00
389  3.8800000000000D+00  0.0000000000000D+00  0.0000000000000D+00
390  3.8900000000000D+00  0.0000000000000D+00  0.0000000000000D+00
391  3.9000000000000D+00  0.0000000000000D+00  0.0000000000000D+00
392  3.9100000000000D+00  0.0000000000000D+00  0.0000000000000D+00
393  3.9200000000000D+00  0.0000000000000D+00  0.0000000000000D+00
394  3.9300000000000D+00  0.0000000000000D+00  0.0000000000000D+00
395  3.9400000000000D+00  0.0000000000000D+00  0.0000000000000D+00
396  3.9500000000000D+00  0.0000000000000D+00  0.0000000000000D+00
397  3.9600000000000D+00  0.0000000000000D+00  0.0000000000000D+00
398  3.9700000000000D+00  0.0000000000000D+00  0.0000000000000D+00
399  3.9800000000000D+00  0.0000000000000D+00  0.0000000000000D+00
400  3.9900000000000D+00  0.0000000000000D+00  0.0000000000000D+00
401  4.0000000000000D+00  0.0000000000000D+00  0.0000000000000D+00
402  4.0100000000000D+00  0.0000000000000D+00  0.0000000000000D+00
403  4.0200000000000D+00  0.0000000000000D+00  0.0000000000000D+00
404  4.0300000000000D+00  0.0000000000000D+00  0.0000000000000D+00
405  4.0400000000000D+00  0.0000000000000D+00  0.0000000000000D+00
406  4.0500000000000D+00  0.0000000000000D+00  0.0000000000000D+00
407  4.0600000000000D+00  0.0000000000000D+00  0.0000000000000D+00
408  4.0700000000000D+00  0.0000000000000D+00  0.0000000000000D+00
409  4.0800000000000D+00  0.0000000000000D+00  0.0000000000000D+00
410  4.0900000000000D+00  0.0000000000000D+00  0.0000000000000D+00
411  4.1000000000000D+00  0.0000000000000D+00  0.0000000000000D+00
412  4.1100000000000D+00  0.0000000000000D+00  0.0000000000000D+00
413  4.1200000000000D+00  0.0000000000000D+00  0.0000000000000D+00
414  4.1300000000000D+00  0.0000000000000D+00  0.0000000000000D+00
415  4.1400000000000D+00  0.0000000000000D+00  0.0000000000000D+00
416  4.1500000000000D+00  0.0000000000000D+00  0.0000000000000D+00
417  4.1600000000000D+00  0.0000000000000D+00  0.0000000000000D+00
418  4.1700000000000D+00  0.0000000000000D+00  0.0000000000000D+00
419  4.1800000000000D+00  0.0000000000000D+00  0.0000000000000D+00
420  4.1900000000000D+00  0.0000000000000D+00  0.0000000000000D+00
421  4.2000000000000D+00  0.0000000000000D+00  0.0000000000000D+00
422  4.2100000000000D+00  0.0000000000000D+00  0.0000000000000D+00
423  4.2200000000000D+00  0.0000000000000D+00  0.0000000000000D+00
424  4.2300000000000D+00  0.0000000000000D+00  0.0000000000000D+00
425  4.2400000000000D+00  0.0000000000000D+00  0.0000000000000D+00
426  4.2500000000000D+00  0.0000000000000D+00  0.0000000000000D+00
427  4.2600000000000D+00  0.0000000000000D+00  0.0000000000000D+00
428  4.2700000000000D+00  0.0000000000000D+00  0.0000000000000D+00
429  4.2800000000000D+00  0.0000000000000D+00  0.0000000000000D+00
430  4.2900000000000D+00  0.0000000000000D+00  0.0000000000000D+00
431  4.3000000000000D+00  0.0000000000000D+00  0.0000000000000D+00
432  4.3100000000000D+00  0.0000000000000D+00  0.0000000000000D+00
433  4.3200000000000D+00  0.0000000000000D+00  0.0000000000000D+00
434  4.3300000000000D+00  0.0000000000000D+00  0.0000000000000D+00
435  4.3400000000000D+00  0.0000000000000D+00  0.0000000000000D+00
436  4.3500000000000D+00  0.0000000000000D+00  0.0000000000000D+00
437  4.3600000000000D+00  0.0000000000000D+00  0.0000000000000D+00
438  4.3700000000000D+00  0.0000000000000D+00  0.0000000000000D+00
439  4.3800000000000D+00  0.0000000000000D+00  0.0000000000000D+00
440  4.3900000000000D+00  0.0000000000000D+00  0.0000000000000D+00
441  4.4000000000000D+00  0.0000000000000D+00  0.0000000000000D+00
442  4.4100000000000D+00  0.0000000000000D+00  0.0000000000000D+00
443  4.4200000000000D+00  0.0000000000000D+00  0.0000000000000D+00
444  4.4300000000000D+00  0.0000000000000D+00  0.0000000000000D+00