Al    ONCVPSP  r_core=  1.77  1.77  1.71
13.0000      3.0000      160408    zatom,zion,pspd
8      11   2     4   600     0    pspcod,pspxc,lmax,lloc,mmax,r2well
5.99000000  5.00000000  0.00000000    rchrg fchrg qchrg
2     3     2     0    nproj
3                 extension_switch
4     3     0    nprojso
0                         7.4169779163316D-01  5.1896784852929D+00
1  0.0000000000000D+00  2.8363989126173D-09 -1.3062526615926D-09
2  1.0000000000000D-02 -2.6125061020798D-03  1.9645531789222D-02
3  2.0000000000000D-02 -5.0255510135280D-03  3.9202887412942D-02
4  3.0000000000000D-02 -7.0431397807973D-03  5.8585462751188D-02
5  4.0000000000000D-02 -8.4761582216076D-03  7.7709774006939D-02
6  5.0000000000000D-02 -9.1456847877875D-03  9.6496958785550D-02
7  6.0000000000000D-02 -8.8861502470040D-03  1.1487420721809D-01
8  7.0000000000000D-02 -7.5482978363312D-03  1.3277610136652D-01
9  8.0000000000000D-02 -5.0018993770105D-03  1.5014584245482D-01
10  9.0000000000000D-02 -1.1381863108198D-03  1.6693634706886D-01
11  1.0000000000000D-01  4.1280413246663D-03  1.8311119533601D-01
12  1.1000000000000D-01  1.0856660377903D-02  1.9864541620794D-01
13  1.2000000000000D-01  1.9080851865958D-02  2.1352609729675D-01
14  1.3000000000000D-01  2.8806131953912D-02  2.2775280922341D-01
15  1.4000000000000D-01  4.0009802759855D-02  2.4133783709369D-01
16  1.5000000000000D-01  5.2640833108604D-02  2.5430621448221D-01
17  1.6000000000000D-01  6.6620173195979D-02  2.6669555814323D-01
18  1.7000000000000D-01  8.1841500895587D-02  2.7855570453530D-01
19  1.8000000000000D-01  9.8172391228343D-02  2.8994815210825D-01
20  1.9000000000000D-01  1.1545589440833D-01  3.0094531611270D-01
21  2.0000000000000D-01  1.3351250196301D-01  3.1162960541688D-01
22  2.1000000000000D-01  1.5214247478429D-01  3.2209233341362D-01
23  2.2000000000000D-01  1.7112850167847D-01  3.3243247753562D-01
24  2.3000000000000D-01  1.9023865212384D-01  3.4275530413513D-01
25  2.4000000000000D-01  2.0922958258125D-01  3.5317087749308D-01
26  2.5000000000000D-01  2.2784995189972D-01  3.6379247347465D-01
27  2.6000000000000D-01  2.4584399816889D-01  3.7473491981643D-01
28  2.7000000000000D-01  2.6295522683988D-01  3.8611288619606D-01
29  2.8000000000000D-01  2.7893015810289D-01  3.9803914807824D-01
30  2.9000000000000D-01  2.9352208039951D-01  4.1062284884254D-01
31  3.0000000000000D-01  3.0649475658138D-01  4.2396778486594D-01
32  3.1000000000000D-01  3.1762602960660D-01  4.3817073805752D-01
33  3.2000000000000D-01  3.2671127579360D-01  4.5331987982244D-01
34  3.3000000000000D-01  3.3356665551084D-01  4.6949326957462D-01
35  3.4000000000000D-01  3.3803211374981D-01  4.8675746973392D-01
36  3.5000000000000D-01  3.3997408627253D-01  5.0516629764745D-01
37  3.6000000000000D-01  3.3928787090164D-01  5.2475973308837D-01
38  3.7000000000000D-01  3.3589962797888D-01  5.4556299793004D-01
39  3.8000000000000D-01  3.2976797899707D-01  5.6758582229851D-01
40  3.9000000000000D-01  3.2088517784374D-01  5.9082190900196D-01
41  4.0000000000000D-01  3.0927783490834D-01  6.1524860535529D-01
42  4.1000000000000D-01  2.9500718041960D-01  6.4082678869961D-01
43  4.2000000000000D-01  2.7816885971324D-01  6.6750096899630D-01
44  4.3000000000000D-01  2.5889225959361D-01  6.9519960889520D-01
45  4.4000000000000D-01  2.3733937145969D-01  7.2383565867646D-01
46  4.5000000000000D-01  2.1370320332477D-01  7.5330730048711D-01
47  4.6000000000000D-01  1.8820575918155D-01  7.8349889337748D-01
48  4.7000000000000D-01  1.6109561026213D-01  8.1428210783010D-01
49  4.8000000000000D-01  1.3264508853108D-01  8.4551723580331D-01
50  4.9000000000000D-01  1.0314713814722D-01  8.7705465982096D-01
51  5.0000000000000D-01  7.2911865560938D-02  9.0873646236406D-01
52  5.1000000000000D-01  4.2262833309163D-02  9.4039815479031D-01
53  5.2000000000000D-01  1.1533146365246D-02  9.7187050325474D-01
54  5.3000000000000D-01 -1.8938616958174D-02  1.0029814276525D+00
55  5.4000000000000D-01 -4.8812575113167D-02  1.0335579484747D+00
56  5.5000000000000D-01 -7.7751758284148D-02  1.0634281556785D+00
57  5.6000000000000D-01 -1.0542631113561D-01  1.0924231732329D+00
58  5.7000000000000D-01 -1.3151762609704D-01  1.1203790929244D+00
59  5.8000000000000D-01 -1.5572235056756D-01  1.1471388512879D+00
60  5.9000000000000D-01 -1.7775621283483D-01  1.1725540241723D+00
61  6.0000000000000D-01 -1.9735761366979D-01  1.1964865144454D+00
62  6.1000000000000D-01 -2.1429093348731D-01  1.2188101096838D+00
63  6.2000000000000D-01 -2.2834950856179D-01  1.2394118883467D+00
64  6.3000000000000D-01 -2.3935823408674D-01  1.2581934549095D+00
65  6.4000000000000D-01 -2.4717575673247D-01  1.2750719866664D+00
66  6.5000000000000D-01 -2.5169622477714D-01  1.2899810774076D+00
67  6.6000000000000D-01 -2.5285056979020D-01  1.3028713658886D+00
68  6.7000000000000D-01 -2.5060730011292D-01  1.3137109398941D+00
69  6.8000000000000D-01 -2.4497279296877D-01  1.3224855097281D+00
70  6.9000000000000D-01 -2.3599107885789D-01  1.3291983481044D+00
71  7.0000000000000D-01 -2.2374311881751D-01  1.3338699965969D+00
72  7.1000000000000D-01 -2.0834558209355D-01  1.3365377420183D+00
73  7.2000000000000D-01 -1.8994913868601D-01  1.3372548692783D+00
74  7.3000000000000D-01 -1.6873628799180D-01  1.3360897003898D+00
75  7.4000000000000D-01 -1.4491875126502D-01  1.3331244322805D+00
76  7.5000000000000D-01 -1.1873446179127D-01  1.3284537889165D+00
77  7.6000000000000D-01 -9.0444192427012D-02  1.3221835058948D+00
78  7.7000000000000D-01 -6.0327865378434D-02  1.3144286680724D+00
79  7.8000000000000D-01 -2.8680593788930D-02  1.3053119229623D+00
80  7.9000000000000D-01  4.1914912953629D-03  1.2949615944756D+00
81  8.0000000000000D-01  3.7975571686336D-02  1.2835097231241D+00
82  8.1000000000000D-01  7.2356571082917D-02  1.2710900599846D+00
83  8.2000000000000D-01  1.0702162113794D-01  1.2578360425466D+00
84  8.3000000000000D-01  1.4166450238375D-01  1.2438787810085D+00
85  8.4000000000000D-01  1.7598999772919D-01  1.2293450836467D+00
86  8.5000000000000D-01  2.0971809698066D-01  1.2143555495446D+00
87  8.6000000000000D-01  2.4258799242470D-01  1.1990227562486D+00
88  8.7000000000000D-01  2.7436180792326D-01  1.1834495688139D+00
89  8.8000000000000D-01  3.0482800718962D-01  1.1677275952307D+00
90  8.9000000000000D-01  3.3380443089526D-01  1.1519358113923D+00
91  9.0000000000000D-01  3.6114091695766D-01  1.1361393766146D+00
92  9.1000000000000D-01  3.8672146372008D-01  1.1203886582540D+00
93  9.2000000000000D-01  4.1046590168754D-01  1.1047184812363D+00
94  9.3000000000000D-01  4.3233104595595D-01  1.0891476153391D+00
95  9.4000000000000D-01  4.5231130837868D-01  1.0736785098950D+00
96  9.5000000000000D-01  4.7043875575899D-01  1.0582972822541D+00
97  9.6000000000000D-01  4.8678260792206D-01  1.0429739628717D+00
98  9.7000000000000D-01  5.0144817706707D-01  1.0276629964110D+00
99  9.8000000000000D-01  5.1457525761360D-01  1.0123039946674D+00
100  9.9000000000000D-01  5.2633598341115D-01  9.9682273359432D-01
101  1.0000000000000D+00  5.3693217665711D-01  9.8113238327723D-01
102  1.0100000000000D+00  5.4659222015891D-01  9.6513495634801D-01
103  1.0200000000000D+00  5.5556749146491D-01  9.4872295716370D-01
104  1.0300000000000D+00  5.6412840395627D-01  9.3178121105234D-01
105  1.0400000000000D+00  5.7256010568629D-01  9.1418885030890D-01
106  1.0500000000000D+00  5.8115789230960D-01  8.9582143106748D-01
107  1.0600000000000D+00  5.9022239497777D-01  8.7655315308902D-01
108  1.0700000000000D+00  6.0005460788494D-01  8.5625915275035D-01
109  1.0800000000000D+00  6.1095082324758D-01  8.3481783809259D-01
110  1.0900000000000D+00  6.2319754355097D-01  8.1211323384180D-01
111  1.1000000000000D+00  6.3706644233016D-01  7.8803730365215D-01
112  1.1100000000000D+00  6.5280944499454D-01  7.6249221670766D-01
113  1.1200000000000D+00  6.7065400062190D-01  7.3539252608395D-01
114  1.1300000000000D+00  6.9079861376286D-01  7.0666722713477D-01
115  1.1400000000000D+00  7.1340870369924D-01  6.7626166490053D-01
116  1.1500000000000D+00  7.3861285420102D-01  6.4413926155445D-01
117  1.1600000000000D+00  7.6649951312745D-01  6.1028303660132D-01
118  1.1700000000000D+00  7.9711419547925D-01  5.7469689517924D-01
119  1.1800000000000D+00  8.3045723939991D-01  5.3740666170219D-01
120  1.1900000000000D+00  8.6648215578892D-01  4.9846084014106D-01
121  1.2000000000000D+00  9.0509460563875D-01  4.5793108525121D-01
122  1.2100000000000D+00  9.4615203319823D-01  4.1591237181634D-01
123  1.2200000000000D+00  9.8946397323246D-01  3.7252285349775D-01
124  1.2300000000000D+00  1.0347930415832D+00  3.2790340704531D-01
125  1.2400000000000D+00  1.0818566108430D+00  2.8221686102468D-01
126  1.2500000000000D+00  1.1303291656340D+00  2.3564691158070D-01
127  1.2600000000000D+00  1.1798453184659D+00  1.8839673397197D-01
128  1.2700000000000D+00  1.2300034615911D+00  1.4068730116633D-01
129  1.2800000000000D+00  1.2803700246422D+00  9.2755423376771D-02
130  1.2900000000000D+00  1.3304842919619D+00  4.4851529717669D-02
131  1.3000000000000D+00  1.3798637317005D+00 -2.7627859941208D-03
132  1.3100000000000D+00  1.4280097827917D+00 -4.9817430527736D-02
133  1.3200000000000D+00  1.4744140318233D+00 -9.6036656365372D-02
134  1.3300000000000D+00  1.5185647140096D+00 -1.4114205642633D-01
135  1.3400000000000D+00  1.5599534642021D+00 -1.8485567434138D-01
136  1.3500000000000D+00  1.5980822370906D+00 -2.2690319310798D-01
137  1.3600000000000D+00  1.6324703187298D+00 -2.6701716629217D-01
138  1.3700000000000D+00  1.6626613489911D+00 -3.0494025207664D-01
139  1.3800000000000D+00  1.6882302356910D+00 -3.4042841196285D-01
140  1.3900000000000D+00  1.7087899551868D+00 -3.7325403298904D-01
141  1.4000000000000D+00  1.7239980723900D+00 -4.0320894172140D-01
142  1.4100000000000D+00  1.7335629287789D+00 -4.3010725819367D-01
143  1.4200000000000D+00  1.7372484819426D+00 -4.5378805495900D-01
144  1.4300000000000D+00  1.7348783994605D+00 -4.7411775789943D-01
145  1.4400000000000D+00  1.7263352745055D+00 -4.9099208661490D-01
146  1.4500000000000D+00  1.7115600782311D+00 -5.0433762527089D-01
147  1.4600000000000D+00  1.6905525563434D+00 -5.1411296243016D-01
148  1.4700000000000D+00  1.6633702298177D+00 -5.2030939187245D-01
149  1.4800000000000D+00  1.6301269537940D+00 -5.2295119594823D-01
150  1.4900000000000D+00  1.5909913397072D+00 -5.2209549608744D-01
151  1.5000000000000D+00  1.5461849524304D+00 -5.1783172602406D-01
152  1.5100000000000D+00  1.4959805412843D+00 -5.1028073266388D-01
153  1.5200000000000D+00  1.4407002197505D+00 -4.9959355654494D-01
154  1.5300000000000D+00  1.3807136865427D+00 -4.8594991366686D-01
155  1.5400000000000D+00  1.3164363848886D+00 -4.6955642124597D-01
156  1.5500000000000D+00  1.2483275381729D+00 -4.5064458228664D-01
157  1.5600000000000D+00  1.1768879157780D+00 -4.2946856644838D-01
158  1.5700000000000D+00  1.1026572748354D+00 -4.0630278870585D-01
159  1.5800000000000D+00  1.0262112286957D+00 -3.8143931262094D-01
160  1.5900000000000D+00  9.4815764503844D-01 -3.5518508382340D-01
161  1.6000000000000D+00  8.6913224848803D-01 -3.2785900063822D-01
162  1.6100000000000D+00  7.8979367980441D-01 -2.9978884852218D-01
163  1.6200000000000D+00  7.1081775374957D-01 -2.7130809439174D-01
164  1.6300000000000D+00  6.3289120133946D-01 -2.4275258501783D-01
165  1.6400000000000D+00  5.5670477541440D-01 -2.1445714990580D-01
166  1.6500000000000D+00  4.8294599191502D-01 -1.8675216303188D-01
167  1.6600000000000D+00  4.1229151203493D-01 -1.5996007680698D-01
168  1.6700000000000D+00  3.4539939434494D-01 -1.3439198519421D-01
169  1.6800000000000D+00  2.8290129926925D-01 -1.1034424131231D-01
170  1.6900000000000D+00  2.2539483029689D-01 -8.8095184886149D-02
171  1.7000000000000D+00  1.7343612722312D-01 -6.7902011904293D-02
172  1.7100000000000D+00  1.2755314746277D-01 -5.0005787119943D-02
173  1.7200000000000D+00  8.8170206801527D-02 -3.4601727529620D-02
174  1.7300000000000D+00  5.5536522135582D-02 -2.1810987713085D-02
175  1.7400000000000D+00  3.0153669529442D-02 -1.1848277489575D-02
176  1.7500000000000D+00  1.2827176836099D-02 -5.0422968575501D-03
177  1.7600000000000D+00  3.2849865153830D-03 -1.2929140330182D-03
178  1.7700000000000D+00 -4.5137103254219D-04  1.7562532050722D-04
179  1.7800000000000D+00 -7.7359143891936D-04  3.0323046501018D-04
180  1.7900000000000D+00  4.0353236509573D-05 -1.5829318200228D-05
181  1.8000000000000D+00  2.7095135342040D-04 -1.0632456373900D-04
182  1.8100000000000D+00  2.4481977692406D-05 -9.6089559462905D-06
183  1.8200000000000D+00 -4.9361526278962D-05  1.9349728856931D-05
184  1.8300000000000D+00 -1.6186850961593D-05  6.3460042227938D-06
185  1.8400000000000D+00  1.5539677538593D-07 -5.6049692421639D-08
186  1.8500000000000D+00  9.4400234632710D-08 -3.4048995563477D-08
187  1.8600000000000D+00  0.0000000000000D+00  0.0000000000000D+00
188  1.8700000000000D+00  0.0000000000000D+00  0.0000000000000D+00
189  1.8800000000000D+00  0.0000000000000D+00  0.0000000000000D+00
190  1.8900000000000D+00  0.0000000000000D+00  0.0000000000000D+00
191  1.9000000000000D+00  0.0000000000000D+00  0.0000000000000D+00
192  1.9100000000000D+00  0.0000000000000D+00  0.0000000000000D+00
193  1.9200000000000D+00  0.0000000000000D+00  0.0000000000000D+00
194  1.9300000000000D+00  0.0000000000000D+00  0.0000000000000D+00
195  1.9400000000000D+00  0.0000000000000D+00  0.0000000000000D+00
196  1.9500000000000D+00  0.0000000000000D+00  0.0000000000000D+00
197  1.9600000000000D+00  0.0000000000000D+00  0.0000000000000D+00
198  1.9700000000000D+00  0.0000000000000D+00  0.0000000000000D+00
199  1.9800000000000D+00  0.0000000000000D+00  0.0000000000000D+00
200  1.9900000000000D+00  0.0000000000000D+00  0.0000000000000D+00
201  2.0000000000000D+00  0.0000000000000D+00  0.0000000000000D+00
202  2.0100000000000D+00  0.0000000000000D+00  0.0000000000000D+00
203  2.0200000000000D+00  0.0000000000000D+00  0.0000000000000D+00
204  2.0300000000000D+00  0.0000000000000D+00  0.0000000000000D+00
205  2.0400000000000D+00  0.0000000000000D+00  0.0000000000000D+00
206  2.0500000000000D+00  0.0000000000000D+00  0.0000000000000D+00
207  2.0600000000000D+00  0.0000000000000D+00  0.0000000000000D+00
208  2.0700000000000D+00  0.0000000000000D+00  0.0000000000000D+00
209  2.0800000000000D+00  0.0000000000000D+00  0.0000000000000D+00
210  2.0900000000000D+00  0.0000000000000D+00  0.0000000000000D+00
211  2.1000000000000D+00  0.0000000000000D+00  0.0000000000000D+00
212  2.1100000000000D+00  0.0000000000000D+00  0.0000000000000D+00
213  2.1200000000000D+00  0.0000000000000D+00  0.0000000000000D+00
214  2.1300000000000D+00  0.0000000000000D+00  0.0000000000000D+00
215  2.1400000000000D+00  0.0000000000000D+00  0.0000000000000D+00
216  2.1500000000000D+00  0.0000000000000D+00  0.0000000000000D+00
217  2.1600000000000D+00  0.0000000000000D+00  0.0000000000000D+00
218  2.1700000000000D+00  0.0000000000000D+00  0.0000000000000D+00
219  2.1800000000000D+00  0.0000000000000D+00  0.0000000000000D+00
220  2.1900000000000D+00  0.0000000000000D+00  0.0000000000000D+00
221  2.2000000000000D+00  0.0000000000000D+00  0.0000000000000D+00
222  2.2100000000000D+00  0.0000000000000D+00  0.0000000000000D+00
223  2.2200000000000D+00  0.0000000000000D+00  0.0000000000000D+00
224  2.2300000000000D+00  0.0000000000000D+00  0.0000000000000D+00
225  2.2400000000000D+00  0.0000000000000D+00  0.0000000000000D+00
226  2.2500000000000D+00  0.0000000000000D+00  0.0000000000000D+00
227  2.2600000000000D+00  0.0000000000000D+00  0.0000000000000D+00
228  2.2700000000000D+00  0.0000000000000D+00  0.0000000000000D+00
229  2.2800000000000D+00  0.0000000000000D+00  0.0000000000000D+00
230  2.2900000000000D+00  0.0000000000000D+00  0.0000000000000D+00
231  2.3000000000000D+00  0.0000000000000D+00  0.0000000000000D+00
232  2.3100000000000D+00  0.0000000000000D+00  0.0000000000000D+00
233  2.3200000000000D+00  0.0000000000000D+00  0.0000000000000D+00
234  2.3300000000000D+00  0.0000000000000D+00  0.0000000000000D+00
235  2.3400000000000D+00  0.0000000000000D+00  0.0000000000000D+00
236  2.3500000000000D+00  0.0000000000000D+00  0.0000000000000D+00
237  2.3600000000000D+00  0.0000000000000D+00  0.0000000000000D+00
238  2.3700000000000D+00  0.0000000000000D+00  0.0000000000000D+00
239  2.3800000000000D+00  0.0000000000000D+00  0.0000000000000D+00
240  2.3900000000000D+00  0.0000000000000D+00  0.0000000000000D+00
241  2.4000000000000D+00  0.0000000000000D+00  0.0000000000000D+00
242  2.4100000000000D+00  0.0000000000000D+00  0.0000000000000D+00
243  2.4200000000000D+00  0.0000000000000D+00  0.0000000000000D+00
244  2.4300000000000D+00  0.0000000000000D+00  0.0000000000000D+00
245  2.4400000000000D+00  0.0000000000000D+00  0.0000000000000D+00
246  2.4500000000000D+00  0.0000000000000D+00  0.0000000000000D+00
247  2.4600000000000D+00  0.0000000000000D+00  0.0000000000000D+00
248  2.4700000000000D+00  0.0000000000000D+00  0.0000000000000D+00
249  2.4800000000000D+00  0.0000000000000D+00  0.0000000000000D+00
250  2.4900000000000D+00  0.0000000000000D+00  0.0000000000000D+00
251  2.5000000000000D+00  0.0000000000000D+00  0.0000000000000D+00
252  2.5100000000000D+00  0.0000000000000D+00  0.0000000000000D+00
253  2.5200000000000D+00  0.0000000000000D+00  0.0000000000000D+00
254  2.5300000000000D+00  0.0000000000000D+00  0.0000000000000D+00
255  2.5400000000000D+00  0.0000000000000D+00  0.0000000000000D+00
256  2.5500000000000D+00  0.0000000000000D+00  0.0000000000000D+00
257  2.5600000000000D+00  0.0000000000000D+00  0.0000000000000D+00
258  2.5700000000000D+00  0.0000000000000D+00  0.0000000000000D+00
259  2.5800000000000D+00  0.0000000000000D+00  0.0000000000000D+00
260  2.5900000000000D+00  0.0000000000000D+00  0.0000000000000D+00
261  2.6000000000000D+00  0.0000000000000D+00  0.0000000000000D+00
262  2.6100000000000D+00  0.0000000000000D+00  0.0000000000000D+00
263  2.6200000000000D+00  0.0000000000000D+00  0.0000000000000D+00
264  2.6300000000000D+00  0.0000000000000D+00  0.0000000000000D+00
265  2.6400000000000D+00  0.0000000000000D+00  0.0000000000000D+00
266  2.6500000000000D+00  0.0000000000000D+00  0.0000000000000D+00
267  2.6600000000000D+00  0.0000000000000D+00  0.0000000000000D+00
268  2.6700000000000D+00  0.0000000000000D+00  0.0000000000000D+00
269  2.6800000000000D+00  0.0000000000000D+00  0.0000000000000D+00
270  2.6900000000000D+00  0.0000000000000D+00  0.0000000000000D+00
271  2.7000000000000D+00  0.0000000000000D+00  0.0000000000000D+00
272  2.7100000000000D+00  0.0000000000000D+00  0.0000000000000D+00
273  2.7200000000000D+00  0.0000000000000D+00  0.0000000000000D+00
274  2.7300000000000D+00  0.0000000000000D+00  0.0000000000000D+00
275  2.7400000000000D+00  0.0000000000000D+00  0.0000000000000D+00
276  2.7500000000000D+00  0.0000000000000D+00  0.0000000000000D+00
277  2.7600000000000D+00  0.0000000000000D+00  0.0000000000000D+00
278  2.7700000000000D+00  0.0000000000000D+00  0.0000000000000D+00
279  2.7800000000000D+00  0.0000000000000D+00  0.0000000000000D+00
280  2.7900000000000D+00  0.0000000000000D+00  0.0000000000000D+00
281  2.8000000000000D+00  0.0000000000000D+00  0.0000000000000D+00
282  2.8100000000000D+00  0.0000000000000D+00  0.0000000000000D+00
283  2.8200000000000D+00  0.0000000000000D+00  0.0000000000000D+00
284  2.8300000000000D+00  0.0000000000000D+00  0.0000000000000D+00
285  2.8400000000000D+00  0.0000000000000D+00  0.0000000000000D+00
286  2.8500000000000D+00  0.0000000000000D+00  0.0000000000000D+00
287  2.8600000000000D+00  0.0000000000000D+00  0.0000000000000D+00
288  2.8700000000000D+00  0.0000000000000D+00  0.0000000000000D+00
289  2.8800000000000D+00  0.0000000000000D+00  0.0000000000000D+00
290  2.8900000000000D+00  0.0000000000000D+00  0.0000000000000D+00
291  2.9000000000000D+00  0.0000000000000D+00  0.0000000000000D+00
292  2.9100000000000D+00  0.0000000000000D+00  0.0000000000000D+00
293  2.9200000000000D+00  0.0000000000000D+00  0.0000000000000D+00
294  2.9300000000000D+00  0.0000000000000D+00  0.0000000000000D+00
295  2.9400000000000D+00  0.0000000000000D+00  0.0000000000000D+00
296  2.9500000000000D+00  0.0000000000000D+00  0.0000000000000D+00
297  2.9600000000000D+00  0.0000000000000D+00  0.0000000000000D+00
298  2.9700000000000D+00  0.0000000000000D+00  0.0000000000000D+00
299  2.9800000000000D+00  0.0000000000000D+00  0.0000000000000D+00
300  2.9900000000000D+00  0.0000000000000D+00  0.0000000000000D+00
301  3.0000000000000D+00  0.0000000000000D+00  0.0000000000000D+00
302  3.0100000000000D+00  0.0000000000000D+00  0.0000000000000D+00
303  3.0200000000000D+00  0.0000000000000D+00  0.0000000000000D+00
304  3.0300000000000D+00  0.0000000000000D+00  0.0000000000000D+00
305  3.0400000000000D+00  0.0000000000000D+00  0.0000000000000D+00
306  3.0500000000000D+00  0.0000000000000D+00  0.0000000000000D+00
307  3.0600000000000D+00  0.0000000000000D+00  0.0000000000000D+00
308  3.0700000000000D+00  0.0000000000000D+00  0.0000000000000D+00
309  3.0800000000000D+00  0.0000000000000D+00  0.0000000000000D+00
310  3.0900000000000D+00  0.0000000000000D+00  0.0000000000000D+00
311  3.1000000000000D+00  0.0000000000000D+00  0.0000000000000D+00
312  3.1100000000000D+00  0.0000000000000D+00  0.0000000000000D+00
313  3.1200000000000D+00  0.0000000000000D+00  0.0000000000000D+00
314  3.1300000000000D+00  0.0000000000000D+00  0.0000000000000D+00
315  3.1400000000000D+00  0.0000000000000D+00  0.0000000000000D+00
316  3.1500000000000D+00  0.0000000000000D+00  0.0000000000000D+00
317  3.1600000000000D+00  0.0000000000000D+00  0.0000000000000D+00
318  3.1700000000000D+00  0.0000000000000D+00  0.0000000000000D+00
319  3.1800000000000D+00  0.0000000000000D+00  0.0000000000000D+00
320  3.1900000000000D+00  0.0000000000000D+00  0.0000000000000D+00
321  3.2000000000000D+00  0.0000000000000D+00  0.0000000000000D+00
322  3.2100000000000D+00  0.0000000000000D+00  0.0000000000000D+00
323  3.2200000000000D+00  0.0000000000000D+00  0.0000000000000D+00
324  3.2300000000000D+00  0.0000000000000D+00  0.0000000000000D+00
325  3.2400000000000D+00  0.0000000000000D+00  0.0000000000000D+00
326  3.2500000000000D+00  0.0000000000000D+00  0.0000000000000D+00
327  3.2600000000000D+00  0.0000000000000D+00  0.0000000000000D+00
328  3.2700000000000D+00  0.0000000000000D+00  0.0000000000000D+00
329  3.2800000000000D+00  0.0000000000000D+00  0.0000000000000D+00
330  3.2900000000000D+00  0.0000000000000D+00  0.0000000000000D+00
331  3.3000000000000D+00  0.0000000000000D+00  0.0000000000000D+00
332  3.3100000000000D+00  0.0000000000000D+00  0.0000000000000D+00
333  3.3200000000000D+00  0.0000000000000D+00  0.0000000000000D+00
334  3.3300000000000D+00  0.0000000000000D+00  0.0000000000000D+00
335  3.3400000000000D+00  0.0000000000000D+00  0.0000000000000D+00
336  3.3500000000000D+00  0.0000000000000D+00  0.0000000000000D+00
337  3.3600000000000D+00  0.0000000000000D+00  0.0000000000000D+00
338  3.3700000000000D+00  0.0000000000000D+00  0.0000000000000D+00
339  3.3800000000000D+00  0.0000000000000D+00  0.0000000000000D+00
340  3.3900000000000D+00  0.0000000000000D+00  0.0000000000000D+00
341  3.4000000000000D+00  0.0000000000000D+00  0.0000000000000D+00
342  3.4100000000000D+00  0.0000000000000D+00  0.0000000000000D+00
343  3.4200000000000D+00  0.0000000000000D+00  0.0000000000000D+00
344  3.4300000000000D+00  0.0000000000000D+00  0.0000000000000D+00
345  3.4400000000000D+00  0.0000000000000D+00  0.0000000000000D+00
346  3.4500000000000D+00  0.0000000000000D+00  0.0000000000000D+00
347  3.4600000000000D+00  0.0000000000000D+00  0.0000000000000D+00
348  3.4700000000000D+00  0.0000000000000D+00  0.0000000000000D+00
349  3.4800000000000D+00  0.0000000000000D+00  0.0000000000000D+00
350  3.4900000000000D+00  0.0000000000000D+00  0.0000000000000D+00
351  3.5000000000000D+00  0.0000000000000D+00  0.0000000000000D+00
352  3.5100000000000D+00  0.0000000000000D+00  0.0000000000000D+00
353  3.5200000000000D+00  0.0000000000000D+00  0.0000000000000D+00
354  3.5300000000000D+00  0.0000000000000D+00  0.0000000000000D+00
355  3.5400000000000D+00  0.0000000000000D+00  0.0000000000000D+00
356  3.5500000000000D+00  0.0000000000000D+00  0.0000000000000D+00
357  3.5600000000000D+00  0.0000000000000D+00  0.0000000000000D+00
358  3.5700000000000D+00  0.0000000000000D+00  0.0000000000000D+00
359  3.5800000000000D+00  0.0000000000000D+00  0.0000000000000D+00
360  3.5900000000000D+00  0.0000000000000D+00  0.0000000000000D+00
361  3.6000000000000D+00  0.0000000000000D+00  0.0000000000000D+00
362  3.6100000000000D+00  0.0000000000000D+00  0.0000000000000D+00
363  3.6200000000000D+00  0.0000000000000D+00  0.0000000000000D+00
364  3.6300000000000D+00  0.0000000000000D+00  0.0000000000000D+00
365  3.6400000000000D+00  0.0000000000000D+00  0.0000000000000D+00
366  3.6500000000000D+00  0.0000000000000D+00  0.0000000000000D+00
367  3.6600000000000D+00  0.0000000000000D+00  0.0000000000000D+00
368  3.6700000000000D+00  0.0000000000000D+00  0.0000000000000D+00
369  3.6800000000000D+00  0.0000000000000D+00  0.0000000000000D+00
370  3.6900000000000D+00  0.0000000000000D+00  0.0000000000000D+00
371  3.7000000000000D+00  0.0000000000000D+00  0.0000000000000D+00
372  3.7100000000000D+00  0.0000000000000D+00  0.0000000000000D+00
373  3.7200000000000D+00  0.0000000000000D+00  0.0000000000000D+00
374  3.7300000000000D+00  0.0000000000000D+00  0.0000000000000D+00
375  3.7400000000000D+00  0.0000000000000D+00  0.0000000000000D+00
376  3.7500000000000D+00  0.0000000000000D+00  0.0000000000000D+00
377  3.7600000000000D+00  0.0000000000000D+00  0.0000000000000D+00
378  3.7700000000000D+00  0.0000000000000D+00  0.0000000000000D+00
379  3.7800000000000D+00  0.0000000000000D+00  0.0000000000000D+00
380  3.7900000000000D+00  0.0000000000000D+00  0.0000000000000D+00
381  3.8000000000000D+00  0.0000000000000D+00  0.0000000000000D+00
382  3.8100000000000D+00  0.0000000000000D+00  0.0000000000000D+00
383  3.8200000000000D+00  0.0000000000000D+00  0.0000000000000D+00
384  3.8300000000000D+00  0.0000000000000D+00  0.0000000000000D+00
385  3.8400000000000D+00  0.0000000000000D+00  0.0000000000000D+00
386  3.8500000000000D+00  0.0000000000000D+00  0.0000000000000D+00
387  3.8600000000000D+00  0.0000000000000D+00  0.0000000000000D+00
388  3.8700000000000D+00  0.0000000000000D+00  0.0000000000000D+00
389  3.8800000000000D+00  0.0000000000000D+00  0.0000000000000D+00
390  3.8900000000000D+00  0.0000000000000D+00  0.0000000000000D+00
391  3.9000000000000D+00  0.0000000000000D+00  0.0000000000000D+00
392  3.9100000000000D+00  0.0000000000000D+00  0.0000000000000D+00
393  3.9200000000000D+00  0.0000000000000D+00  0.0000000000000D+00
394  3.9300000000000D+00  0.0000000000000D+00  0.0000000000000D+00
395  3.9400000000000D+00  0.0000000000000D+00  0.0000000000000D+00
396  3.9500000000000D+00  0.0000000000000D+00  0.0000000000000D+00
397  3.9600000000000D+00  0.0000000000000D+00  0.0000000000000D+00
398  3.9700000000000D+00  0.0000000000000D+00  0.0000000000000D+00
399  3.9800000000000D+00  0.0000000000000D+00  0.0000000000000D+00
400  3.9900000000000D+00  0.0000000000000D+00  0.0000000000000D+00
401  4.0000000000000D+00  0.0000000000000D+00  0.0000000000000D+00
402  4.0100000000000D+00  0.0000000000000D+00  0.0000000000000D+00
403  4.0200000000000D+00  0.0000000000000D+00  0.0000000000000D+00
404  4.0300000000000D+00  0.0000000000000D+00  0.0000000000000D+00
405  4.0400000000000D+00  0.0000000000000D+00  0.0000000000000D+00
406  4.0500000000000D+00  0.0000000000000D+00  0.0000000000000D+00
407  4.0600000000000D+00  0.0000000000000D+00  0.0000000000000D+00
408  4.0700000000000D+00  0.0000000000000D+00  0.0000000000000D+00
409  4.0800000000000D+00  0.0000000000000D+00  0.0000000000000D+00
410  4.0900000000000D+00  0.0000000000000D+00  0.0000000000000D+00
411  4.1000000000000D+00  0.0000000000000D+00  0.0000000000000D+00
412  4.1100000000000D+00  0.0000000000000D+00  0.0000000000000D+00
413  4.1200000000000D+00  0.0000000000000D+00  0.0000000000000D+00
414  4.1300000000000D+00  0.0000000000000D+00  0.0000000000000D+00
415  4.1400000000000D+00  0.0000000000000D+00  0.0000000000000D+00
416  4.1500000000000D+00  0.0000000000000D+00  0.0000000000000D+00
417  4.1600000000000D+00  0.0000000000000D+00  0.0000000000000D+00
418  4.1700000000000D+00  0.0000000000000D+00  0.0000000000000D+00
419  4.1800000000000D+00  0.0000000000000D+00  0.0000000000000D+00
420  4.1900000000000D+00  0.0000000000000D+00  0.0000000000000D+00
421  4.2000000000000D+00  0.0000000000000D+00  0.0000000000000D+00
422  4.2100000000000D+00  0.0000000000000D+00  0.0000000000000D+00
423  4.2200000000000D+00  0.0000000000000D+00  0.0000000000000D+00
424  4.2300000000000D+00  0.0000000000000D+00  0.0000000000000D+00
425  4.2400000000000D+00  0.0000000000000D+00  0.0000000000000D+00
426  4.2500000000000D+00  0.0000000000000D+00  0.0000000000000D+00
427  4.2600000000000D+00  0.0000000000000D+00  0.0000000000000D+00
428  4.2700000000000D+00  0.0000000000000D+00  0.0000000000000D+00
429  4.2800000000000D+00  0.0000000000000D+00  0.0000000000000D+00
430  4.2900000000000D+00  0.0000000000000D+00  0.0000000000000D+00
431  4.3000000000000D+00  0.0000000000000D+00  0.0000000000000D+00
432  4.3100000000000D+00  0.0000000000000D+00  0.0000000000000D+00
433  4.3200000000000D+00  0.0000000000000D+00  0.0000000000000D+00
434  4.3300000000000D+00  0.0000000000000D+00  0.0000000000000D+00
435  4.3400000000000D+00  0.0000000000000D+00  0.0000000000000D+00
436  4.3500000000000D+00  0.0000000000000D+00  0.0000000000000D+00
437  4.3600000000000D+00  0.0000000000000D+00  0.0000000000000D+00
438  4.3700000000000D+00  0.0000000000000D+00  0.0000000000000D+00
439  4.3800000000000D+00  0.0000000000000D+00  0.0000000000000D+00
440  4.3900000000000D+00  0.0000000000000D+00  0.0000000000000D+00
441  4.4000000000000D+00  0.0000000000000D+00  0.0000000000000D+00
442  4.4100000000000D+00  0.0000000000000D+00  0.0000000000000D+00
443  4.4200000000000D+00  0.0000000000000D+00  0.0000000000000D+00