Se    ONCVPSP  r_core=  1.65  1.61  1.71
34.0000     16.0000      140817    zatom,zion,pspd
8    11     2     4   601     0    pspcod,pspxc,lmax,lloc,mmax,r2well
6.00000000  0.40000000  0.00000000    rchrg fchrg qchrg
2     2     2     0     0    nproj
0                 extension_switch
0                         8.0217311999419D+00  1.0660185725067D+00
1  0.0000000000000D+00 -0.0000000000000D+00 -0.0000000000000D+00
2  1.0000000000000D-02 -3.6814796055055D-02 -4.1487295419675D-03
3  2.0000000000000D-02 -7.3600545957293D-02 -8.3757334052905D-03
4  3.0000000000000D-02 -1.1032826200821D-01 -1.2758487692543D-02
5  4.0000000000000D-02 -1.4696907285944D-01 -1.7372877870305D-02
6  5.0000000000000D-02 -1.8349428029688D-01 -2.2292417916198D-02
7  6.0000000000000D-02 -2.1987541437091D-01 -2.7587486713056D-02
8  7.0000000000000D-02 -2.5608428634574D-01 -3.3324587261973D-02
9  8.0000000000000D-02 -2.9209303896313D-01 -3.9565634120212D-02
10  9.0000000000000D-02 -3.2787419354033D-01 -4.6367274295651D-02
11  1.0000000000000D-01 -3.6340069345386D-01 -5.3780246591577D-02
12  1.1000000000000D-01 -3.9864594359671D-01 -6.1848784121124D-02
13  1.2000000000000D-01 -4.3358384543270D-01 -7.0610064471204D-02
14  1.3000000000000D-01 -4.6818882731851D-01 -8.0093711623991D-02
15  1.4000000000000D-01 -5.0243586981479D-01 -9.0321353323398D-02
16  1.5000000000000D-01 -5.3630052573773D-01 -1.0130623753222D-01
17  1.6000000000000D-01 -5.6975893479751D-01 -1.1305291051696D-01
18  1.7000000000000D-01 -6.0278783266374D-01 -1.2555695973819D-01
19  1.8000000000000D-01 -6.3536455442304D-01 -1.3880482307351D-01
20  1.9000000000000D-01 -6.6746703239256D-01 -1.5277366663768D-01
21  2.0000000000000D-01 -6.9907378836399D-01 -1.6743133165976D-01
22  2.1000000000000D-01 -7.3016392036185D-01 -1.8273635224598D-01
23  2.2000000000000D-01 -7.6071708411402D-01 -1.9863804307540D-01
24  2.3000000000000D-01 -7.9071346943763D-01 -2.1507665767102D-01
25  2.4000000000000D-01 -8.2013377182855D-01 -2.3198361635948D-01
26  2.5000000000000D-01 -8.4895915967297D-01 -2.4928180225731D-01
27  2.6000000000000D-01 -8.7717123728394D-01 -2.6688592476331D-01
28  2.7000000000000D-01 -9.0475200455092D-01 -2.8470294636156D-01
29  2.8000000000000D-01 -9.3168381328638D-01 -3.0263257297857D-01
30  2.9000000000000D-01 -9.5794932110736D-01 -3.2056780300148D-01
31  3.0000000000000D-01 -9.8353144347931D-01 -3.3839553056155D-01
32  3.1000000000000D-01 -1.0084133042082D+00 -3.5599720283811D-01
33  3.2000000000000D-01 -1.0325781852420D+00 -3.7324952557783D-01
34  3.3000000000000D-01 -1.0560094768058D+00 -3.9002520775412D-01
35  3.4000000000000D-01 -1.0786906281395D+00 -4.0619374498679D-01
36  3.5000000000000D-01 -1.1006050987347D+00 -4.2162224966867D-01
37  3.6000000000000D-01 -1.1217363136311D+00 -4.3617628218690D-01
38  3.7000000000000D-01 -1.1420676197239D+00 -4.4972073072773D-01
39  3.8000000000000D-01 -1.1615822462552D+00 -4.6212070099497D-01
40  3.9000000000000D-01 -1.1802632704995D+00 -4.7324240184397D-01
41  4.0000000000000D-01 -1.1980935874362D+00 -4.8295405211845D-01
42  4.1000000000000D-01 -1.2150558855098D+00 -4.9112677995392D-01
43  4.2000000000000D-01 -1.2311326281681D+00 -4.9763552891031D-01
44  4.3000000000000D-01 -1.2463060435882D+00 -5.0235992427683D-01
45  4.4000000000000D-01 -1.2605581209759D+00 -5.0518514035158D-01
46  4.5000000000000D-01 -1.2738706154317D+00 -5.0600272621854D-01
47  4.6000000000000D-01 -1.2862250603236D+00 -5.0471144046415D-01
48  4.7000000000000D-01 -1.2976027900484D+00 -5.0121800117842D-01
49  4.8000000000000D-01 -1.3079849712648D+00 -4.9543782119650D-01
50  4.9000000000000D-01 -1.3173526438671D+00 -4.8729568934720D-01
51  5.0000000000000D-01 -1.3256867708452D+00 -4.7672635716437D-01
52  5.1000000000000D-01 -1.3329682997863D+00 -4.6367524204109D-01
53  5.2000000000000D-01 -1.3391782334846D+00 -4.4809883808967D-01
54  5.3000000000000D-01 -1.3442977058454D+00 -4.2996511247091D-01
55  5.4000000000000D-01 -1.3483080809191D+00 -4.0925412598736D-01
56  5.5000000000000D-01 -1.3511910409448D+00 -3.8595807224547D-01
57  5.6000000000000D-01 -1.3529287045896D+00 -3.6008173846886D-01
58  5.7000000000000D-01 -1.3535037367411D+00 -3.3164254453705D-01
59  5.8000000000000D-01 -1.3528994808606D+00 -3.0067073760351D-01
60  5.9000000000000D-01 -1.3511000813868D+00 -2.6720931194060D-01
61  6.0000000000000D-01 -1.3480906457318D+00 -2.3131410712915D-01
62  6.1000000000000D-01 -1.3438573466702D+00 -1.9305344021340D-01
63  6.2000000000000D-01 -1.3383876394482D+00 -1.5250820334890D-01
64  6.3000000000000D-01 -1.3316703574622D+00 -1.0977132301310D-01
65  6.4000000000000D-01 -1.3236958884553D+00 -6.4947505008604D-02
66  6.5000000000000D-01 -1.3144563731094D+00 -1.8152863178998D-02
67  6.6000000000000D-01 -1.3039458206150D+00  3.0485673539883D-02
68  6.7000000000000D-01 -1.2921602616791D+00  8.0830877377802D-02
69  6.8000000000000D-01 -1.2790979899815D+00  1.3273582961858D-01
70  6.9000000000000D-01 -1.2647596481891D+00  1.8604463935800D-01
71  7.0000000000000D-01 -1.2491484025159D+00  2.4059316228169D-01
72  7.1000000000000D-01 -1.2322700786214D+00  2.9620975691339D-01
73  7.2000000000000D-01 -1.2141333475701D+00  3.5271617534779D-01
74  7.3000000000000D-01 -1.1947498461310D+00  4.0992843557583D-01
75  7.4000000000000D-01 -1.1741342857903D+00  4.6765769106491D-01
76  7.5000000000000D-01 -1.1523045809330D+00  5.2571118376947D-01
77  7.6000000000000D-01 -1.1292819548654D+00  5.8389320652278D-01
78  7.7000000000000D-01 -1.1050910328479D+00  6.4200608358667D-01
79  7.8000000000000D-01 -1.0797599209217D+00  6.9985116312959D-01
80  7.9000000000000D-01 -1.0533202557373D+00  7.5722974618344D-01
81  8.0000000000000D-01 -1.0258072944405D+00  8.1394428802524D-01
82  8.1000000000000D-01 -9.9725990087446D-01  8.6979919771042D-01
83  8.2000000000000D-01 -9.6772056982302D-01  9.2460186780461D-01
84  8.3000000000000D-01 -9.3723542026832D-01  9.7816363883017D-01
85  8.4000000000000D-01 -9.0585416778898D-01  1.0303007349140D+00
86  8.5000000000000D-01 -8.7363007646732D-01  1.0808351694931D+00
87  8.6000000000000D-01 -8.4061988981323D-01  1.1295956156457D+00
88  8.7000000000000D-01 -8.0688374033920D-01  1.1764182358530D+00
89  8.8000000000000D-01 -7.7248503755641D-01  1.2211474662697D+00
90  8.9000000000000D-01 -7.3749033430774D-01  1.2636367508732D+00
91  9.0000000000000D-01 -7.0196917133613D-01  1.3037492000485D+00
92  9.1000000000000D-01 -6.6599390417348D-01  1.3413580970853D+00
93  9.2000000000000D-01 -6.2963950599110D-01  1.3763478957998D+00
94  9.3000000000000D-01 -5.9298334173259D-01  1.4086142867117D+00
95  9.4000000000000D-01 -5.5610493309514D-01  1.4380647631370D+00
96  9.5000000000000D-01 -5.1908570062004D-01  1.4646189811491D+00
97  9.6000000000000D-01 -4.8200868767664D-01  1.4882090478268D+00
98  9.7000000000000D-01 -4.4495826766659D-01  1.5087797366054D+00
99  9.8000000000000D-01 -4.0801983602164D-01  1.5262886292676D+00
100  9.9000000000000D-01 -3.7127950134919D-01  1.5407061294220D+00
101  1.0000000000000D+00 -3.3482383156461D-01  1.5520152266020D+00
102  1.0100000000000D+00 -2.9873922555511D-01  1.5602125500190D+00
103  1.0200000000000D+00 -2.6311180751061D-01  1.5653070012868D+00
104  1.0300000000000D+00 -2.2802699109572D-01  1.5673199371505D+00
105  1.0400000000000D+00 -1.9356911380166D-01  1.5662848875095D+00
106  1.0500000000000D+00 -1.5982120012856D-01  1.5622470139820D+00
107  1.0600000000000D+00 -1.2686440999409D-01  1.5552631663036D+00
108  1.0700000000000D+00 -9.4777411773343D-02  1.5454015489766D+00
109  1.0800000000000D+00 -6.3636441771379D-02  1.5327405253418D+00
110  1.0900000000000D+00 -3.3514803801249D-02  1.5173683509698D+00
111  1.1000000000000D+00 -4.4829514501847D-03  1.4993824203092D+00
112  1.1100000000000D+00  2.3393045555620D-02  1.4788893487882D+00
113  1.1200000000000D+00  5.0051039606946D-02  1.4560034936614D+00
114  1.1300000000000D+00  7.5433073288723D-02  1.4308463835702D+00
115  1.1400000000000D+00  9.9485207526721D-02  1.4035462276350D+00
116  1.1500000000000D+00  1.2215937300684D-01  1.3742370987309D+00
117  1.1600000000000D+00  1.4341269765307D-01  1.3430578397398D+00
118  1.1700000000000D+00  1.6320743972198D-01  1.3101515500827D+00
119  1.1800000000000D+00  1.8151063225771D-01  1.2756655110520D+00
120  1.1900000000000D+00  1.9829716861130D-01  1.2397484767674D+00
121  1.2000000000000D+00  2.1354709045067D-01  1.2025513867165D+00
122  1.2100000000000D+00  2.2724577332923D-01  1.1642272195245D+00
123  1.2200000000000D+00  2.3938608226967D-01  1.1249283674188D+00
124  1.2300000000000D+00  2.4996748228231D-01  1.0848062820507D+00
125  1.2400000000000D+00  2.5899475336188D-01  1.0440127125186D+00
126  1.2500000000000D+00  2.6647965190993D-01  1.0026972757892D+00
127  1.2600000000000D+00  2.7244135423739D-01  9.6100537658655D-01
128  1.2700000000000D+00  2.7690402668734D-01  9.1908157837682D-01
129  1.2800000000000D+00  2.7989858944053D-01  8.7706648342772D-01
130  1.2900000000000D+00  2.8146318683245D-01  8.3509403553528D-01
131  1.3000000000000D+00  2.8164045975943D-01  7.9329682936207D-01
132  1.3100000000000D+00  2.8047977891859D-01  7.5180077890083D-01
133  1.3200000000000D+00  2.7803655599898D-01  7.1072434856749D-01
134  1.3300000000000D+00  2.7437022875600D-01  6.7018464860982D-01
135  1.3400000000000D+00  2.6954671564475D-01  6.3028814386835D-01
136  1.3500000000000D+00  2.6363613850491D-01  5.9113552829389D-01
137  1.3600000000000D+00  2.5671254028823D-01  5.5282552484916D-01
138  1.3700000000000D+00  2.4885501138449D-01  5.1544229845393D-01
139  1.3800000000000D+00  2.4014542121540D-01  4.7906898219308D-01
140  1.3900000000000D+00  2.3066936377511D-01  4.4378019997593D-01
141  1.4000000000000D+00  2.2051465766645D-01  4.0964061737069D-01
142  1.4100000000000D+00  2.0977222719505D-01  3.7671446782927D-01
143  1.4200000000000D+00  1.9853374329663D-01  3.4505114286617D-01
144  1.4300000000000D+00  1.8689282575094D-01  3.1469880408113D-01
145  1.4400000000000D+00  1.7494406867484D-01  2.8569728521738D-01
146  1.4500000000000D+00  1.6278074682635D-01  2.5807774235187D-01
147  1.4600000000000D+00  1.5049912097275D-01  2.3187049753918D-01
148  1.4700000000000D+00  1.3819005033011D-01  2.0709234810791D-01
149  1.4800000000000D+00  1.2594749137771D-01  1.8376099483418D-01
150  1.4900000000000D+00  1.1386010678125D-01  1.6188372111556D-01
151  1.5000000000000D+00  1.0201565841659D-01  1.4146499647959D-01
152  1.5100000000000D+00  9.0499692047046D-02  1.2250385378562D-01
153  1.5200000000000D+00  7.9390863535926D-02  1.0499302826790D-01
154  1.5300000000000D+00  6.8770060246129D-02  8.8923717964070D-02
155  1.5400000000000D+00  5.8704736541515D-02  7.4278864091212D-02
156  1.5500000000000D+00  4.9268551170565D-02  6.1041933937867D-02
157  1.5600000000000D+00  4.0517561813107D-02  4.9188272177514D-02
158  1.5700000000000D+00  3.2513355100270D-02  3.8693429657061D-02
159  1.5800000000000D+00  2.5301768288780D-02  2.9526974155785D-02
160  1.5900000000000D+00  1.8929644198668D-02  2.1657376946984D-02
161  1.6000000000000D+00  1.3431257803337D-02  1.5048857631875D-02
162  1.6100000000000D+00  8.8373670153806D-03  9.6638819929485D-03
163  1.6200000000000D+00  5.1692785346069D-03  5.4613024140494D-03
164  1.6300000000000D+00  2.4411117454888D-03  2.3996598774190D-03
165  1.6400000000000D+00  7.2721661582431D-04  4.9264371852960D-04
166  1.6500000000000D+00 -1.0370583864998D-04 -4.1256851198929D-04
167  1.6600000000000D+00 -2.8827659055818D-04 -5.1369277016606D-04
168  1.6700000000000D+00 -9.9308445357509D-05 -1.5689014971191D-04
169  1.6800000000000D+00  1.5554781587135D-05  3.4740592848705D-05
170  1.6900000000000D+00  7.7981158077603D-06  1.7416584395406D-05
171  1.7000000000000D+00  0.0000000000000D+00  0.0000000000000D+00
172  1.7100000000000D+00  0.0000000000000D+00  0.0000000000000D+00
173  1.7200000000000D+00  0.0000000000000D+00  0.0000000000000D+00
174  1.7300000000000D+00  0.0000000000000D+00  0.0000000000000D+00
175  1.7400000000000D+00  0.0000000000000D+00  0.0000000000000D+00
176  1.7500000000000D+00  0.0000000000000D+00  0.0000000000000D+00
177  1.7600000000000D+00  0.0000000000000D+00  0.0000000000000D+00
178  1.7700000000000D+00  0.0000000000000D+00  0.0000000000000D+00
179  1.7800000000000D+00  0.0000000000000D+00  0.0000000000000D+00
180  1.7900000000000D+00  0.0000000000000D+00  0.0000000000000D+00
181  1.8000000000000D+00  0.0000000000000D+00  0.0000000000000D+00
182  1.8100000000000D+00  0.0000000000000D+00  0.0000000000000D+00
183  1.8200000000000D+00  0.0000000000000D+00  0.0000000000000D+00
184  1.8300000000000D+00  0.0000000000000D+00  0.0000000000000D+00
185  1.8400000000000D+00  0.0000000000000D+00  0.0000000000000D+00
186  1.8500000000000D+00  0.0000000000000D+00  0.0000000000000D+00
187  1.8600000000000D+00  0.0000000000000D+00  0.0000000000000D+00
188  1.8700000000000D+00  0.0000000000000D+00  0.0000000000000D+00
189  1.8800000000000D+00  0.0000000000000D+00  0.0000000000000D+00
190  1.8900000000000D+00  0.0000000000000D+00  0.0000000000000D+00
191  1.9000000000000D+00  0.0000000000000D+00  0.0000000000000D+00
192  1.9100000000000D+00  0.0000000000000D+00  0.0000000000000D+00
193  1.9200000000000D+00  0.0000000000000D+00  0.0000000000000D+00
194  1.9300000000000D+00  0.0000000000000D+00  0.0000000000000D+00
195  1.9400000000000D+00  0.0000000000000D+00  0.0000000000000D+00
196  1.9500000000000D+00  0.0000000000000D+00  0.0000000000000D+00
197  1.9600000000000D+00  0.0000000000000D+00  0.0000000000000D+00
198  1.9700000000000D+00  0.0000000000000D+00  0.0000000000000D+00
199  1.9800000000000D+00  0.0000000000000D+00  0.0000000000000D+00
200  1.9900000000000D+00  0.0000000000000D+00  0.0000000000000D+00
201  2.0000000000000D+00  0.0000000000000D+00  0.0000000000000D+00
202  2.0100000000000D+00  0.0000000000000D+00  0.0000000000000D+00
203  2.0200000000000D+00  0.0000000000000D+00  0.0000000000000D+00
204  2.0300000000000D+00  0.0000000000000D+00  0.0000000000000D+00
205  2.0400000000000D+00  0.0000000000000D+00  0.0000000000000D+00
206  2.0500000000000D+00  0.0000000000000D+00  0.0000000000000D+00
207  2.0600000000000D+00  0.0000000000000D+00  0.0000000000000D+00
208  2.0700000000000D+00  0.0000000000000D+00  0.0000000000000D+00
209  2.0800000000000D+00  0.0000000000000D+00  0.0000000000000D+00
210  2.0900000000000D+00  0.0000000000000D+00  0.0000000000000D+00
211  2.1000000000000D+00  0.0000000000000D+00  0.0000000000000D+00
212  2.1100000000000D+00  0.0000000000000D+00  0.0000000000000D+00
213  2.1200000000000D+00  0.0000000000000D+00  0.0000000000000D+00
214  2.1300000000000D+00  0.0000000000000D+00  0.0000000000000D+00
215  2.1400000000000D+00  0.0000000000000D+00  0.0000000000000D+00
216  2.1500000000000D+00  0.0000000000000D+00  0.0000000000000D+00
217  2.1600000000000D+00  0.0000000000000D+00  0.0000000000000D+00
218  2.1700000000000D+00  0.0000000000000D+00  0.0000000000000D+00
219  2.1800000000000D+00  0.0000000000000D+00  0.0000000000000D+00
220  2.1900000000000D+00  0.0000000000000D+00  0.0000000000000D+00
221  2.2000000000000D+00  0.0000000000000D+00  0.0000000000000D+00
222  2.2100000000000D+00  0.0000000000000D+00  0.0000000000000D+00
223  2.2200000000000D+00  0.0000000000000D+00  0.0000000000000D+00
224  2.2300000000000D+00  0.0000000000000D+00  0.0000000000000D+00
225  2.2400000000000D+00  0.0000000000000D+00  0.0000000000000D+00
226  2.2500000000000D+00  0.0000000000000D+00  0.0000000000000D+00
227  2.2600000000000D+00  0.0000000000000D+00  0.0000000000000D+00
228  2.2700000000000D+00  0.0000000000000D+00  0.0000000000000D+00
229  2.2800000000000D+00  0.0000000000000D+00  0.0000000000000D+00
230  2.2900000000000D+00  0.0000000000000D+00  0.0000000000000D+00
231  2.3000000000000D+00  0.0000000000000D+00  0.0000000000000D+00
232  2.3100000000000D+00  0.0000000000000D+00  0.0000000000000D+00
233  2.3200000000000D+00  0.0000000000000D+00  0.0000000000000D+00
234  2.3300000000000D+00  0.0000000000000D+00  0.0000000000000D+00
235  2.3400000000000D+00  0.0000000000000D+00  0.0000000000000D+00
236  2.3500000000000D+00  0.0000000000000D+00  0.0000000000000D+00
237  2.3600000000000D+00  0.0000000000000D+00  0.0000000000000D+00
238  2.3700000000000D+00  0.0000000000000D+00  0.0000000000000D+00
239  2.3800000000000D+00  0.0000000000000D+00  0.0000000000000D+00
240  2.3900000000000D+00  0.0000000000000D+00  0.0000000000000D+00
241  2.4000000000000D+00  0.0000000000000D+00  0.0000000000000D+00
242  2.4100000000000D+00  0.0000000000000D+00  0.0000000000000D+00
243  2.4200000000000D+00  0.0000000000000D+00  0.0000000000000D+00
244  2.4300000000000D+00  0.0000000000000D+00  0.0000000000000D+00
245  2.4400000000000D+00  0.0000000000000D+00  0.0000000000000D+00
246  2.4500000000000D+00  0.0000000000000D+00  0.0000000000000D+00
247  2.4600000000000D+00  0.0000000000000D+00  0.0000000000000D+00
248  2.4700000000000D+00  0.0000000000000D+00  0.0000000000000D+00
249  2.4800000000000D+00  0.0000000000000D+00  0.0000000000000D+00
250  2.4900000000000D+00  0.0000000000000D+00  0.0000000000000D+00
251  2.5000000000000D+00  0.0000000000000D+00  0.0000000000000D+00
252  2.5100000000000D+00  0.0000000000000D+00  0.0000000000000D+00
253  2.5200000000000D+00  0.0000000000000D+00  0.0000000000000D+00
254  2.5300000000000D+00  0.0000000000000D+00  0.0000000000000D+00
255  2.5400000000000D+00  0.0000000000000D+00  0.0000000000000D+00
256  2.5500000000000D+00  0.0000000000000D+00  0.0000000000000D+00
257  2.5600000000000D+00  0.0000000000000D+00  0.0000000000000D+00
258  2.5700000000000D+00  0.0000000000000D+00  0.0000000000000D+00
259  2.5800000000000D+00  0.0000000000000D+00  0.0000000000000D+00
260  2.5900000000000D+00  0.0000000000000D+00  0.0000000000000D+00
261  2.6000000000000D+00  0.0000000000000D+00  0.0000000000000D+00
262  2.6100000000000D+00  0.0000000000000D+00  0.0000000000000D+00
263  2.6200000000000D+00  0.0000000000000D+00  0.0000000000000D+00
264  2.6300000000000D+00  0.0000000000000D+00  0.0000000000000D+00
265  2.6400000000000D+00  0.0000000000000D+00  0.0000000000000D+00
266  2.6500000000000D+00  0.0000000000000D+00  0.0000000000000D+00
267  2.6600000000000D+00  0.0000000000000D+00  0.0000000000000D+00
268  2.6700000000000D+00  0.0000000000000D+00  0.0000000000000D+00
269  2.6800000000000D+00  0.0000000000000D+00  0.0000000000000D+00
270  2.6900000000000D+00  0.0000000000000D+00  0.0000000000000D+00
271  2.7000000000000D+00  0.0000000000000D+00  0.0000000000000D+00
272  2.7100000000000D+00  0.0000000000000D+00  0.0000000000000D+00
273  2.7200000000000D+00  0.0000000000000D+00  0.0000000000000D+00
274  2.7300000000000D+00  0.0000000000000D+00  0.0000000000000D+00
275  2.7400000000000D+00  0.0000000000000D+00  0.0000000000000D+00
276  2.7500000000000D+00  0.0000000000000D+00  0.0000000000000D+00
277  2.7600000000000D+00  0.0000000000000D+00  0.0000000000000D+00
278  2.7700000000000D+00  0.0000000000000D+00  0.0000000000000D+00
279  2.7800000000000D+00  0.0000000000000D+00  0.0000000000000D+00
280  2.7900000000000D+00  0.0000000000000D+00  0.0000000000000D+00
281  2.8000000000000D+00  0.0000000000000D+00  0.0000000000000D+00
282  2.8100000000000D+00  0.0000000000000D+00  0.0000000000000D+00
283  2.8200000000000D+00  0.0000000000000D+00  0.0000000000000D+00
284  2.8300000000000D+00  0.0000000000000D+00  0.0000000000000D+00
285  2.8400000000000D+00  0.0000000000000D+00  0.0000000000000D+00
286  2.8500000000000D+00  0.0000000000000D+00  0.0000000000000D+00
287  2.8600000000000D+00  0.0000000000000D+00  0.0000000000000D+00
288  2.8700000000000D+00  0.0000000000000D+00  0.0000000000000D+00
289  2.8800000000000D+00  0.0000000000000D+00  0.0000000000000D+00
290  2.8900000000000D+00  0.0000000000000D+00  0.0000000000000D+00
291  2.9000000000000D+00  0.0000000000000D+00  0.0000000000000D+00
292  2.9100000000000D+00  0.0000000000000D+00  0.0000000000000D+00
293  2.9200000000000D+00  0.0000000000000D+00  0.0000000000000D+00
294  2.9300000000000D+00  0.0000000000000D+00  0.0000000000000D+00
295  2.9400000000000D+00  0.0000000000000D+00  0.0000000000000D+00
296  2.9500000000000D+00  0.0000000000000D+00  0.0000000000000D+00
297  2.9600000000000D+00  0.0000000000000D+00  0.0000000000000D+00
298  2.9700000000000D+00  0.0000000000000D+00  0.0000000000000D+00
299  2.9800000000000D+00  0.0000000000000D+00  0.0000000000000D+00
300  2.9900000000000D+00  0.0000000000000D+00  0.0000000000000D+00
301  3.0000000000000D+00  0.0000000000000D+00  0.0000000000000D+00
302  3.0100000000000D+00  0.0000000000000D+00  0.0000000000000D+00
303  3.0200000000000D+00  0.0000000000000D+00  0.0000000000000D+00
304  3.0300000000000D+00  0.0000000000000D+00  0.0000000000000D+00
305  3.0400000000000D+00  0.0000000000000D+00  0.0000000000000D+00
306  3.0500000000000D+00  0.0000000000000D+00  0.0000000000000D+00
307  3.0600000000000D+00  0.0000000000000D+00  0.0000000000000D+00
308  3.0700000000000D+00  0.0000000000000D+00  0.0000000000000D+00
309  3.0800000000000D+00  0.0000000000000D+00  0.0000000000000D+00
310  3.0900000000000D+00  0.0000000000000D+00  0.0000000000000D+00
311  3.1000000000000D+00  0.0000000000000D+00  0.0000000000000D+00
312  3.1100000000000D+00  0.0000000000000D+00  0.0000000000000D+00
313  3.1200000000000D+00  0.0000000000000D+00  0.0000000000000D+00
314  3.1300000000000D+00  0.0000000000000D+00  0.0000000000000D+00
315  3.1400000000000D+00  0.0000000000000D+00  0.0000000000000D+00
316  3.1500000000000D+00  0.0000000000000D+00  0.0000000000000D+00
317  3.1600000000000D+00  0.0000000000000D+00  0.0000000000000D+00
318  3.1700000000000D+00  0.0000000000000D+00  0.0000000000000D+00
319  3.1800000000000D+00  0.0000000000000D+00  0.0000000000000D+00
320  3.1900000000000D+00  0.0000000000000D+00  0.0000000000000D+00
321  3.2000000000000D+00  0.0000000000000D+00  0.0000000000000D+00
322  3.2100000000000D+00  0.0000000000000D+00  0.0000000000000D+00
323  3.2200000000000D+00  0.0000000000000D+00  0.0000000000000D+00
324  3.2300000000000D+00  0.0000000000000D+00  0.0000000000000D+00
325  3.2400000000000D+00  0.0000000000000D+00  0.0000000000000D+00
326  3.2500000000000D+00  0.0000000000000D+00  0.0000000000000D+00
327  3.2600000000000D+00  0.0000000000000D+00  0.0000000000000D+00
328  3.2700000000000D+00  0.0000000000000D+00  0.0000000000000D+00
329  3.2800000000000D+00  0.0000000000000D+00  0.0000000000000D+00
330  3.2900000000000D+00  0.0000000000000D+00  0.0000000000000D+00
331  3.3000000000000D+00  0.0000000000000D+00  0.0000000000000D+00
332  3.3100000000000D+00  0.0000000000000D+00  0.0000000000000D+00
333  3.3200000000000D+00  0.0000000000000D+00  0.0000000000000D+00
334  3.3300000000000D+00  0.0000000000000D+00  0.0000000000000D+00
335  3.3400000000000D+00  0.0000000000000D+00  0.0000000000000D+00
336  3.3500000000000D+00  0.0000000000000D+00  0.0000000000000D+00
337  3.3600000000000D+00  0.0000000000000D+00  0.0000000000000D+00
338  3.3700000000000D+00  0.0000000000000D+00  0.0000000000000D+00
339  3.3800000000000D+00  0.0000000000000D+00  0.0000000000000D+00
340  3.3900000000000D+00  0.0000000000000D+00  0.0000000000000D+00
341  3.4000000000000D+00  0.0000000000000D+00  0.0000000000000D+00
342  3.4100000000000D+00  0.0000000000000D+00  0.0000000000000D+00
343  3.4200000000000D+00  0.0000000000000D+00  0.0000000000000D+00
344  3.4300000000000D+00  0.0000000000000D+00  0.0000000000000D+00
345  3.4400000000000D+00  0.0000000000000D+00  0.0000000000000D+00
346  3.4500000000000D+00  0.0000000000000D+00  0.0000000000000D+00
347  3.4600000000000D+00  0.0000000000000D+00  0.0000000000000D+00
348  3.4700000000000D+00  0.0000000000000D+00  0.0000000000000D+00
349  3.4800000000000D+00  0.0000000000000D+00  0.0000000000000D+00
350  3.4900000000000D+00  0.0000000000000D+00  0.0000000000000D+00
351  3.5000000000000D+00  0.0000000000000D+00  0.0000000000000D+00
352  3.5100000000000D+00  0.0000000000000D+00  0.0000000000000D+00
353  3.5200000000000D+00  0.0000000000000D+00  0.0000000000000D+00
354  3.5300000000000D+00  0.0000000000000D+00  0.0000000000000D+00
355  3.5400000000000D+00  0.0000000000000D+00  0.0000000000000D+00
356  3.5500000000000D+00  0.0000000000000D+00  0.0000000000000D+00
357  3.5600000000000D+00  0.0000000000000D+00  0.0000000000000D+00
358  3.5700000000000D+00  0.0000000000000D+00  0.0000000000000D+00
359  3.5800000000000D+00  0.0000000000000D+00  0.0000000000000D+00
360  3.5900000000000D+00  0.0000000000000D+00  0.0000000000000D+00
361  3.6000000000000D+00  0.0000000000000D+00  0.0000000000000D+00
362  3.6100000000000D+00  0.0000000000000D+00  0.0000000000000D+00
363  3.6200000000000D+00  0.0000000000000D+00  0.0000000000000D+00
364  3.6300000000000D+00  0.0000000000000D+00  0.0000000000000D+00
365  3.6400000000000D+00  0.0000000000000D+00  0.0000000000000D+00
366  3.6500000000000D+00  0.0000000000000D+00  0.0000000000000D+00
367  3.6600000000000D+00  0.0000000000000D+00  0.0000000000000D+00
368  3.6700000000000D+00  0.0000000000000D+00  0.0000000000000D+00
369  3.6800000000000D+00  0.0000000000000D+00  0.0000000000000D+00
370  3.6900000000000D+00  0.0000000000000D+00  0.0000000000000D+00
371  3.7000000000000D+00  0.0000000000000D+00  0.0000000000000D+00
372  3.7100000000000D+00  0.0000000000000D+00  0.0000000000000D+00
373  3.7200000000000D+00  0.0000000000000D+00  0.0000000000000D+00
374  3.7300000000000D+00  0.0000000000000D+00  0.0000000000000D+00
375  3.7400000000000D+00  0.0000000000000D+00  0.0000000000000D+00
376  3.7500000000000D+00  0.0000000000000D+00  0.0000000000000D+00
377  3.7600000000000D+00  0.0000000000000D+00  0.0000000000000D+00
378  3.7700000000000D+00  0.0000000000000D+00  0.0000000000000D+00
379  3.7800000000000D+00  0.0000000000000D+00  0.0000000000000D+00
380  3.7900000000000D+00  0.0000000000000D+00  0.0000000000000D+00
381  3.8000000000000D+00  0.0000000000000D+00  0.0000000000000D+00
382  3.8100000000000D+00  0.0000000000000D+00  0.0000000000000D+00
383  3.8200000000000D+00  0.0000000000000D+00  0.0000000000000D+00
384  3.8300000000000D+00  0.0000000000000D+00  0.0000000000000D+00
385  3.8400000000000D+00  0.0000000000000D+00  0.0000000000000D+00
386  3.8500000000000D+00  0.0000000000000D+00  0.0000000000000D+00
387  3.8600000000000D+00  0.0000000000000D+00  0.0000000000000D+00
388  3.8700000000000D+00  0.0000000000000D+00  0.0000000000000D+00
389  3.8800000000000D+00  0.0000000000000D+00  0.0000000000000D+00
390  3.8900000000000D+00  0.0000000000000D+00  0.0000000000000D+00
391  3.9000000000000D+00  0.0000000000000D+00  0.0000000000000D+00
392  3.9100000000000D+00  0.0000000000000D+00  0.0000000000000D+00
393  3.9200000000000D+00  0.0000000000000D+00  0.0000000000000D+00
394  3.9300000000000D+00  0.0000000000000D+00  0.0000000000000D+00
395  3.9400000000000D+00  0.0000000000000D+00  0.0000000000000D+00
396  3.9500000000000D+00  0.0000000000000D+00  0.0000000000000D+00
397  3.9600000000000D+00  0.0000000000000D+00  0.0000000000000D+00
398  3.9700000000000D+00  0.0000000000000D+00  0.0000000000000D+00
399  3.9800000000000D+00  0.0000000000000D+00  0.0000000000000D+00
400  3.9900000000000D+00  0.0000000000000D+00  0.0000000000000D+00
401  4.0000000000000D+00  0.0000000000000D+00  0.0000000000000D+00
402  4.0100000000000D+00  0.0000000000000D+00  0.0000000000000D+00
403  4.0200000000000D+00  0.0000000000000D+00  0.0000000000000D+00
404  4.0300000000000D+00  0.0000000000000D+00  0.0000000000000D+00
405  4.0400000000000D+00  0.0000000000000D+00  0.0000000000000D+00
406  4.0500000000000D+00  0.0000000000000D+00  0.0000000000000D+00
407  4.0600000000000D+00  0.0000000000000D+00  0.0000000000000D+00
408  4.0700000000000D+00  0.0000000000000D+00  0.0000000000000D+00
409  4.0800000000000D+00  0.0000000000000D+00  0.0000000000000D+00
410  4.0900000000000D+00  0.0000000000000D+00  0.0000000000000D+00
411  4.1000000000000D+00  0.0000000000000D+00  0.0000000000000D+00
412  4.1100000000000D+00  0.0000000000000D+00  0.0000000000000D+00
413  4.1200000000000D+00  0.0000000000000D+00  0.0000000000000D+00
414  4.1300000000000D+00  0.0000000000000D+00  0.0000000000000D+00
415  4.1400000000000D+00  0.0000000000000D+00  0.0000000000000D+00
416  4.1500000000000D+00  0.0000000000000D+00  0.0000000000000D+00
417  4.1600000000000D+00  0.0000000000000D+00  0.0000000000000D+00
418  4.1700000000000D+00  0.0000000000000D+00  0.0000000000000D+00
419  4.1800000000000D+00  0.0000000000000D+00  0.0000000000000D+00
420  4.1900000000000D+00  0.0000000000000D+00  0.0000000000000D+00
421  4.2000000000000D+00  0.0000000000000D+00  0.0000000000000D+00
422  4.2100000000000D+00  0.0000000000000D+00  0.0000000000000D+00
423  4.2200000000000D+00  0.0000000000000D+00  0.0000000000000D+00
424  4.2300000000000D+00  0.0000000000000D+00  0.0000000000000D+00
425  4.2400000000000D+00  0.0000000000000D+00  0.0000000000000D+00
426  4.2500000000000D+00  0.0000000000000D+00  0.0000000000000D+00
427  4.2600000000000D+00  0.0000000000000D+00  0.0000000000000D+00
428  4.2700000000000D+00  0.0000000000000D+00  0.0000000000000D+00
429  4.2800000000000D+00  0.0000000000000D+00  0.0000000000000D+00
430  4.2900000000000D+00  0.0000000000000D+00  0.0000000000000D+00
431  4.3000000000000D+00  0.0000000000000D+00  0.0000000000000D+00
432  4.3100000000000D+00  0.0000000000000D+00  0.0000000000000D+00
433  4.3200000000000D+00  0.0000000000000D+00  0.0000000000000D+00
434  4.3300000000000D+00  0.0000000000000D+00  0.0000000000000D+00
435  4.3400000000000D+00  0.0000000000000D+00  0.0000000000000D+00
436  4.3500000000000D+00  0.0000000000000D+00  0.0000000000000D+00
437  4.3600000000000D+00  0.0000000000000D+00  0.0000000000000D+00
438  4.3700000000000D+00  0.0000000000000D+00  0.0000000000000D+00
439  4.3800000000000D+00  0.0000000000000D+00  0.0000000000000D+00
440  4.3900000000000D+00  0.0000000000000D+00  0.0000000000000D+00
441  4.4000000000000D+00  0.0000000000000D+00  0.0000000000000D+00
442  4.4100000000000D+00  0.0000000000000D+00  0.0000000000000D+00
443  4.4200000000000D+00  0.0000000000000D+00  0.0000000000000D+00
444  4.4300000000000D+00  0.0000000000000D+00  0.0000000000000D+00