Se    ONCVPSP  r_core=  1.76  1.56  1.82
34.0000     16.0000      140827    zatom,zion,pspd
8    11     2     4   601     0    pspcod,pspxc,lmax,lloc,mmax,r2well
6.00000000  0.40000000  0.00000000    rchrg fchrg qchrg
2     2     2     0     0    nproj
0                 extension_switch
0                         8.3435233200895D+00  9.5639447265940D-01
1  0.0000000000000D+00 -0.0000000000000D+00 -0.0000000000000D+00
2  1.0000000000000D-02 -3.3206629764949D-02 -3.4343971274505D-03
3  2.0000000000000D-02 -6.6413681153356D-02 -6.9337715791065D-03
4  3.0000000000000D-02 -9.9621412775625D-02 -1.0562480556313D-02
5  4.0000000000000D-02 -1.3282975824524D-01 -1.4383645078580D-02
6  5.0000000000000D-02 -1.6603816624792D-01 -1.8458542028793D-02
7  6.0000000000000D-02 -1.9924544367628D-01 -2.2846008294104D-02
8  7.0000000000000D-02 -2.3244960282755D-01 -2.7601860927218D-02
9  8.0000000000000D-02 -2.6564771363775D-01 -3.2778337149812D-02
10  9.0000000000000D-02 -2.9883576190247D-01 -3.8423557916164D-02
11  1.0000000000000D-01 -3.3200851440029D-01 -4.4581018607493D-02
12  1.1000000000000D-01 -3.6515939179493D-01 -5.1289110256406D-02
13  1.2000000000000D-01 -3.9828035016213D-01 -5.8580674562786D-02
14  1.3000000000000D-01 -4.3136177193090D-01 -6.6482595724774D-02
15  1.4000000000000D-01 -4.6439236696316D-01 -7.5015431832417D-02
16  1.5000000000000D-01 -4.9735908451484D-01 -8.4193088612474D-02
17  1.6000000000000D-01 -5.3024703660701D-01 -9.4022537476882D-02
18  1.7000000000000D-01 -5.6303943351023D-01 -1.0450358044465D-01
19  1.8000000000000D-01 -5.9571753170809D-01 -1.1562866321351D-01
20  1.9000000000000D-01 -6.2826059491423D-01 -1.2738273839072D-01
21  2.0000000000000D-01 -6.6064586831628D-01 -1.3974317938304D-01
22  2.1000000000000D-01 -6.9284856662888D-01 -1.5267974688106D-01
23  2.2000000000000D-01 -7.2484187585148D-01 -1.6615460734904D-01
24  2.3000000000000D-01 -7.5659696909752D-01 -1.8012240458852D-01
25  2.4000000000000D-01 -7.8808303650856D-01 -1.9453038412325D-01
26  2.5000000000000D-01 -8.1926732920084D-01 -2.0931856982337D-01
27  2.6000000000000D-01 -8.5011521723230D-01 -2.2441999245568D-01
28  2.7000000000000D-01 -8.8059026125986D-01 -2.3976096833660D-01
29  2.8000000000000D-01 -9.1065429792220D-01 -2.5526142799041D-01
30  2.9000000000000D-01 -9.4026753845899D-01 -2.7083529237177D-01
31  3.0000000000000D-01 -9.6938867994575D-01 -2.8639089387447D-01
32  3.1000000000000D-01 -9.9797502927057D-01 -3.0183144218339D-01
33  3.2000000000000D-01 -1.0259826391042D+00 -3.1705553156194D-01
34  3.3000000000000D-01 -1.0533664543976D+00 -3.3195768355765D-01
35  3.4000000000000D-01 -1.0800804694678D+00 -3.4642892494257D-01
36  3.5000000000000D-01 -1.1060778975458D+00 -3.6035740720899D-01
37  3.6000000000000D-01 -1.1313113442552D+00 -3.7362903533365D-01
38  3.7000000000000D-01 -1.1557329943232D+00 -3.8612813992374D-01
39  3.8000000000000D-01 -1.1792948044163D+00 -3.9773816562702D-01
40  3.9000000000000D-01 -1.2019486993316D+00 -4.0834236533373D-01
41  4.0000000000000D-01 -1.2236467768408D+00 -4.1782451903003D-01
42  4.1000000000000D-01 -1.2443415156344D+00 -4.2606965640271D-01
43  4.2000000000000D-01 -1.2639859896648D+00 -4.3296479441253D-01
44  4.3000000000000D-01 -1.2825340790331D+00 -4.3839965416169D-01
45  4.4000000000000D-01 -1.2999406863180D+00 -4.4226738837012D-01
46  4.5000000000000D-01 -1.3161619492036D+00 -4.4446528660828D-01
47  4.6000000000000D-01 -1.3311554612010D+00 -4.4489549866060D-01
48  4.7000000000000D-01 -1.3448804791251D+00 -4.4346570141424D-01
49  4.8000000000000D-01 -1.3572981333465D+00 -4.4008976468450D-01
50  4.9000000000000D-01 -1.3683716318985D+00 -4.3468838460421D-01
51  5.0000000000000D-01 -1.3780664475129D+00 -4.2718964895864D-01
52  5.1000000000000D-01 -1.3863505428030D+00 -4.1752971509909D-01
53  5.2000000000000D-01 -1.3931945286563D+00 -4.0565325331249D-01
54  5.3000000000000D-01 -1.3985718227840D+00 -3.9151388331966D-01
55  5.4000000000000D-01 -1.4024588823190D+00 -3.7507482837500D-01
56  5.5000000000000D-01 -1.4048352811601D+00 -3.5630906358307D-01
57  5.6000000000000D-01 -1.4056839164444D+00 -3.3519985630090D-01
58  5.7000000000000D-01 -1.4049911019099D+00 -3.1174093777097D-01
59  5.8000000000000D-01 -1.4027467174103D+00 -2.8593683209118D-01
60  5.9000000000000D-01 -1.3989442812352D+00 -2.5780293787171D-01
61  6.0000000000000D-01 -1.3935810972098D+00 -2.2736580674841D-01
62  6.1000000000000D-01 -1.3866582387237D+00 -1.9466295150459D-01
63  6.2000000000000D-01 -1.3781807368367D+00 -1.5974318435688D-01
64  6.3000000000000D-01 -1.3681575151183D+00 -1.2266626397443D-01
65  6.4000000000000D-01 -1.3566014573500D+00 -8.3502878487460D-02
66  6.5000000000000D-01 -1.3435294624749D+00 -4.2334551099281D-02
67  6.6000000000000D-01 -1.3289623809144D+00  7.4674369368472D-04
68  6.7000000000000D-01 -1.3129249984714D+00  4.5638857474396D-02
69  6.8000000000000D-01 -1.2954460634831D+00  9.2229728425721D-02
70  6.9000000000000D-01 -1.2765581692410D+00  1.4039791698402D-01
71  7.0000000000000D-01 -1.2562977031187D+00  1.9001304479204D-01
72  7.1000000000000D-01 -1.2347047574266D+00  2.4093631278237D-01
73  7.2000000000000D-01 -1.2118230442219D+00  2.9302108496350D-01
74  7.3000000000000D-01 -1.1876997659680D+00  3.4611353278244D-01
75  7.4000000000000D-01 -1.1623854789742D+00  4.0005329227826D-01
76  7.5000000000000D-01 -1.1359339508721D+00  4.5467417644057D-01
77  7.6000000000000D-01 -1.1084019999378D+00  5.0980492338600D-01
78  7.7000000000000D-01 -1.0798493210725D+00  5.6526997761969D-01
79  7.8000000000000D-01 -1.0503382992504D+00  6.2089029995022D-01
80  7.9000000000000D-01 -1.0199338182639D+00  6.7648415448342D-01
81  8.0000000000000D-01 -9.8870303316339D-01  7.3186809711641D-01
82  8.1000000000000D-01 -9.5671516669289D-01  7.8685772012928D-01
83  8.2000000000000D-01 -9.2404127859249D-01  8.4126856134249D-01
84  8.3000000000000D-01 -8.9075402992609D-01  8.9491698943381D-01
85  8.4000000000000D-01 -8.5692744106366D-01  9.4762108617727D-01
86  8.5000000000000D-01 -8.2263664403602D-01  9.9920152352499D-01
87  8.6000000000000D-01 -7.8795763039429D-01  1.0494824305142D+00
88  8.7000000000000D-01 -7.5296699572860D-01  1.0982922450125D+00
89  8.8000000000000D-01 -7.1774168202149D-01  1.1454645453686D+00
90  8.9000000000000D-01 -6.8235871902823D-01  1.1908388571134D+00
91  9.0000000000000D-01 -6.4689497069859D-01  1.2342614111457D+00
92  9.1000000000000D-01 -6.1142690711668D-01  1.2755857798004D+00
93  9.2000000000000D-01 -5.7603024859307D-01  1.3146739739347D+00
94  9.3000000000000D-01 -5.4077980990707D-01  1.3513967272324D+00
95  9.4000000000000D-01 -5.0574922425268D-01  1.3856342324927D+00
96  9.5000000000000D-01 -4.7101070252253D-01  1.4172767089699D+00
97  9.6000000000000D-01 -4.3663479976645D-01  1.4462249157475D+00
98  9.7000000000000D-01 -4.0269018998463D-01  1.4723906079596D+00
99  9.8000000000000D-01 -3.6924345037162D-01  1.4956969331596D+00
100  9.9000000000000D-01 -3.3635887641756D-01  1.5160787049213D+00
101  1.0000000000000D+00 -3.0409838874059D-01  1.5334823982073D+00
102  1.0100000000000D+00 -2.7252091968044D-01  1.5478676168674D+00
103  1.0200000000000D+00 -2.4168267547704D-01  1.5592059168954D+00
104  1.0300000000000D+00 -2.1163684252996D-01  1.5674813034258D+00
105  1.0400000000000D+00 -1.8243344508374D-01  1.5726902363486D+00
106  1.0500000000000D+00 -1.5411933913711D-01  1.5748412922442D+00
107  1.0600000000000D+00 -1.2673788482846D-01  1.5739556061393D+00
108  1.0700000000000D+00 -1.0032867050661D-01  1.5700669810660D+00
109  1.0800000000000D+00 -7.4927834458872D-02  1.5632206908434D+00
110  1.0900000000000D+00 -5.0567846213904D-02  1.5534735442453D+00
111  1.1000000000000D+00 -2.7277735058054D-02  1.5408930921341D+00
112  1.1100000000000D+00 -5.0822037083725D-03  1.5255586819431D+00
113  1.1200000000000D+00  1.5997752125241D-02  1.5075596715098D+00
114  1.1300000000000D+00  3.5944856645106D-02  1.4869950030246D+00
115  1.1400000000000D+00  5.4745337805267D-02  1.4639725901799D+00
116  1.1500000000000D+00  7.2389774627545D-02  1.4386095941799D+00
117  1.1600000000000D+00  8.8872452906245D-02  1.4110308375153D+00
118  1.1700000000000D+00  1.0419120411743D-01  1.3813681950226D+00
119  1.1800000000000D+00  1.1834718637981D-01  1.3497602979293D+00
120  1.1900000000000D+00  1.3134597628031D-01  1.3163514352534D+00
121  1.2000000000000D+00  1.4319621299146D-01  1.2812906255213D+00
122  1.2100000000000D+00  1.5390966858492D-01  1.2447315642189D+00
123  1.2200000000000D+00  1.6350184168858D-01  1.2068309799115D+00
124  1.2300000000000D+00  1.7199138249348D-01  1.1677475996786D+00
125  1.2400000000000D+00  1.7939966431566D-01  1.1276427392954D+00
126  1.2500000000000D+00  1.8575115219099D-01  1.0866785277450D+00
127  1.2600000000000D+00  1.9107319045738D-01  1.0450156544701D+00
128  1.2700000000000D+00  1.9539542348585D-01  1.0028157453671D+00
129  1.2800000000000D+00  1.9875007297170D-01  9.6023879290811D-01
130  1.2900000000000D+00  2.0117163147083D-01  9.1744010017856D-01
131  1.3000000000000D+00  2.0269653281549D-01  8.7457487298119D-01
132  1.3100000000000D+00  2.0336322663376D-01  8.3179320106930D-01
133  1.3200000000000D+00  2.0321169436871D-01  7.8923851411810D-01
134  1.3300000000000D+00  2.0228362564924D-01  7.4705375778959D-01
135  1.3400000000000D+00  2.0062185893856D-01  7.0537147928509D-01
136  1.3500000000000D+00  1.9827022179707D-01  6.6431824124182D-01
137  1.3600000000000D+00  1.9527408200672D-01  6.2401924152113D-01
138  1.3700000000000D+00  1.9167861646995D-01  5.8458317078094D-01
139  1.3800000000000D+00  1.8753021282472D-01  5.4611768308739D-01
140  1.3900000000000D+00  1.8287556062791D-01  5.0872060607836D-01
141  1.4000000000000D+00  1.7776078517708D-01  4.7247706157320D-01
142  1.4100000000000D+00  1.7223346038448D-01  4.3747211810902D-01
143  1.4200000000000D+00  1.6633916054734D-01  4.0377099409157D-01
144  1.4300000000000D+00  1.6012431921648D-01  3.7143712759587D-01
145  1.4400000000000D+00  1.5363460119281D-01  3.4052252565052D-01
146  1.4500000000000D+00  1.4691398342150D-01  3.1106607510537D-01
147  1.4600000000000D+00  1.4000775929432D-01  2.8310594203962D-01
148  1.4700000000000D+00  1.3295716517143D-01  2.5665885653223D-01
149  1.4800000000000D+00  1.2580511342333D-01  2.3174317680087D-01
150  1.4900000000000D+00  1.1859107938282D-01  2.0836005341100D-01
151  1.5000000000000D+00  1.1135410510189D-01  1.8650566348077D-01
152  1.5100000000000D+00  1.0413182778841D-01  1.6616700916859D-01
153  1.5200000000000D+00  9.6958708372646D-02  1.4731929660242D-01
154  1.5300000000000D+00  8.9870101348201D-02  1.2993552979311D-01
155  1.5400000000000D+00  8.2895577647290D-02  1.1397242144382D-01
156  1.5500000000000D+00  7.6067347714206D-02  9.9388457500835D-02
157  1.5600000000000D+00  6.9410511603322D-02  8.6125585134152D-02
158  1.5700000000000D+00  6.2952531518665D-02  7.4126961448013D-02
159  1.5800000000000D+00  5.6715597564363D-02  6.3327274250701D-02
160  1.5900000000000D+00  5.0722718124670D-02  5.3660736025523D-02
161  1.6000000000000D+00  4.4993647589514D-02  4.5059520586743D-02
162  1.6100000000000D+00  3.9547604019531D-02  3.7455066231717D-02
163  1.6200000000000D+00  3.4401660603093D-02  3.0778036259387D-02
164  1.6300000000000D+00  2.9571403459016D-02  2.4959964695311D-02
165  1.6400000000000D+00  2.5071089114432D-02  1.9931755528467D-02
166  1.6500000000000D+00  2.0912813414641D-02  1.5627398495519D-02
167  1.6600000000000D+00  1.7107910079515D-02  1.1979981379689D-02
168  1.6700000000000D+00  1.3665135993053D-02  8.9279392397103D-03
169  1.6800000000000D+00  1.0592806537477D-02  6.4085146915700D-03
170  1.6900000000000D+00  7.8964871266416D-03  4.3661327985340D-03
171  1.7000000000000D+00  5.5813852234058D-03  2.7441102706400D-03
172  1.7100000000000D+00  3.6500101828366D-03  1.4939228760815D-03
173  1.7200000000000D+00  2.1043702948567D-03  5.6673357903958D-04
174  1.7300000000000D+00  9.4403834302317D-04 -7.8354708400276D-05
175  1.7400000000000D+00  1.8783127993404D-04 -4.9507786642990D-04
176  1.7500000000000D+00 -1.9939222692386D-04 -6.9396734070555D-04
177  1.7600000000000D+00 -2.7196735687789D-04 -5.8351918482068D-04
178  1.7700000000000D+00 -1.2573213494329D-04 -2.2991243210986D-04
179  1.7800000000000D+00  1.2349050527726D-05  3.0298843629194D-05
180  1.7900000000000D+00  1.5845526627246D-05  3.8877574629988D-05
181  1.8000000000000D+00  0.0000000000000D+00  0.0000000000000D+00
182  1.8100000000000D+00  0.0000000000000D+00  0.0000000000000D+00
183  1.8200000000000D+00  0.0000000000000D+00  0.0000000000000D+00
184  1.8300000000000D+00  0.0000000000000D+00  0.0000000000000D+00
185  1.8400000000000D+00  0.0000000000000D+00  0.0000000000000D+00
186  1.8500000000000D+00  0.0000000000000D+00  0.0000000000000D+00
187  1.8600000000000D+00  0.0000000000000D+00  0.0000000000000D+00
188  1.8700000000000D+00  0.0000000000000D+00  0.0000000000000D+00
189  1.8800000000000D+00  0.0000000000000D+00  0.0000000000000D+00
190  1.8900000000000D+00  0.0000000000000D+00  0.0000000000000D+00
191  1.9000000000000D+00  0.0000000000000D+00  0.0000000000000D+00
192  1.9100000000000D+00  0.0000000000000D+00  0.0000000000000D+00
193  1.9200000000000D+00  0.0000000000000D+00  0.0000000000000D+00
194  1.9300000000000D+00  0.0000000000000D+00  0.0000000000000D+00
195  1.9400000000000D+00  0.0000000000000D+00  0.0000000000000D+00
196  1.9500000000000D+00  0.0000000000000D+00  0.0000000000000D+00
197  1.9600000000000D+00  0.0000000000000D+00  0.0000000000000D+00
198  1.9700000000000D+00  0.0000000000000D+00  0.0000000000000D+00
199  1.9800000000000D+00  0.0000000000000D+00  0.0000000000000D+00
200  1.9900000000000D+00  0.0000000000000D+00  0.0000000000000D+00
201  2.0000000000000D+00  0.0000000000000D+00  0.0000000000000D+00
202  2.0100000000000D+00  0.0000000000000D+00  0.0000000000000D+00
203  2.0200000000000D+00  0.0000000000000D+00  0.0000000000000D+00
204  2.0300000000000D+00  0.0000000000000D+00  0.0000000000000D+00
205  2.0400000000000D+00  0.0000000000000D+00  0.0000000000000D+00
206  2.0500000000000D+00  0.0000000000000D+00  0.0000000000000D+00
207  2.0600000000000D+00  0.0000000000000D+00  0.0000000000000D+00
208  2.0700000000000D+00  0.0000000000000D+00  0.0000000000000D+00
209  2.0800000000000D+00  0.0000000000000D+00  0.0000000000000D+00
210  2.0900000000000D+00  0.0000000000000D+00  0.0000000000000D+00
211  2.1000000000000D+00  0.0000000000000D+00  0.0000000000000D+00
212  2.1100000000000D+00  0.0000000000000D+00  0.0000000000000D+00
213  2.1200000000000D+00  0.0000000000000D+00  0.0000000000000D+00
214  2.1300000000000D+00  0.0000000000000D+00  0.0000000000000D+00
215  2.1400000000000D+00  0.0000000000000D+00  0.0000000000000D+00
216  2.1500000000000D+00  0.0000000000000D+00  0.0000000000000D+00
217  2.1600000000000D+00  0.0000000000000D+00  0.0000000000000D+00
218  2.1700000000000D+00  0.0000000000000D+00  0.0000000000000D+00
219  2.1800000000000D+00  0.0000000000000D+00  0.0000000000000D+00
220  2.1900000000000D+00  0.0000000000000D+00  0.0000000000000D+00
221  2.2000000000000D+00  0.0000000000000D+00  0.0000000000000D+00
222  2.2100000000000D+00  0.0000000000000D+00  0.0000000000000D+00
223  2.2200000000000D+00  0.0000000000000D+00  0.0000000000000D+00
224  2.2300000000000D+00  0.0000000000000D+00  0.0000000000000D+00
225  2.2400000000000D+00  0.0000000000000D+00  0.0000000000000D+00
226  2.2500000000000D+00  0.0000000000000D+00  0.0000000000000D+00
227  2.2600000000000D+00  0.0000000000000D+00  0.0000000000000D+00
228  2.2700000000000D+00  0.0000000000000D+00  0.0000000000000D+00
229  2.2800000000000D+00  0.0000000000000D+00  0.0000000000000D+00
230  2.2900000000000D+00  0.0000000000000D+00  0.0000000000000D+00
231  2.3000000000000D+00  0.0000000000000D+00  0.0000000000000D+00
232  2.3100000000000D+00  0.0000000000000D+00  0.0000000000000D+00
233  2.3200000000000D+00  0.0000000000000D+00  0.0000000000000D+00
234  2.3300000000000D+00  0.0000000000000D+00  0.0000000000000D+00
235  2.3400000000000D+00  0.0000000000000D+00  0.0000000000000D+00
236  2.3500000000000D+00  0.0000000000000D+00  0.0000000000000D+00
237  2.3600000000000D+00  0.0000000000000D+00  0.0000000000000D+00
238  2.3700000000000D+00  0.0000000000000D+00  0.0000000000000D+00
239  2.3800000000000D+00  0.0000000000000D+00  0.0000000000000D+00
240  2.3900000000000D+00  0.0000000000000D+00  0.0000000000000D+00
241  2.4000000000000D+00  0.0000000000000D+00  0.0000000000000D+00
242  2.4100000000000D+00  0.0000000000000D+00  0.0000000000000D+00
243  2.4200000000000D+00  0.0000000000000D+00  0.0000000000000D+00
244  2.4300000000000D+00  0.0000000000000D+00  0.0000000000000D+00
245  2.4400000000000D+00  0.0000000000000D+00  0.0000000000000D+00
246  2.4500000000000D+00  0.0000000000000D+00  0.0000000000000D+00
247  2.4600000000000D+00  0.0000000000000D+00  0.0000000000000D+00
248  2.4700000000000D+00  0.0000000000000D+00  0.0000000000000D+00
249  2.4800000000000D+00  0.0000000000000D+00  0.0000000000000D+00
250  2.4900000000000D+00  0.0000000000000D+00  0.0000000000000D+00
251  2.5000000000000D+00  0.0000000000000D+00  0.0000000000000D+00
252  2.5100000000000D+00  0.0000000000000D+00  0.0000000000000D+00
253  2.5200000000000D+00  0.0000000000000D+00  0.0000000000000D+00
254  2.5300000000000D+00  0.0000000000000D+00  0.0000000000000D+00
255  2.5400000000000D+00  0.0000000000000D+00  0.0000000000000D+00
256  2.5500000000000D+00  0.0000000000000D+00  0.0000000000000D+00
257  2.5600000000000D+00  0.0000000000000D+00  0.0000000000000D+00
258  2.5700000000000D+00  0.0000000000000D+00  0.0000000000000D+00
259  2.5800000000000D+00  0.0000000000000D+00  0.0000000000000D+00
260  2.5900000000000D+00  0.0000000000000D+00  0.0000000000000D+00
261  2.6000000000000D+00  0.0000000000000D+00  0.0000000000000D+00
262  2.6100000000000D+00  0.0000000000000D+00  0.0000000000000D+00
263  2.6200000000000D+00  0.0000000000000D+00  0.0000000000000D+00
264  2.6300000000000D+00  0.0000000000000D+00  0.0000000000000D+00
265  2.6400000000000D+00  0.0000000000000D+00  0.0000000000000D+00
266  2.6500000000000D+00  0.0000000000000D+00  0.0000000000000D+00
267  2.6600000000000D+00  0.0000000000000D+00  0.0000000000000D+00
268  2.6700000000000D+00  0.0000000000000D+00  0.0000000000000D+00
269  2.6800000000000D+00  0.0000000000000D+00  0.0000000000000D+00
270  2.6900000000000D+00  0.0000000000000D+00  0.0000000000000D+00
271  2.7000000000000D+00  0.0000000000000D+00  0.0000000000000D+00
272  2.7100000000000D+00  0.0000000000000D+00  0.0000000000000D+00
273  2.7200000000000D+00  0.0000000000000D+00  0.0000000000000D+00
274  2.7300000000000D+00  0.0000000000000D+00  0.0000000000000D+00
275  2.7400000000000D+00  0.0000000000000D+00  0.0000000000000D+00
276  2.7500000000000D+00  0.0000000000000D+00  0.0000000000000D+00
277  2.7600000000000D+00  0.0000000000000D+00  0.0000000000000D+00
278  2.7700000000000D+00  0.0000000000000D+00  0.0000000000000D+00
279  2.7800000000000D+00  0.0000000000000D+00  0.0000000000000D+00
280  2.7900000000000D+00  0.0000000000000D+00  0.0000000000000D+00
281  2.8000000000000D+00  0.0000000000000D+00  0.0000000000000D+00
282  2.8100000000000D+00  0.0000000000000D+00  0.0000000000000D+00
283  2.8200000000000D+00  0.0000000000000D+00  0.0000000000000D+00
284  2.8300000000000D+00  0.0000000000000D+00  0.0000000000000D+00
285  2.8400000000000D+00  0.0000000000000D+00  0.0000000000000D+00
286  2.8500000000000D+00  0.0000000000000D+00  0.0000000000000D+00
287  2.8600000000000D+00  0.0000000000000D+00  0.0000000000000D+00
288  2.8700000000000D+00  0.0000000000000D+00  0.0000000000000D+00
289  2.8800000000000D+00  0.0000000000000D+00  0.0000000000000D+00
290  2.8900000000000D+00  0.0000000000000D+00  0.0000000000000D+00
291  2.9000000000000D+00  0.0000000000000D+00  0.0000000000000D+00
292  2.9100000000000D+00  0.0000000000000D+00  0.0000000000000D+00
293  2.9200000000000D+00  0.0000000000000D+00  0.0000000000000D+00
294  2.9300000000000D+00  0.0000000000000D+00  0.0000000000000D+00
295  2.9400000000000D+00  0.0000000000000D+00  0.0000000000000D+00
296  2.9500000000000D+00  0.0000000000000D+00  0.0000000000000D+00
297  2.9600000000000D+00  0.0000000000000D+00  0.0000000000000D+00
298  2.9700000000000D+00  0.0000000000000D+00  0.0000000000000D+00
299  2.9800000000000D+00  0.0000000000000D+00  0.0000000000000D+00
300  2.9900000000000D+00  0.0000000000000D+00  0.0000000000000D+00
301  3.0000000000000D+00  0.0000000000000D+00  0.0000000000000D+00
302  3.0100000000000D+00  0.0000000000000D+00  0.0000000000000D+00
303  3.0200000000000D+00  0.0000000000000D+00  0.0000000000000D+00
304  3.0300000000000D+00  0.0000000000000D+00  0.0000000000000D+00
305  3.0400000000000D+00  0.0000000000000D+00  0.0000000000000D+00
306  3.0500000000000D+00  0.0000000000000D+00  0.0000000000000D+00
307  3.0600000000000D+00  0.0000000000000D+00  0.0000000000000D+00
308  3.0700000000000D+00  0.0000000000000D+00  0.0000000000000D+00
309  3.0800000000000D+00  0.0000000000000D+00  0.0000000000000D+00
310  3.0900000000000D+00  0.0000000000000D+00  0.0000000000000D+00
311  3.1000000000000D+00  0.0000000000000D+00  0.0000000000000D+00
312  3.1100000000000D+00  0.0000000000000D+00  0.0000000000000D+00
313  3.1200000000000D+00  0.0000000000000D+00  0.0000000000000D+00
314  3.1300000000000D+00  0.0000000000000D+00  0.0000000000000D+00
315  3.1400000000000D+00  0.0000000000000D+00  0.0000000000000D+00
316  3.1500000000000D+00  0.0000000000000D+00  0.0000000000000D+00
317  3.1600000000000D+00  0.0000000000000D+00  0.0000000000000D+00
318  3.1700000000000D+00  0.0000000000000D+00  0.0000000000000D+00
319  3.1800000000000D+00  0.0000000000000D+00  0.0000000000000D+00
320  3.1900000000000D+00  0.0000000000000D+00  0.0000000000000D+00
321  3.2000000000000D+00  0.0000000000000D+00  0.0000000000000D+00
322  3.2100000000000D+00  0.0000000000000D+00  0.0000000000000D+00
323  3.2200000000000D+00  0.0000000000000D+00  0.0000000000000D+00
324  3.2300000000000D+00  0.0000000000000D+00  0.0000000000000D+00
325  3.2400000000000D+00  0.0000000000000D+00  0.0000000000000D+00
326  3.2500000000000D+00  0.0000000000000D+00  0.0000000000000D+00
327  3.2600000000000D+00  0.0000000000000D+00  0.0000000000000D+00
328  3.2700000000000D+00  0.0000000000000D+00  0.0000000000000D+00
329  3.2800000000000D+00  0.0000000000000D+00  0.0000000000000D+00
330  3.2900000000000D+00  0.0000000000000D+00  0.0000000000000D+00
331  3.3000000000000D+00  0.0000000000000D+00  0.0000000000000D+00
332  3.3100000000000D+00  0.0000000000000D+00  0.0000000000000D+00
333  3.3200000000000D+00  0.0000000000000D+00  0.0000000000000D+00
334  3.3300000000000D+00  0.0000000000000D+00  0.0000000000000D+00
335  3.3400000000000D+00  0.0000000000000D+00  0.0000000000000D+00
336  3.3500000000000D+00  0.0000000000000D+00  0.0000000000000D+00
337  3.3600000000000D+00  0.0000000000000D+00  0.0000000000000D+00
338  3.3700000000000D+00  0.0000000000000D+00  0.0000000000000D+00
339  3.3800000000000D+00  0.0000000000000D+00  0.0000000000000D+00
340  3.3900000000000D+00  0.0000000000000D+00  0.0000000000000D+00
341  3.4000000000000D+00  0.0000000000000D+00  0.0000000000000D+00
342  3.4100000000000D+00  0.0000000000000D+00  0.0000000000000D+00
343  3.4200000000000D+00  0.0000000000000D+00  0.0000000000000D+00
344  3.4300000000000D+00  0.0000000000000D+00  0.0000000000000D+00
345  3.4400000000000D+00  0.0000000000000D+00  0.0000000000000D+00
346  3.4500000000000D+00  0.0000000000000D+00  0.0000000000000D+00
347  3.4600000000000D+00  0.0000000000000D+00  0.0000000000000D+00
348  3.4700000000000D+00  0.0000000000000D+00  0.0000000000000D+00
349  3.4800000000000D+00  0.0000000000000D+00  0.0000000000000D+00
350  3.4900000000000D+00  0.0000000000000D+00  0.0000000000000D+00
351  3.5000000000000D+00  0.0000000000000D+00  0.0000000000000D+00
352  3.5100000000000D+00  0.0000000000000D+00  0.0000000000000D+00
353  3.5200000000000D+00  0.0000000000000D+00  0.0000000000000D+00
354  3.5300000000000D+00  0.0000000000000D+00  0.0000000000000D+00
355  3.5400000000000D+00  0.0000000000000D+00  0.0000000000000D+00
356  3.5500000000000D+00  0.0000000000000D+00  0.0000000000000D+00
357  3.5600000000000D+00  0.0000000000000D+00  0.0000000000000D+00
358  3.5700000000000D+00  0.0000000000000D+00  0.0000000000000D+00
359  3.5800000000000D+00  0.0000000000000D+00  0.0000000000000D+00
360  3.5900000000000D+00  0.0000000000000D+00  0.0000000000000D+00
361  3.6000000000000D+00  0.0000000000000D+00  0.0000000000000D+00
362  3.6100000000000D+00  0.0000000000000D+00  0.0000000000000D+00
363  3.6200000000000D+00  0.0000000000000D+00  0.0000000000000D+00
364  3.6300000000000D+00  0.0000000000000D+00  0.0000000000000D+00
365  3.6400000000000D+00  0.0000000000000D+00  0.0000000000000D+00
366  3.6500000000000D+00  0.0000000000000D+00  0.0000000000000D+00
367  3.6600000000000D+00  0.0000000000000D+00  0.0000000000000D+00
368  3.6700000000000D+00  0.0000000000000D+00  0.0000000000000D+00
369  3.6800000000000D+00  0.0000000000000D+00  0.0000000000000D+00
370  3.6900000000000D+00  0.0000000000000D+00  0.0000000000000D+00
371  3.7000000000000D+00  0.0000000000000D+00  0.0000000000000D+00
372  3.7100000000000D+00  0.0000000000000D+00  0.0000000000000D+00
373  3.7200000000000D+00  0.0000000000000D+00  0.0000000000000D+00
374  3.7300000000000D+00  0.0000000000000D+00  0.0000000000000D+00
375  3.7400000000000D+00  0.0000000000000D+00  0.0000000000000D+00
376  3.7500000000000D+00  0.0000000000000D+00  0.0000000000000D+00
377  3.7600000000000D+00  0.0000000000000D+00  0.0000000000000D+00
378  3.7700000000000D+00  0.0000000000000D+00  0.0000000000000D+00
379  3.7800000000000D+00  0.0000000000000D+00  0.0000000000000D+00
380  3.7900000000000D+00  0.0000000000000D+00  0.0000000000000D+00
381  3.8000000000000D+00  0.0000000000000D+00  0.0000000000000D+00
382  3.8100000000000D+00  0.0000000000000D+00  0.0000000000000D+00
383  3.8200000000000D+00  0.0000000000000D+00  0.0000000000000D+00
384  3.8300000000000D+00  0.0000000000000D+00  0.0000000000000D+00
385  3.8400000000000D+00  0.0000000000000D+00  0.0000000000000D+00
386  3.8500000000000D+00  0.0000000000000D+00  0.0000000000000D+00
387  3.8600000000000D+00  0.0000000000000D+00  0.0000000000000D+00
388  3.8700000000000D+00  0.0000000000000D+00  0.0000000000000D+00
389  3.8800000000000D+00  0.0000000000000D+00  0.0000000000000D+00
390  3.8900000000000D+00  0.0000000000000D+00  0.0000000000000D+00
391  3.9000000000000D+00  0.0000000000000D+00  0.0000000000000D+00
392  3.9100000000000D+00  0.0000000000000D+00  0.0000000000000D+00
393  3.9200000000000D+00  0.0000000000000D+00  0.0000000000000D+00
394  3.9300000000000D+00  0.0000000000000D+00  0.0000000000000D+00
395  3.9400000000000D+00  0.0000000000000D+00  0.0000000000000D+00
396  3.9500000000000D+00  0.0000000000000D+00  0.0000000000000D+00
397  3.9600000000000D+00  0.0000000000000D+00  0.0000000000000D+00
398  3.9700000000000D+00  0.0000000000000D+00  0.0000000000000D+00
399  3.9800000000000D+00  0.0000000000000D+00  0.0000000000000D+00
400  3.9900000000000D+00  0.0000000000000D+00  0.0000000000000D+00
401  4.0000000000000D+00  0.0000000000000D+00  0.0000000000000D+00
402  4.0100000000000D+00  0.0000000000000D+00  0.0000000000000D+00
403  4.0200000000000D+00  0.0000000000000D+00  0.0000000000000D+00
404  4.0300000000000D+00  0.0000000000000D+00  0.0000000000000D+00
405  4.0400000000000D+00  0.0000000000000D+00  0.0000000000000D+00
406  4.0500000000000D+00  0.0000000000000D+00  0.0000000000000D+00
407  4.0600000000000D+00  0.0000000000000D+00  0.0000000000000D+00
408  4.0700000000000D+00  0.0000000000000D+00  0.0000000000000D+00
409  4.0800000000000D+00  0.0000000000000D+00  0.0000000000000D+00
410  4.0900000000000D+00  0.0000000000000D+00  0.0000000000000D+00
411  4.1000000000000D+00  0.0000000000000D+00  0.0000000000000D+00
412  4.1100000000000D+00  0.0000000000000D+00  0.0000000000000D+00
413  4.1200000000000D+00  0.0000000000000D+00  0.0000000000000D+00
414  4.1300000000000D+00  0.0000000000000D+00  0.0000000000000D+00
415  4.1400000000000D+00  0.0000000000000D+00  0.0000000000000D+00
416  4.1500000000000D+00  0.0000000000000D+00  0.0000000000000D+00
417  4.1600000000000D+00  0.0000000000000D+00  0.0000000000000D+00
418  4.1700000000000D+00  0.0000000000000D+00  0.0000000000000D+00
419  4.1800000000000D+00  0.0000000000000D+00  0.0000000000000D+00
420  4.1900000000000D+00  0.0000000000000D+00  0.0000000000000D+00
421  4.2000000000000D+00  0.0000000000000D+00  0.0000000000000D+00
422  4.2100000000000D+00  0.0000000000000D+00  0.0000000000000D+00
423  4.2200000000000D+00  0.0000000000000D+00  0.0000000000000D+00
424  4.2300000000000D+00  0.0000000000000D+00  0.0000000000000D+00
425  4.2400000000000D+00  0.0000000000000D+00  0.0000000000000D+00
426  4.2500000000000D+00  0.0000000000000D+00  0.0000000000000D+00
427  4.2600000000000D+00  0.0000000000000D+00  0.0000000000000D+00
428  4.2700000000000D+00  0.0000000000000D+00  0.0000000000000D+00
429  4.2800000000000D+00  0.0000000000000D+00  0.0000000000000D+00
430  4.2900000000000D+00  0.0000000000000D+00  0.0000000000000D+00
431  4.3000000000000D+00  0.0000000000000D+00  0.0000000000000D+00
432  4.3100000000000D+00  0.0000000000000D+00  0.0000000000000D+00
433  4.3200000000000D+00  0.0000000000000D+00  0.0000000000000D+00
434  4.3300000000000D+00  0.0000000000000D+00  0.0000000000000D+00
435  4.3400000000000D+00  0.0000000000000D+00  0.0000000000000D+00
436  4.3500000000000D+00  0.0000000000000D+00  0.0000000000000D+00
437  4.3600000000000D+00  0.0000000000000D+00  0.0000000000000D+00
438  4.3700000000000D+00  0.0000000000000D+00  0.0000000000000D+00
439  4.3800000000000D+00  0.0000000000000D+00  0.0000000000000D+00
440  4.3900000000000D+00  0.0000000000000D+00  0.0000000000000D+00
441  4.4000000000000D+00  0.0000000000000D+00  0.0000000000000D+00
442  4.4100000000000D+00  0.0000000000000D+00  0.0000000000000D+00
443  4.4200000000000D+00  0.0000000000000D+00  0.0000000000000D+00
444  4.4300000000000D+00  0.0000000000000D+00  0.0000000000000D+00