Se    ONCVPSP  r_core=  1.82  1.56  2.12
34.0000      6.0000      140907    zatom,zion,pspd
8    11     2     4   601     0    pspcod,pspxc,lmax,lloc,mmax,r2well
6.00000000  1.30000000  0.00000000    rchrg fchrg qchrg
2     2     2     0     0    nproj
0                 extension_switch
0                         8.9745867936156D+00  9.7219002658805D-01
1  0.0000000000000D+00 -0.0000000000000D+00 -0.0000000000000D+00
2  1.0000000000000D-02 -4.0264288128215D-02 -1.9612429772012D-02
3  2.0000000000000D-02 -8.0495326817605D-02 -3.9202628739851D-02
4  3.0000000000000D-02 -1.2065994100747D-01 -5.8748223784704D-02
5  4.0000000000000D-02 -1.6072510306040D-01 -7.8226558635615D-02
6  5.0000000000000D-02 -2.0065800316379D-01 -9.7614555974808D-02
7  6.0000000000000D-02 -2.4042611582105D-01 -1.1688858392822D-01
8  7.0000000000000D-02 -2.7999726123094D-01 -1.3602432835041D-01
9  8.0000000000000D-02 -3.1933966043994D-01 -1.5499667226577D-01
10  9.0000000000000D-02 -3.5842198325613D-01 -1.7377958377535D-01
11  1.0000000000000D-01 -3.9721338803649D-01 -1.9234601367047D-01
12  1.1000000000000D-01 -4.3568355259858D-01 -2.1066780391713D-01
13  1.2000000000000D-01 -4.7380269565659D-01 -2.2871560809955D-01
14  1.3000000000000D-01 -5.1154158835012D-01 -2.4645882481014D-01
15  1.4000000000000D-01 -5.4887155560676D-01 -2.6386554486599D-01
16  1.5000000000000D-01 -5.8576446725456D-01 -2.8090251316872D-01
17  1.6000000000000D-01 -6.2219271899442D-01 -2.9753510582392D-01
18  1.7000000000000D-01 -6.5812920352203D-01 -3.1372732314771D-01
19  1.8000000000000D-01 -6.9354727227045D-01 -3.2944179893103D-01
20  1.9000000000000D-01 -7.2842068846329D-01 -3.4463982631560D-01
21  2.0000000000000D-01 -7.6272357221891D-01 -3.5928140046148D-01
22  2.1000000000000D-01 -7.9643033888451D-01 -3.7332527803974D-01
23  2.2000000000000D-01 -8.2951563154542D-01 -3.8672905352487D-01
24  2.3000000000000D-01 -8.6195424911960D-01 -3.9944925210256D-01
25  2.4000000000000D-01 -8.9372107140627D-01 -4.1144143891073D-01
26  2.5000000000000D-01 -9.2479098283937D-01 -4.2266034387779D-01
27  2.6000000000000D-01 -9.5513879591115D-01 -4.3306000243808D-01
28  2.7000000000000D-01 -9.8473917700070D-01 -4.4259391005176D-01
29  2.8000000000000D-01 -1.0135665750790D+00 -4.5121519148770D-01
30  2.9000000000000D-01 -1.0415951559151D+00 -4.5887678279887D-01
31  3.0000000000000D-01 -1.0687987434101D+00 -4.6553162488437D-01
32  3.1000000000000D-01 -1.0951507691223D+00 -4.7113286893679D-01
33  3.2000000000000D-01 -1.1206242321454D+00 -4.7563409186936D-01
34  3.3000000000000D-01 -1.1451916712218D+00 -4.7898951909107D-01
35  3.4000000000000D-01 -1.1688251497015D+00 -4.8115425503493D-01
36  3.5000000000000D-01 -1.1914962543688D+00 -4.8208452402300D-01
37  3.6000000000000D-01 -1.2131761115340D+00 -4.8173790741762D-01
38  3.7000000000000D-01 -1.2338354181653D+00 -4.8007359251414D-01
39  3.8000000000000D-01 -1.2534444912408D+00 -4.7705262115700D-01
40  3.9000000000000D-01 -1.2719733351411D+00 -4.7263813447718D-01
41  4.0000000000000D-01 -1.2893917269427D+00 -4.6679562173664D-01
42  4.1000000000000D-01 -1.3056693202524D+00 -4.5949316490328D-01
43  4.2000000000000D-01 -1.3207757681965D+00 -4.5070168345957D-01
44  4.3000000000000D-01 -1.3346808632058D+00 -4.4039516632980D-01
45  4.4000000000000D-01 -1.3473546948305D+00 -4.2855090304123D-01
46  4.5000000000000D-01 -1.3587678225185D+00 -4.1514970223617D-01
47  4.6000000000000D-01 -1.3688914680083D+00 -4.0017611191929D-01
48  4.7000000000000D-01 -1.3776977170725D+00 -3.8361861546901D-01
49  4.8000000000000D-01 -1.3851597361507D+00 -3.6546982329488D-01
50  4.9000000000000D-01 -1.3912519987663D+00 -3.4572664934426D-01
51  5.0000000000000D-01 -1.3959505110100D+00 -3.2439046171994D-01
52  5.1000000000000D-01 -1.3992330778261D+00 -3.0146726473470D-01
53  5.2000000000000D-01 -1.4010795305480D+00 -2.7696780136039D-01
54  5.3000000000000D-01 -1.4014719552631D+00 -2.5090765234928D-01
55  5.4000000000000D-01 -1.4003949995912D+00 -2.2330739509077D-01
56  5.5000000000000D-01 -1.3978360431475D+00 -1.9419260635376D-01
57  5.6000000000000D-01 -1.3937854920470D+00 -1.6359397775722D-01
58  5.7000000000000D-01 -1.3882369682614D+00 -1.3154731806210D-01
59  5.8000000000000D-01 -1.3811875561644D+00 -9.8093596278895D-02
60  5.9000000000000D-01 -1.3726379670457D+00 -6.3278911164789D-02
61  6.0000000000000D-01 -1.3625927883866D+00 -2.7154505922152D-02
62  6.1000000000000D-01 -1.3510605362878D+00  1.0223339455647D-02
63  6.2000000000000D-01 -1.3380539565468D+00  4.8793299256832D-02
64  6.3000000000000D-01 -1.3235900047475D+00  8.8489158286655D-02
65  6.4000000000000D-01 -1.3076899866558D+00  1.2923989848948D-01
66  6.5000000000000D-01 -1.2903796822576D+00  1.7096982181863D-01
67  6.6000000000000D-01 -1.2716893009003D+00  2.1359872897108D-01
68  6.7000000000000D-01 -1.2516534909192D+00  2.5704208319556D-01
69  6.8000000000000D-01 -1.2303114069765D+00  3.0121121365704D-01
70  6.9000000000000D-01 -1.2077065615330D+00  3.4601353721964D-01
71  7.0000000000000D-01 -1.1838867624834D+00  3.9135279505031D-01
72  7.1000000000000D-01 -1.1589039872829D+00  4.3712930061969D-01
73  7.2000000000000D-01 -1.1328142541999D+00  4.8324024044262D-01
74  7.3000000000000D-01 -1.1056774196144D+00  5.2957996876920D-01
75  7.4000000000000D-01 -1.0775569568285D+00  5.7604030720121D-01
76  7.5000000000000D-01 -1.0485197180731D+00  6.2251088076431D-01
77  7.6000000000000D-01 -1.0186356626294D+00  6.6887946369506D-01
78  7.7000000000000D-01 -9.8797755895768D-01  7.1503233956060D-01
79  7.8000000000000D-01 -9.5662066306672D-01  7.6085467445708D-01
80  7.9000000000000D-01 -9.2464238827076D-01  8.0623087592420D-01
81  8.0000000000000D-01 -8.9212190959876D-01  8.5104506431731D-01
82  8.1000000000000D-01 -8.5913981502153D-01  8.9518140619710D-01
83  8.2000000000000D-01 -8.2577770976610D-01  9.3852454496464D-01
84  8.3000000000000D-01 -7.9211781668274D-01  9.8096002022035D-01
85  8.4000000000000D-01 -7.5824257125061D-01  1.0223746897326D+00
86  8.5000000000000D-01 -7.2423421392787D-01  1.0626571539912D+00
87  8.6000000000000D-01 -6.9017438331320D-01  1.1016981815847D+00
88  8.7000000000000D-01 -6.5614371359961D-01  1.1393911335825D+00
89  8.8000000000000D-01 -6.2222143978107D-01  1.1756323850442D+00
90  8.9000000000000D-01 -5.8848501401815D-01  1.2103217417245D+00
91  9.0000000000000D-01 -5.5500974407145D-01  1.2433628401846D+00
92  9.1000000000000D-01 -5.2186848563163D-01  1.2746634926582D+00
93  9.2000000000000D-01 -4.8913115175206D-01  1.3041362823638D+00
94  9.3000000000000D-01 -4.5686455680407D-01  1.3316987452056D+00
95  9.4000000000000D-01 -4.2513208635448D-01  1.3572737957371D+00
96  9.5000000000000D-01 -3.9399344261761D-01  1.3807900748303D+00
97  9.6000000000000D-01 -3.6350442032547D-01  1.4021822784125D+00
98  9.7000000000000D-01 -3.3371671475041D-01  1.4213914651784D+00
99  9.8000000000000D-01 -3.0467776318774D-01  1.4383653412653D+00
100  9.9000000000000D-01 -2.7643064545493D-01  1.4530584852211D+00
101  1.0000000000000D+00 -2.4901410377387D-01  1.4654324168852D+00
102  1.0100000000000D+00 -2.2246197713154D-01  1.4754565319591D+00
103  1.0200000000000D+00 -1.9680372076547D-01  1.4831075317050D+00
104  1.0300000000000D+00 -1.7206424801113D-01  1.4883698074375D+00
105  1.0400000000000D+00 -1.4826397938363D-01  1.4912355533758D+00
106  1.0500000000000D+00 -1.2541902587579D-01  1.4917046653498D+00
107  1.0600000000000D+00 -1.0354107822577D-01  1.4897851317952D+00
108  1.0700000000000D+00 -8.2637455388266D-02  1.4854932755967D+00
109  1.0800000000000D+00 -6.2711623110077D-02  1.4788531208218D+00
110  1.0900000000000D+00 -4.3763239907223D-02  1.4698965685177D+00
111  1.1000000000000D+00 -2.5788492002392D-02  1.4586629623999D+00
112  1.1100000000000D+00 -8.7798517140263D-03  1.4452000646663D+00
113  1.1200000000000D+00  7.2732227411091D-03  1.4295629864364D+00
114  1.1300000000000D+00  2.2384079926024D-02  1.4118140273126D+00
115  1.1400000000000D+00  3.6568641954196D-02  1.3920223009319D+00
116  1.1500000000000D+00  4.9845311954679D-02  1.3702643544489D+00
117  1.1600000000000D+00  6.2234429503840D-02  1.3466231178268D+00
118  1.1700000000000D+00  7.3758057844014D-02  1.3211875374023D+00
119  1.1800000000000D+00  8.4439902779371D-02  1.2940523247773D+00
120  1.1900000000000D+00  9.4304658673424D-02  1.2653180523441D+00
121  1.2000000000000D+00  1.0337795651887D-01  1.2350899450696D+00
122  1.2100000000000D+00  1.1168633551405D-01  1.2034778901726D+00
123  1.2200000000000D+00  1.1925654640655D-01  1.1705959515846D+00
124  1.2300000000000D+00  1.2611537231037D-01  1.1365614897206D+00
125  1.2400000000000D+00  1.3228993950608D-01  1.1014952038564D+00
126  1.2500000000000D+00  1.3780707389349D-01  1.0655204168644D+00
127  1.2600000000000D+00  1.4269275418504D-01  1.0287616912751D+00
128  1.2700000000000D+00  1.4697300014919D-01  9.9134573118621D-01
129  1.2800000000000D+00  1.5067306460004D-01  9.5340015090246D-01
130  1.2900000000000D+00  1.5381682319737D-01  9.1505148453661D-01
131  1.3000000000000D+00  1.5642812580006D-01  8.7642752366569D-01
132  1.3100000000000D+00  1.5852949964353D-01  8.3765450690763D-01
133  1.3200000000000D+00  1.6014212541427D-01  7.9885574892283D-01
134  1.3300000000000D+00  1.6128722781036D-01  7.6015537294854D-01
135  1.3400000000000D+00  1.6198407926422D-01  7.2167201110812D-01
136  1.3500000000000D+00  1.6225125914508D-01  6.8352112402947D-01
137  1.3600000000000D+00  1.6210730680811D-01  6.4581830009091D-01
138  1.3700000000000D+00  1.6156852461831D-01  6.0866851413759D-01
139  1.3800000000000D+00  1.6065158394718D-01  5.7217661585871D-01
140  1.3900000000000D+00  1.5937215893314D-01  5.3644122031417D-01
141  1.4000000000000D+00  1.5774504591693D-01  5.0155188996838D-01
142  1.4100000000000D+00  1.5578543039817D-01  4.6759893953639D-01
143  1.4200000000000D+00  1.5350718854791D-01  4.3465764574875D-01
144  1.4300000000000D+00  1.5092469659233D-01  4.0280222683107D-01
145  1.4400000000000D+00  1.4805196428875D-01  3.7209822297997D-01
146  1.4500000000000D+00  1.4490296500778D-01  3.4260020619926D-01
147  1.4600000000000D+00  1.4149206344584D-01  3.1436294296203D-01
148  1.4700000000000D+00  1.3783350144173D-01  2.8742222114174D-01
149  1.4800000000000D+00  1.3394211717257D-01  2.6181582826171D-01
150  1.4900000000000D+00  1.2983296727756D-01  2.3756579285727D-01
151  1.5000000000000D+00  1.2552165238244D-01  2.1468948524370D-01
152  1.5100000000000D+00  1.2102421907866D-01  1.9319587454810D-01
153  1.5200000000000D+00  1.1635727682595D-01  1.7308165426065D-01
154  1.5300000000000D+00  1.1153793992283D-01  1.5434223140210D-01
155  1.5400000000000D+00  1.0658386249863D-01  1.3695473936481D-01
156  1.5500000000000D+00  1.0151320917026D-01  1.2089961130896D-01
157  1.5600000000000D+00  9.6344521907890D-02  1.0613732674311D-01
158  1.5700000000000D+00  9.1096868753865D-02  9.2630988268154D-02
159  1.5800000000000D+00  8.5790261948870D-02  8.0331747995323D-02
160  1.5900000000000D+00  8.0445338795104D-02  6.9190658777460D-02
161  1.6000000000000D+00  7.5084081306993D-02  5.9153747871031D-02
162  1.6100000000000D+00  6.9729019911098D-02  5.0165469033700D-02
163  1.6200000000000D+00  6.4403686724457D-02  4.2167185777063D-02
164  1.6300000000000D+00  5.9131994971278D-02  3.5099139953253D-02
165  1.6400000000000D+00  5.3938594524611D-02  2.8899327476991D-02
166  1.6500000000000D+00  4.8848075050648D-02  2.3505933756120D-02
167  1.6600000000000D+00  4.3885652135520D-02  1.8855194342850D-02
168  1.6700000000000D+00  3.9075805647067D-02  1.4885292701804D-02
169  1.6800000000000D+00  3.4443623933743D-02  1.1532497639809D-02
170  1.6900000000000D+00  3.0012677782167D-02  8.7368421802253D-03
171  1.7000000000000D+00  2.5807104285515D-02  6.4365700919436D-03
172  1.7100000000000D+00  2.1848816937650D-02  4.5751315219811D-03
173  1.7200000000000D+00  1.8160067877244D-02  3.0947815361501D-03
174  1.7300000000000D+00  1.4760471644895D-02  1.9436148012481D-03
175  1.7400000000000D+00  1.1669387479848D-02  1.0699575276435D-03
176  1.7500000000000D+00  8.9036350858927D-03  4.2741197573890D-04
177  1.7600000000000D+00  6.4786519506731D-03 -2.7636509084277D-05
178  1.7700000000000D+00  4.4081270903481D-03 -3.3556128697624D-04
179  1.7800000000000D+00  2.7026018705606D-03 -5.3012954487724D-04
180  1.7900000000000D+00  1.3724404101995D-03 -6.4545012621581D-04
181  1.8000000000000D+00  4.3166206557626D-04 -7.1611881193178D-04
182  1.8100000000000D+00 -1.0417078263630D-04 -7.8124770866677D-04
183  1.8200000000000D+00 -3.1904680248533D-04 -7.2793535058334D-04
184  1.8300000000000D+00 -2.2578461362798D-04 -3.9081616202832D-04
185  1.8400000000000D+00 -2.5297279854566D-05 -3.8111909291524D-05
186  1.8500000000000D+00  2.1204915110402D-05  4.9584656346248D-05
187  1.8600000000000D+00  8.2714826359090D-06  1.9341677240402D-05
188  1.8700000000000D+00  0.0000000000000D+00  0.0000000000000D+00
189  1.8800000000000D+00  0.0000000000000D+00  0.0000000000000D+00
190  1.8900000000000D+00  0.0000000000000D+00  0.0000000000000D+00
191  1.9000000000000D+00  0.0000000000000D+00  0.0000000000000D+00
192  1.9100000000000D+00  0.0000000000000D+00  0.0000000000000D+00
193  1.9200000000000D+00  0.0000000000000D+00  0.0000000000000D+00
194  1.9300000000000D+00  0.0000000000000D+00  0.0000000000000D+00
195  1.9400000000000D+00  0.0000000000000D+00  0.0000000000000D+00
196  1.9500000000000D+00  0.0000000000000D+00  0.0000000000000D+00
197  1.9600000000000D+00  0.0000000000000D+00  0.0000000000000D+00
198  1.9700000000000D+00  0.0000000000000D+00  0.0000000000000D+00
199  1.9800000000000D+00  0.0000000000000D+00  0.0000000000000D+00
200  1.9900000000000D+00  0.0000000000000D+00  0.0000000000000D+00
201  2.0000000000000D+00  0.0000000000000D+00  0.0000000000000D+00
202  2.0100000000000D+00  0.0000000000000D+00  0.0000000000000D+00
203  2.0200000000000D+00  0.0000000000000D+00  0.0000000000000D+00
204  2.0300000000000D+00  0.0000000000000D+00  0.0000000000000D+00
205  2.0400000000000D+00  0.0000000000000D+00  0.0000000000000D+00
206  2.0500000000000D+00  0.0000000000000D+00  0.0000000000000D+00
207  2.0600000000000D+00  0.0000000000000D+00  0.0000000000000D+00
208  2.0700000000000D+00  0.0000000000000D+00  0.0000000000000D+00
209  2.0800000000000D+00  0.0000000000000D+00  0.0000000000000D+00
210  2.0900000000000D+00  0.0000000000000D+00  0.0000000000000D+00
211  2.1000000000000D+00  0.0000000000000D+00  0.0000000000000D+00
212  2.1100000000000D+00  0.0000000000000D+00  0.0000000000000D+00
213  2.1200000000000D+00  0.0000000000000D+00  0.0000000000000D+00
214  2.1300000000000D+00  0.0000000000000D+00  0.0000000000000D+00
215  2.1400000000000D+00  0.0000000000000D+00  0.0000000000000D+00
216  2.1500000000000D+00  0.0000000000000D+00  0.0000000000000D+00
217  2.1600000000000D+00  0.0000000000000D+00  0.0000000000000D+00
218  2.1700000000000D+00  0.0000000000000D+00  0.0000000000000D+00
219  2.1800000000000D+00  0.0000000000000D+00  0.0000000000000D+00
220  2.1900000000000D+00  0.0000000000000D+00  0.0000000000000D+00
221  2.2000000000000D+00  0.0000000000000D+00  0.0000000000000D+00
222  2.2100000000000D+00  0.0000000000000D+00  0.0000000000000D+00
223  2.2200000000000D+00  0.0000000000000D+00  0.0000000000000D+00
224  2.2300000000000D+00  0.0000000000000D+00  0.0000000000000D+00
225  2.2400000000000D+00  0.0000000000000D+00  0.0000000000000D+00
226  2.2500000000000D+00  0.0000000000000D+00  0.0000000000000D+00
227  2.2600000000000D+00  0.0000000000000D+00  0.0000000000000D+00
228  2.2700000000000D+00  0.0000000000000D+00  0.0000000000000D+00
229  2.2800000000000D+00  0.0000000000000D+00  0.0000000000000D+00
230  2.2900000000000D+00  0.0000000000000D+00  0.0000000000000D+00
231  2.3000000000000D+00  0.0000000000000D+00  0.0000000000000D+00
232  2.3100000000000D+00  0.0000000000000D+00  0.0000000000000D+00
233  2.3200000000000D+00  0.0000000000000D+00  0.0000000000000D+00
234  2.3300000000000D+00  0.0000000000000D+00  0.0000000000000D+00
235  2.3400000000000D+00  0.0000000000000D+00  0.0000000000000D+00
236  2.3500000000000D+00  0.0000000000000D+00  0.0000000000000D+00
237  2.3600000000000D+00  0.0000000000000D+00  0.0000000000000D+00
238  2.3700000000000D+00  0.0000000000000D+00  0.0000000000000D+00
239  2.3800000000000D+00  0.0000000000000D+00  0.0000000000000D+00
240  2.3900000000000D+00  0.0000000000000D+00  0.0000000000000D+00
241  2.4000000000000D+00  0.0000000000000D+00  0.0000000000000D+00
242  2.4100000000000D+00  0.0000000000000D+00  0.0000000000000D+00
243  2.4200000000000D+00  0.0000000000000D+00  0.0000000000000D+00
244  2.4300000000000D+00  0.0000000000000D+00  0.0000000000000D+00
245  2.4400000000000D+00  0.0000000000000D+00  0.0000000000000D+00
246  2.4500000000000D+00  0.0000000000000D+00  0.0000000000000D+00
247  2.4600000000000D+00  0.0000000000000D+00  0.0000000000000D+00
248  2.4700000000000D+00  0.0000000000000D+00  0.0000000000000D+00
249  2.4800000000000D+00  0.0000000000000D+00  0.0000000000000D+00
250  2.4900000000000D+00  0.0000000000000D+00  0.0000000000000D+00
251  2.5000000000000D+00  0.0000000000000D+00  0.0000000000000D+00
252  2.5100000000000D+00  0.0000000000000D+00  0.0000000000000D+00
253  2.5200000000000D+00  0.0000000000000D+00  0.0000000000000D+00
254  2.5300000000000D+00  0.0000000000000D+00  0.0000000000000D+00
255  2.5400000000000D+00  0.0000000000000D+00  0.0000000000000D+00
256  2.5500000000000D+00  0.0000000000000D+00  0.0000000000000D+00
257  2.5600000000000D+00  0.0000000000000D+00  0.0000000000000D+00
258  2.5700000000000D+00  0.0000000000000D+00  0.0000000000000D+00
259  2.5800000000000D+00  0.0000000000000D+00  0.0000000000000D+00
260  2.5900000000000D+00  0.0000000000000D+00  0.0000000000000D+00
261  2.6000000000000D+00  0.0000000000000D+00  0.0000000000000D+00
262  2.6100000000000D+00  0.0000000000000D+00  0.0000000000000D+00
263  2.6200000000000D+00  0.0000000000000D+00  0.0000000000000D+00
264  2.6300000000000D+00  0.0000000000000D+00  0.0000000000000D+00
265  2.6400000000000D+00  0.0000000000000D+00  0.0000000000000D+00
266  2.6500000000000D+00  0.0000000000000D+00  0.0000000000000D+00
267  2.6600000000000D+00  0.0000000000000D+00  0.0000000000000D+00
268  2.6700000000000D+00  0.0000000000000D+00  0.0000000000000D+00
269  2.6800000000000D+00  0.0000000000000D+00  0.0000000000000D+00
270  2.6900000000000D+00  0.0000000000000D+00  0.0000000000000D+00
271  2.7000000000000D+00  0.0000000000000D+00  0.0000000000000D+00
272  2.7100000000000D+00  0.0000000000000D+00  0.0000000000000D+00
273  2.7200000000000D+00  0.0000000000000D+00  0.0000000000000D+00
274  2.7300000000000D+00  0.0000000000000D+00  0.0000000000000D+00
275  2.7400000000000D+00  0.0000000000000D+00  0.0000000000000D+00
276  2.7500000000000D+00  0.0000000000000D+00  0.0000000000000D+00
277  2.7600000000000D+00  0.0000000000000D+00  0.0000000000000D+00
278  2.7700000000000D+00  0.0000000000000D+00  0.0000000000000D+00
279  2.7800000000000D+00  0.0000000000000D+00  0.0000000000000D+00
280  2.7900000000000D+00  0.0000000000000D+00  0.0000000000000D+00
281  2.8000000000000D+00  0.0000000000000D+00  0.0000000000000D+00
282  2.8100000000000D+00  0.0000000000000D+00  0.0000000000000D+00
283  2.8200000000000D+00  0.0000000000000D+00  0.0000000000000D+00
284  2.8300000000000D+00  0.0000000000000D+00  0.0000000000000D+00
285  2.8400000000000D+00  0.0000000000000D+00  0.0000000000000D+00
286  2.8500000000000D+00  0.0000000000000D+00  0.0000000000000D+00
287  2.8600000000000D+00  0.0000000000000D+00  0.0000000000000D+00
288  2.8700000000000D+00  0.0000000000000D+00  0.0000000000000D+00
289  2.8800000000000D+00  0.0000000000000D+00  0.0000000000000D+00
290  2.8900000000000D+00  0.0000000000000D+00  0.0000000000000D+00
291  2.9000000000000D+00  0.0000000000000D+00  0.0000000000000D+00
292  2.9100000000000D+00  0.0000000000000D+00  0.0000000000000D+00
293  2.9200000000000D+00  0.0000000000000D+00  0.0000000000000D+00
294  2.9300000000000D+00  0.0000000000000D+00  0.0000000000000D+00
295  2.9400000000000D+00  0.0000000000000D+00  0.0000000000000D+00
296  2.9500000000000D+00  0.0000000000000D+00  0.0000000000000D+00
297  2.9600000000000D+00  0.0000000000000D+00  0.0000000000000D+00
298  2.9700000000000D+00  0.0000000000000D+00  0.0000000000000D+00
299  2.9800000000000D+00  0.0000000000000D+00  0.0000000000000D+00
300  2.9900000000000D+00  0.0000000000000D+00  0.0000000000000D+00
301  3.0000000000000D+00  0.0000000000000D+00  0.0000000000000D+00
302  3.0100000000000D+00  0.0000000000000D+00  0.0000000000000D+00
303  3.0200000000000D+00  0.0000000000000D+00  0.0000000000000D+00
304  3.0300000000000D+00  0.0000000000000D+00  0.0000000000000D+00
305  3.0400000000000D+00  0.0000000000000D+00  0.0000000000000D+00
306  3.0500000000000D+00  0.0000000000000D+00  0.0000000000000D+00
307  3.0600000000000D+00  0.0000000000000D+00  0.0000000000000D+00
308  3.0700000000000D+00  0.0000000000000D+00  0.0000000000000D+00
309  3.0800000000000D+00  0.0000000000000D+00  0.0000000000000D+00
310  3.0900000000000D+00  0.0000000000000D+00  0.0000000000000D+00
311  3.1000000000000D+00  0.0000000000000D+00  0.0000000000000D+00
312  3.1100000000000D+00  0.0000000000000D+00  0.0000000000000D+00
313  3.1200000000000D+00  0.0000000000000D+00  0.0000000000000D+00
314  3.1300000000000D+00  0.0000000000000D+00  0.0000000000000D+00
315  3.1400000000000D+00  0.0000000000000D+00  0.0000000000000D+00
316  3.1500000000000D+00  0.0000000000000D+00  0.0000000000000D+00
317  3.1600000000000D+00  0.0000000000000D+00  0.0000000000000D+00
318  3.1700000000000D+00  0.0000000000000D+00  0.0000000000000D+00
319  3.1800000000000D+00  0.0000000000000D+00  0.0000000000000D+00
320  3.1900000000000D+00  0.0000000000000D+00  0.0000000000000D+00
321  3.2000000000000D+00  0.0000000000000D+00  0.0000000000000D+00
322  3.2100000000000D+00  0.0000000000000D+00  0.0000000000000D+00
323  3.2200000000000D+00  0.0000000000000D+00  0.0000000000000D+00
324  3.2300000000000D+00  0.0000000000000D+00  0.0000000000000D+00
325  3.2400000000000D+00  0.0000000000000D+00  0.0000000000000D+00
326  3.2500000000000D+00  0.0000000000000D+00  0.0000000000000D+00
327  3.2600000000000D+00  0.0000000000000D+00  0.0000000000000D+00
328  3.2700000000000D+00  0.0000000000000D+00  0.0000000000000D+00
329  3.2800000000000D+00  0.0000000000000D+00  0.0000000000000D+00
330  3.2900000000000D+00  0.0000000000000D+00  0.0000000000000D+00
331  3.3000000000000D+00  0.0000000000000D+00  0.0000000000000D+00
332  3.3100000000000D+00  0.0000000000000D+00  0.0000000000000D+00
333  3.3200000000000D+00  0.0000000000000D+00  0.0000000000000D+00
334  3.3300000000000D+00  0.0000000000000D+00  0.0000000000000D+00
335  3.3400000000000D+00  0.0000000000000D+00  0.0000000000000D+00
336  3.3500000000000D+00  0.0000000000000D+00  0.0000000000000D+00
337  3.3600000000000D+00  0.0000000000000D+00  0.0000000000000D+00
338  3.3700000000000D+00  0.0000000000000D+00  0.0000000000000D+00
339  3.3800000000000D+00  0.0000000000000D+00  0.0000000000000D+00
340  3.3900000000000D+00  0.0000000000000D+00  0.0000000000000D+00
341  3.4000000000000D+00  0.0000000000000D+00  0.0000000000000D+00
342  3.4100000000000D+00  0.0000000000000D+00  0.0000000000000D+00
343  3.4200000000000D+00  0.0000000000000D+00  0.0000000000000D+00
344  3.4300000000000D+00  0.0000000000000D+00  0.0000000000000D+00
345  3.4400000000000D+00  0.0000000000000D+00  0.0000000000000D+00
346  3.4500000000000D+00  0.0000000000000D+00  0.0000000000000D+00
347  3.4600000000000D+00  0.0000000000000D+00  0.0000000000000D+00
348  3.4700000000000D+00  0.0000000000000D+00  0.0000000000000D+00
349  3.4800000000000D+00  0.0000000000000D+00  0.0000000000000D+00
350  3.4900000000000D+00  0.0000000000000D+00  0.0000000000000D+00
351  3.5000000000000D+00  0.0000000000000D+00  0.0000000000000D+00
352  3.5100000000000D+00  0.0000000000000D+00  0.0000000000000D+00
353  3.5200000000000D+00  0.0000000000000D+00  0.0000000000000D+00
354  3.5300000000000D+00  0.0000000000000D+00  0.0000000000000D+00
355  3.5400000000000D+00  0.0000000000000D+00  0.0000000000000D+00
356  3.5500000000000D+00  0.0000000000000D+00  0.0000000000000D+00
357  3.5600000000000D+00  0.0000000000000D+00  0.0000000000000D+00
358  3.5700000000000D+00  0.0000000000000D+00  0.0000000000000D+00
359  3.5800000000000D+00  0.0000000000000D+00  0.0000000000000D+00
360  3.5900000000000D+00  0.0000000000000D+00  0.0000000000000D+00
361  3.6000000000000D+00  0.0000000000000D+00  0.0000000000000D+00
362  3.6100000000000D+00  0.0000000000000D+00  0.0000000000000D+00
363  3.6200000000000D+00  0.0000000000000D+00  0.0000000000000D+00
364  3.6300000000000D+00  0.0000000000000D+00  0.0000000000000D+00
365  3.6400000000000D+00  0.0000000000000D+00  0.0000000000000D+00
366  3.6500000000000D+00  0.0000000000000D+00  0.0000000000000D+00
367  3.6600000000000D+00  0.0000000000000D+00  0.0000000000000D+00
368  3.6700000000000D+00  0.0000000000000D+00  0.0000000000000D+00
369  3.6800000000000D+00  0.0000000000000D+00  0.0000000000000D+00
370  3.6900000000000D+00  0.0000000000000D+00  0.0000000000000D+00
371  3.7000000000000D+00  0.0000000000000D+00  0.0000000000000D+00
372  3.7100000000000D+00  0.0000000000000D+00  0.0000000000000D+00
373  3.7200000000000D+00  0.0000000000000D+00  0.0000000000000D+00
374  3.7300000000000D+00  0.0000000000000D+00  0.0000000000000D+00
375  3.7400000000000D+00  0.0000000000000D+00  0.0000000000000D+00
376  3.7500000000000D+00  0.0000000000000D+00  0.0000000000000D+00
377  3.7600000000000D+00  0.0000000000000D+00  0.0000000000000D+00
378  3.7700000000000D+00  0.0000000000000D+00  0.0000000000000D+00
379  3.7800000000000D+00  0.0000000000000D+00  0.0000000000000D+00
380  3.7900000000000D+00  0.0000000000000D+00  0.0000000000000D+00
381  3.8000000000000D+00  0.0000000000000D+00  0.0000000000000D+00
382  3.8100000000000D+00  0.0000000000000D+00  0.0000000000000D+00
383  3.8200000000000D+00  0.0000000000000D+00  0.0000000000000D+00
384  3.8300000000000D+00  0.0000000000000D+00  0.0000000000000D+00
385  3.8400000000000D+00  0.0000000000000D+00  0.0000000000000D+00
386  3.8500000000000D+00  0.0000000000000D+00  0.0000000000000D+00
387  3.8600000000000D+00  0.0000000000000D+00  0.0000000000000D+00
388  3.8700000000000D+00  0.0000000000000D+00  0.0000000000000D+00
389  3.8800000000000D+00  0.0000000000000D+00  0.0000000000000D+00
390  3.8900000000000D+00  0.0000000000000D+00  0.0000000000000D+00
391  3.9000000000000D+00  0.0000000000000D+00  0.0000000000000D+00
392  3.9100000000000D+00  0.0000000000000D+00  0.0000000000000D+00
393  3.9200000000000D+00  0.0000000000000D+00  0.0000000000000D+00
394  3.9300000000000D+00  0.0000000000000D+00  0.0000000000000D+00
395  3.9400000000000D+00  0.0000000000000D+00  0.0000000000000D+00
396  3.9500000000000D+00  0.0000000000000D+00  0.0000000000000D+00
397  3.9600000000000D+00  0.0000000000000D+00  0.0000000000000D+00
398  3.9700000000000D+00  0.0000000000000D+00  0.0000000000000D+00
399  3.9800000000000D+00  0.0000000000000D+00  0.0000000000000D+00
400  3.9900000000000D+00  0.0000000000000D+00  0.0000000000000D+00
401  4.0000000000000D+00  0.0000000000000D+00  0.0000000000000D+00
402  4.0100000000000D+00  0.0000000000000D+00  0.0000000000000D+00
403  4.0200000000000D+00  0.0000000000000D+00  0.0000000000000D+00
404  4.0300000000000D+00  0.0000000000000D+00  0.0000000000000D+00
405  4.0400000000000D+00  0.0000000000000D+00  0.0000000000000D+00
406  4.0500000000000D+00  0.0000000000000D+00  0.0000000000000D+00
407  4.0600000000000D+00  0.0000000000000D+00  0.0000000000000D+00
408  4.0700000000000D+00  0.0000000000000D+00  0.0000000000000D+00
409  4.0800000000000D+00  0.0000000000000D+00  0.0000000000000D+00
410  4.0900000000000D+00  0.0000000000000D+00  0.0000000000000D+00
411  4.1000000000000D+00  0.0000000000000D+00  0.0000000000000D+00
412  4.1100000000000D+00  0.0000000000000D+00  0.0000000000000D+00
413  4.1200000000000D+00  0.0000000000000D+00  0.0000000000000D+00
414  4.1300000000000D+00  0.0000000000000D+00  0.0000000000000D+00
415  4.1400000000000D+00  0.0000000000000D+00  0.0000000000000D+00
416  4.1500000000000D+00  0.0000000000000D+00  0.0000000000000D+00
417  4.1600000000000D+00  0.0000000000000D+00  0.0000000000000D+00
418  4.1700000000000D+00  0.0000000000000D+00  0.0000000000000D+00
419  4.1800000000000D+00  0.0000000000000D+00  0.0000000000000D+00
420  4.1900000000000D+00  0.0000000000000D+00  0.0000000000000D+00
421  4.2000000000000D+00  0.0000000000000D+00  0.0000000000000D+00
422  4.2100000000000D+00  0.0000000000000D+00  0.0000000000000D+00
423  4.2200000000000D+00  0.0000000000000D+00  0.0000000000000D+00
424  4.2300000000000D+00  0.0000000000000D+00  0.0000000000000D+00
425  4.2400000000000D+00  0.0000000000000D+00  0.0000000000000D+00
426  4.2500000000000D+00  0.0000000000000D+00  0.0000000000000D+00
427  4.2600000000000D+00  0.0000000000000D+00  0.0000000000000D+00
428  4.2700000000000D+00  0.0000000000000D+00  0.0000000000000D+00
429  4.2800000000000D+00  0.0000000000000D+00  0.0000000000000D+00
430  4.2900000000000D+00  0.0000000000000D+00  0.0000000000000D+00
431  4.3000000000000D+00  0.0000000000000D+00  0.0000000000000D+00
432  4.3100000000000D+00  0.0000000000000D+00  0.0000000000000D+00
433  4.3200000000000D+00  0.0000000000000D+00  0.0000000000000D+00
434  4.3300000000000D+00  0.0000000000000D+00  0.0000000000000D+00
435  4.3400000000000D+00  0.0000000000000D+00  0.0000000000000D+00
436  4.3500000000000D+00  0.0000000000000D+00  0.0000000000000D+00
437  4.3600000000000D+00  0.0000000000000D+00  0.0000000000000D+00
438  4.3700000000000D+00  0.0000000000000D+00  0.0000000000000D+00
439  4.3800000000000D+00  0.0000000000000D+00  0.0000000000000D+00
440  4.3900000000000D+00  0.0000000000000D+00  0.0000000000000D+00
441  4.4000000000000D+00  0.0000000000000D+00  0.0000000000000D+00
442  4.4100000000000D+00  0.0000000000000D+00  0.0000000000000D+00
443  4.4200000000000D+00  0.0000000000000D+00  0.0000000000000D+00
444  4.4300000000000D+00  0.0000000000000D+00  0.0000000000000D+00