Ca    ONCVPSP-3.2.3  r_core=   1.45885   1.45885   1.85192
20.0000     10.0000      170211    zatom,zion,pspd
8      11   2     4   400     0    pspcod,pspxc,lmax,lloc,mmax,r2well
3.99000000  6.00000000  0.00000000    rchrg fchrg qchrg
2     3     2     0    nproj
3     1           extension_switch
4     3     0    nprojso
0                         8.8979355634193D-01  9.7372252868610D+00
1  0.0000000000000D+00  2.4761837025267D-09 -5.7971105693611D-10
2  1.0000000000000D-02 -3.9804805708901D-02  6.9850970527324D-02
3  2.0000000000000D-02 -7.9298528000447D-02  1.3953425057833D-01
4  3.0000000000000D-02 -1.1817337992098D-01  2.0888309224941D-01
5  4.0000000000000D-02 -1.5612812242507D-01  2.7773262203890D-01
6  5.0000000000000D-02 -1.9287122642304D-01  3.4592075133943D-01
7  6.0000000000000D-02 -2.2812390232714D-01  4.1328905529834D-01
8  7.0000000000000D-02 -2.6162295588018D-01  4.7968361019300D-01
9  8.0000000000000D-02 -2.9312343152672D-01  5.4495578004792D-01
10  9.0000000000000D-02 -3.2240100761656D-01  6.0896294392933D-01
11  1.0000000000000D-01 -3.4925411127157D-01  6.7156915618200D-01
12  1.1000000000000D-01 -3.7350572474893D-01  7.3264573280934D-01
13  1.2000000000000D-01 -3.9500485954242D-01  7.9207175822913D-01
14  1.3000000000000D-01 -4.1362767921445D-01  8.4973450774832D-01
15  1.4000000000000D-01 -4.2927825698046D-01  9.0552978227569D-01
16  1.5000000000000D-01 -4.4188895930088D-01  9.5936215301451D-01
17  1.6000000000000D-01 -4.5142045210306D-01  1.0111451151305D+00
18  1.7000000000000D-01 -4.5786133167734D-01  1.0608011506559D+00
19  1.8000000000000D-01 -4.6122738769341D-01  1.1082617021519D+00
20  1.9000000000000D-01 -4.6156051108693D-01  1.1534670598849D+00
21  2.0000000000000D-01 -4.5892726469652D-01  1.1963661664714D+00
22  2.1000000000000D-01 -4.5341713941479D-01  1.2369163440782D+00
23  2.2000000000000D-01 -4.4514052318210D-01  1.2750829503279D+00
24  2.3000000000000D-01 -4.3422641433388D-01  1.3108389700288D+00
25  2.4000000000000D-01 -4.2081991454855D-01  1.3441645507144D+00
26  2.5000000000000D-01 -4.0507953987977D-01  1.3750464907236D+00
27  2.6000000000000D-01 -3.8717439104452D-01  1.4034776891715D+00
28  2.7000000000000D-01 -3.6728122623649D-01  1.4294565676423D+00
29  2.8000000000000D-01 -3.4558148121075D-01  1.4529864737657D+00
30  2.9000000000000D-01 -3.2225828221512D-01  1.4740750770251D+00
31  3.0000000000000D-01 -2.9749349751090D-01  1.4927337671704D+00
32  3.1000000000000D-01 -2.7146487272702D-01  1.5089770654800D+00
33  3.2000000000000D-01 -2.4434329412644D-01  1.5228220588366D+00
34  3.3000000000000D-01 -2.1629022204969D-01  1.5342878661418D+00
35  3.4000000000000D-01 -1.8745533435510D-01  1.5433951460184D+00
36  3.5000000000000D-01 -1.5797441663414D-01  1.5501656540278D+00
37  3.6000000000000D-01 -1.2796753237993D-01  1.5546218567820D+00
38  3.7000000000000D-01 -9.7537502177300D-02  1.5567866093669D+00
39  3.8000000000000D-01 -6.6768716420079D-02  1.5566829014228D+00
40  3.9000000000000D-01 -3.5726301105317D-02  1.5543336760728D+00
41  4.0000000000000D-01 -4.4556509779033D-03  1.5497617246594D+00
42  4.1000000000000D-01  2.7017661227883D-02  1.5429896589653D+00
43  4.2000000000000D-01  5.8687596400301D-02  1.5340399612759D+00
44  4.3000000000000D-01  9.0566984252971D-02  1.5229351113008D+00
45  4.4000000000000D-01  1.2268649064952D-01  1.5096977876418D+00
46  4.5000000000000D-01  1.5509323129815D-01  1.4943511401774D+00
47  4.6000000000000D-01  1.8784905162065D-01  1.4769191284701D+00
48  4.7000000000000D-01  2.2102849791431D-01  1.4574269200898D+00
49  4.8000000000000D-01  2.5471650991771D-01  1.4359013416222D+00
50  4.9000000000000D-01  2.8900586948776D-01  1.4123713740988D+00
51  5.0000000000000D-01  3.2399444422269D-01  1.3868686836697D+00
52  5.1000000000000D-01  3.5978226846380D-01  1.3594281775540D+00
53  5.2000000000000D-01  3.9646850711629D-01  1.3300885746553D+00
54  5.3000000000000D-01  4.3414835009834D-01  1.2988929797428D+00
55  5.4000000000000D-01  4.7290988691884D-01  1.2658894497658D+00
56  5.5000000000000D-01  5.1283101186231D-01  1.2311315407136D+00
57  5.6000000000000D-01  5.5397641050647D-01  1.1946788234482D+00
58  5.7000000000000D-01  5.9639467780088D-01  1.1565973571283D+00
59  5.8000000000000D-01  6.4011561669143D-01  1.1169601092141D+00
60  5.9000000000000D-01  6.8514776429929D-01  1.0758473115822D+00
61  6.0000000000000D-01  7.3147618997118D-01  1.0333467429904D+00
62  6.1000000000000D-01  7.7906060613684D-01  9.8955392900281D-01
63  6.2000000000000D-01  8.2783382890347D-01  9.4457225150145D-01
64  6.3000000000000D-01  8.7770062068582D-01  8.9851296107154D-01
65  6.4000000000000D-01  9.2853694205166D-01  8.5149508681910D-01
66  6.5000000000000D-01  9.8018963433847D-01  8.0364523956696D-01
67  6.6000000000000D-01  1.0324765485996D+00  7.5509730584507D-01
68  6.7000000000000D-01  1.0851871301552D+00  7.0599203162279D-01
69  6.8000000000000D-01  1.1380834614790D+00  6.5647649631817D-01
70  6.9000000000000D-01  1.1909017595107D+00  6.0670347922184D-01
71  7.0000000000000D-01  1.2433543167893D+00  5.5683072208219D-01
72  7.1000000000000D-01  1.2951318692059D+00  5.0702009317488D-01
73  7.2000000000000D-01  1.3459063666654D+00  4.5743665972869D-01
74  7.3000000000000D-01  1.3953341167618D+00  4.0824767704210D-01
75  7.4000000000000D-01  1.4430592656909D+00  3.5962150400773D-01
76  7.5000000000000D-01  1.4887175751743D+00  3.1172645603221D-01
77  7.6000000000000D-01  1.5319404492646D+00  2.6472960747349D-01
78  7.7000000000000D-01  1.5723591605421D+00  2.1879555671115D-01
79  7.8000000000000D-01  1.6096092215527D+00  1.7408516778770D-01
80  7.9000000000000D-01  1.6433348443799D+00  1.3075430320369D-01
81  8.0000000000000D-01  1.6731934290534D+00  8.8952562905302D-02
82  8.1000000000000D-01  1.6988600201284D+00  4.8822044757033D-02
83  8.2000000000000D-01  1.7200316702255D+00  1.0496141841610D-02
84  8.3000000000000D-01  1.7364316496466D+00 -2.5901608231864D-02
85  8.4000000000000D-01  1.7478134423562D+00 -6.0258607200982D-02
86  8.5000000000000D-01  1.7539644706519D+00 -9.2474198972195D-02
87  8.6000000000000D-01  1.7547094937114D+00 -1.2246057794039D-01
88  8.7000000000000D-01  1.7499136288702D+00 -1.5014359032826D-01
89  8.8000000000000D-01  1.7394849489067D+00 -1.7546341722483D-01
90  8.9000000000000D-01  1.7233766137362D+00 -1.9837512932734D-01
91  9.0000000000000D-01  1.7015885006796D+00 -2.1884910486844D-01
92  9.1000000000000D-01  1.6741683037933D+00 -2.3687130382093D-01
93  9.2000000000000D-01  1.6412120795488D+00 -2.5244339319494D-01
94  9.3000000000000D-01  1.6028642233352D+00 -2.6558272005508D-01
95  9.4000000000000D-01  1.5593168687301D+00 -2.7632213076213D-01
96  9.5000000000000D-01  1.5108087091412D+00 -2.8470963686150D-01
97  9.6000000000000D-01  1.4576232491390D+00 -2.9080792996829D-01
98  9.7000000000000D-01  1.4000865005709D+00 -2.9469374993255D-01
99  9.8000000000000D-01  1.3385641459631D+00 -2.9645711241191D-01
100  9.9000000000000D-01  1.2734581991604D+00 -2.9620040382190D-01
101  1.0000000000000D+00  1.2052032000671D+00 -2.9403735334453D-01
102  1.0100000000000D+00  1.1342619868202D+00 -2.9009189326953D-01
103  1.0200000000000D+00  1.0611210946914D+00 -2.8449692041080D-01
104  1.0300000000000D+00  9.8628583630073D-01 -2.7739297263623D-01
105  1.0400000000000D+00  9.1027512238435D-01 -2.6892683568750D-01
106  1.0500000000000D+00  8.3361608589126D-01 -2.5925009632594D-01
107  1.0600000000000D+00  7.5683857549841D-01 -2.4851765864041D-01
108  1.0700000000000D+00  6.8046958636345D-01 -2.3688624076397D-01
109  1.0800000000000D+00  6.0502769718530D-01 -2.2451286953546D-01
110  1.0900000000000D+00  5.3101758258147D-01 -2.1155339060595D-01
111  1.1000000000000D+00  4.5892466931616D-01 -1.9816101135591D-01
112  1.1100000000000D+00  3.8921000280018D-01 -1.8448489344229D-01
113  1.1200000000000D+00  3.2230538775963D-01 -1.7066881115479D-01
114  1.1300000000000D+00  2.5860886292049D-01 -1.5684989073851D-01
115  1.1400000000000D+00  1.9848056575219D-01 -1.4315744488473D-01
116  1.1500000000000D+00  1.4223903755474D-01 -1.2971191514920D-01
117  1.1600000000000D+00  9.0158013121541D-02 -1.1662393354669D-01
118  1.1700000000000D+00  4.2463731857337D-02 -1.0399351273808D-01
119  1.1800000000000D+00 -6.6719790487445D-04 -9.1909372947347D-02
120  1.1900000000000D+00 -3.9109359736354D-02 -8.0448411235312D-02
121  1.2000000000000D+00 -7.2789500701571D-02 -6.9675316955332D-02
122  1.2100000000000D+00 -1.0168690781957D-01 -5.9642335103300D-02
123  1.2200000000000D+00 -1.2583318993730D-01 -5.0389177679946D-02
124  1.2300000000000D+00 -1.4531147767850D-01 -4.1943080177076D-02
125  1.2400000000000D+00 -1.6025506136796D-01 -3.4318998505855D-02
126  1.2500000000000D+00 -1.7084549056156D-01 -2.7519940759946D-02
127  1.2600000000000D+00 -1.7731017374920D-01 -2.1537424504824D-02
128  1.2700000000000D+00 -1.7991952829512D-01 -1.6352047930942D-02
129  1.2800000000000D+00 -1.7898367900002D-01 -1.1934172398649D-02
130  1.2900000000000D+00 -1.7484893074270D-01 -8.2446714704554D-03
131  1.3000000000000D+00 -1.6789338965765D-01 -5.2358588482114D-03
132  1.3100000000000D+00 -1.5852429058900D-01 -2.8521178307846D-03
133  1.3200000000000D+00 -1.4717092856452D-01 -1.0313541740055D-03
134  1.3300000000000D+00 -1.3427405379376D-01  2.9289285006908D-04
135  1.3400000000000D+00 -1.2027463379452D-01  1.1891225104363D-03
136  1.3500000000000D+00 -1.0560476469637D-01  1.7259142480384D-03
137  1.3600000000000D+00 -9.0683426212078D-02  1.9708301404447D-03
138  1.3700000000000D+00 -7.5910659206353D-02  1.9890462051443D-03
139  1.3800000000000D+00 -6.1662357726293D-02  1.8421062496630D-03
140  1.3900000000000D+00 -4.8285332593850D-02  1.5867413584925D-03
141  1.4000000000000D+00 -3.6092808567347D-02  1.2737891834791D-03
142  1.4100000000000D+00 -2.5363337522994D-02  9.4735687050077D-04
143  1.4200000000000D+00 -1.6328291389820D-02  6.4354707621134D-04
144  1.4300000000000D+00 -9.1315741503179D-03  3.8751716266164D-04
145  1.4400000000000D+00 -4.0262897609945D-03  2.0438007358064D-04
146  1.4500000000000D+00 -1.2079781227767D-03  1.1120033512726D-04
147  1.4600000000000D+00 -1.2809551563090D-04  6.5669103548044D-05
148  1.4700000000000D+00  5.4420077089182D-05  2.1092760250315D-05
149  1.4800000000000D+00 -2.0116257076514D-05 -4.4840627552978D-06
150  1.4900000000000D+00 -1.8765809541162D-05 -3.1537960068208D-06
151  1.5000000000000D+00  4.0446763523425D-06  1.2790404712769D-06
152  1.5100000000000D+00  1.5482537334737D-06  4.2211822288736D-07
153  1.5200000000000D+00  5.4560005816950D-07 -2.0066800371620D-07
154  1.5300000000000D+00  1.3270113634007D-08 -4.8806578594536D-09
155  1.5400000000000D+00  0.0000000000000D+00  0.0000000000000D+00
156  1.5500000000000D+00  0.0000000000000D+00  0.0000000000000D+00
157  1.5600000000000D+00  0.0000000000000D+00  0.0000000000000D+00
158  1.5700000000000D+00  0.0000000000000D+00  0.0000000000000D+00
159  1.5800000000000D+00  0.0000000000000D+00  0.0000000000000D+00
160  1.5900000000000D+00  0.0000000000000D+00  0.0000000000000D+00
161  1.6000000000000D+00  0.0000000000000D+00  0.0000000000000D+00
162  1.6100000000000D+00  0.0000000000000D+00  0.0000000000000D+00
163  1.6200000000000D+00  0.0000000000000D+00  0.0000000000000D+00
164  1.6300000000000D+00  0.0000000000000D+00  0.0000000000000D+00
165  1.6400000000000D+00  0.0000000000000D+00  0.0000000000000D+00
166  1.6500000000000D+00  0.0000000000000D+00  0.0000000000000D+00
167  1.6600000000000D+00  0.0000000000000D+00  0.0000000000000D+00
168  1.6700000000000D+00  0.0000000000000D+00  0.0000000000000D+00
169  1.6800000000000D+00  0.0000000000000D+00  0.0000000000000D+00
170  1.6900000000000D+00  0.0000000000000D+00  0.0000000000000D+00
171  1.7000000000000D+00  0.0000000000000D+00  0.0000000000000D+00
172  1.7100000000000D+00  0.0000000000000D+00  0.0000000000000D+00
173  1.7200000000000D+00  0.0000000000000D+00  0.0000000000000D+00
174  1.7300000000000D+00  0.0000000000000D+00  0.0000000000000D+00
175  1.7400000000000D+00  0.0000000000000D+00  0.0000000000000D+00
176  1.7500000000000D+00  0.0000000000000D+00  0.0000000000000D+00
177  1.7600000000000D+00  0.0000000000000D+00  0.0000000000000D+00
178  1.7700000000000D+00  0.0000000000000D+00  0.0000000000000D+00
179  1.7800000000000D+00  0.0000000000000D+00  0.0000000000000D+00
180  1.7900000000000D+00  0.0000000000000D+00  0.0000000000000D+00
181  1.8000000000000D+00  0.0000000000000D+00  0.0000000000000D+00
182  1.8100000000000D+00  0.0000000000000D+00  0.0000000000000D+00
183  1.8200000000000D+00  0.0000000000000D+00  0.0000000000000D+00
184  1.8300000000000D+00  0.0000000000000D+00  0.0000000000000D+00
185  1.8400000000000D+00  0.0000000000000D+00  0.0000000000000D+00
186  1.8500000000000D+00  0.0000000000000D+00  0.0000000000000D+00
187  1.8600000000000D+00  0.0000000000000D+00  0.0000000000000D+00
188  1.8700000000000D+00  0.0000000000000D+00  0.0000000000000D+00
189  1.8800000000000D+00  0.0000000000000D+00  0.0000000000000D+00
190  1.8900000000000D+00  0.0000000000000D+00  0.0000000000000D+00
191  1.9000000000000D+00  0.0000000000000D+00  0.0000000000000D+00
192  1.9100000000000D+00  0.0000000000000D+00  0.0000000000000D+00
193  1.9200000000000D+00  0.0000000000000D+00  0.0000000000000D+00
194  1.9300000000000D+00  0.0000000000000D+00  0.0000000000000D+00
195  1.9400000000000D+00  0.0000000000000D+00  0.0000000000000D+00
196  1.9500000000000D+00  0.0000000000000D+00  0.0000000000000D+00
197  1.9600000000000D+00  0.0000000000000D+00  0.0000000000000D+00
198  1.9700000000000D+00  0.0000000000000D+00  0.0000000000000D+00
199  1.9800000000000D+00  0.0000000000000D+00  0.0000000000000D+00
200  1.9900000000000D+00  0.0000000000000D+00  0.0000000000000D+00
201  2.0000000000000D+00  0.0000000000000D+00  0.0000000000000D+00
202  2.0100000000000D+00  0.0000000000000D+00  0.0000000000000D+00
203  2.0200000000000D+00  0.0000000000000D+00  0.0000000000000D+00
204  2.0300000000000D+00  0.0000000000000D+00  0.0000000000000D+00
205  2.0400000000000D+00  0.0000000000000D+00  0.0000000000000D+00
206  2.0500000000000D+00  0.0000000000000D+00  0.0000000000000D+00
207  2.0600000000000D+00  0.0000000000000D+00  0.0000000000000D+00
208  2.0700000000000D+00  0.0000000000000D+00  0.0000000000000D+00
209  2.0800000000000D+00  0.0000000000000D+00  0.0000000000000D+00
210  2.0900000000000D+00  0.0000000000000D+00  0.0000000000000D+00
211  2.1000000000000D+00  0.0000000000000D+00  0.0000000000000D+00
212  2.1100000000000D+00  0.0000000000000D+00  0.0000000000000D+00
213  2.1200000000000D+00  0.0000000000000D+00  0.0000000000000D+00
214  2.1300000000000D+00  0.0000000000000D+00  0.0000000000000D+00
215  2.1400000000000D+00  0.0000000000000D+00  0.0000000000000D+00
216  2.1500000000000D+00  0.0000000000000D+00  0.0000000000000D+00
217  2.1600000000000D+00  0.0000000000000D+00  0.0000000000000D+00
218  2.1700000000000D+00  0.0000000000000D+00  0.0000000000000D+00
219  2.1800000000000D+00  0.0000000000000D+00  0.0000000000000D+00
220  2.1900000000000D+00  0.0000000000000D+00  0.0000000000000D+00
221  2.2000000000000D+00  0.0000000000000D+00  0.0000000000000D+00
222  2.2100000000000D+00  0.0000000000000D+00  0.0000000000000D+00
223  2.2200000000000D+00  0.0000000000000D+00  0.0000000000000D+00
224  2.2300000000000D+00  0.0000000000000D+00  0.0000000000000D+00
225  2.2400000000000D+00  0.0000000000000D+00  0.0000000000000D+00
226  2.2500000000000D+00  0.0000000000000D+00  0.0000000000000D+00
227  2.2600000000000D+00  0.0000000000000D+00  0.0000000000000D+00
228  2.2700000000000D+00  0.0000000000000D+00  0.0000000000000D+00
229  2.2800000000000D+00  0.0000000000000D+00  0.0000000000000D+00
230  2.2900000000000D+00  0.0000000000000D+00  0.0000000000000D+00
231  2.3000000000000D+00  0.0000000000000D+00  0.0000000000000D+00
232  2.3100000000000D+00  0.0000000000000D+00  0.0000000000000D+00
233  2.3200000000000D+00  0.0000000000000D+00  0.0000000000000D+00
234  2.3300000000000D+00  0.0000000000000D+00  0.0000000000000D+00
235  2.3400000000000D+00  0.0000000000000D+00  0.0000000000000D+00
236  2.3500000000000D+00  0.0000000000000D+00  0.0000000000000D+00
237  2.3600000000000D+00  0.0000000000000D+00  0.0000000000000D+00
238  2.3700000000000D+00  0.0000000000000D+00  0.0000000000000D+00
239  2.3800000000000D+00  0.0000000000000D+00  0.0000000000000D+00
240  2.3900000000000D+00  0.0000000000000D+00  0.0000000000000D+00
241  2.4000000000000D+00  0.0000000000000D+00  0.0000000000000D+00
242  2.4100000000000D+00  0.0000000000000D+00  0.0000000000000D+00
243  2.4200000000000D+00  0.0000000000000D+00  0.0000000000000D+00
244  2.4300000000000D+00  0.0000000000000D+00  0.0000000000000D+00
245  2.4400000000000D+00  0.0000000000000D+00  0.0000000000000D+00
246  2.4500000000000D+00  0.0000000000000D+00  0.0000000000000D+00
247  2.4600000000000D+00  0.0000000000000D+00  0.0000000000000D+00
248  2.4700000000000D+00  0.0000000000000D+00  0.0000000000000D+00
249  2.4800000000000D+00  0.0000000000000D+00  0.0000000000000D+00
250  2.4900000000000D+00  0.0000000000000D+00  0.0000000000000D+00
251  2.5000000000000D+00  0.0000000000000D+00  0.0000000000000D+00
252  2.5100000000000D+00  0.0000000000000D+00  0.0000000000000D+00
253  2.5200000000000D+00  0.0000000000000D+00  0.0000000000000D+00
254  2.5300000000000D+00  0.0000000000000D+00  0.0000000000000D+00
255  2.5400000000000D+00  0.0000000000000D+00  0.0000000000000D+00
256  2.5500000000000D+00  0.0000000000000D+00  0.0000000000000D+00
257  2.5600000000000D+00  0.0000000000000D+00  0.0000000000000D+00
258  2.5700000000000D+00  0.0000000000000D+00  0.0000000000000D+00
259  2.5800000000000D+00  0.0000000000000D+00  0.0000000000000D+00
260  2.5900000000000D+00  0.0000000000000D+00  0.0000000000000D+00
261  2.6000000000000D+00  0.0000000000000D+00  0.0000000000000D+00
262  2.6100000000000D+00  0.0000000000000D+00  0.0000000000000D+00
263  2.6200000000000D+00  0.0000000000000D+00  0.0000000000000D+00
264  2.6300000000000D+00  0.0000000000000D+00  0.0000000000000D+00
265  2.6400000000000D+00  0.0000000000000D+00  0.0000000000000D+00
266  2.6500000000000D+00  0.0000000000000D+00  0.0000000000000D+00
267  2.6600000000000D+00  0.0000000000000D+00  0.0000000000000D+00
268  2.6700000000000D+00  0.0000000000000D+00  0.0000000000000D+00
269  2.6800000000000D+00  0.0000000000000D+00  0.0000000000000D+00
270  2.6900000000000D+00  0.0000000000000D+00  0.0000000000000D+00
271  2.7000000000000D+00  0.0000000000000D+00  0.0000000000000D+00
272  2.7100000000000D+00  0.0000000000000D+00  0.0000000000000D+00
273  2.7200000000000D+00  0.0000000000000D+00  0.0000000000000D+00
274  2.7300000000000D+00  0.0000000000000D+00  0.0000000000000D+00
275  2.7400000000000D+00  0.0000000000000D+00  0.0000000000000D+00
276  2.7500000000000D+00  0.0000000000000D+00  0.0000000000000D+00
277  2.7600000000000D+00  0.0000000000000D+00  0.0000000000000D+00
278  2.7700000000000D+00  0.0000000000000D+00  0.0000000000000D+00
279  2.7800000000000D+00  0.0000000000000D+00  0.0000000000000D+00
280  2.7900000000000D+00  0.0000000000000D+00  0.0000000000000D+00
281  2.8000000000000D+00  0.0000000000000D+00  0.0000000000000D+00
282  2.8100000000000D+00  0.0000000000000D+00  0.0000000000000D+00
283  2.8200000000000D+00  0.0000000000000D+00  0.0000000000000D+00
284  2.8300000000000D+00  0.0000000000000D+00  0.0000000000000D+00
285  2.8400000000000D+00  0.0000000000000D+00  0.0000000000000D+00
286  2.8500000000000D+00  0.0000000000000D+00  0.0000000000000D+00
287  2.8600000000000D+00  0.0000000000000D+00  0.0000000000000D+00
288  2.8700000000000D+00  0.0000000000000D+00  0.0000000000000D+00
289  2.8800000000000D+00  0.0000000000000D+00  0.0000000000000D+00
290  2.8900000000000D+00  0.0000000000000D+00  0.0000000000000D+00
291  2.9000000000000D+00  0.0000000000000D+00  0.0000000000000D+00
292  2.9100000000000D+00  0.0000000000000D+00  0.0000000000000D+00
293  2.9200000000000D+00  0.0000000000000D+00  0.0000000000000D+00
294  2.9300000000000D+00  0.0000000000000D+00  0.0000000000000D+00
295  2.9400000000000D+00  0.0000000000000D+00  0.0000000000000D+00
296  2.9500000000000D+00  0.0000000000000D+00  0.0000000000000D+00
297  2.9600000000000D+00  0.0000000000000D+00  0.0000000000000D+00
298  2.9700000000000D+00  0.0000000000000D+00  0.0000000000000D+00
299  2.9800000000000D+00  0.0000000000000D+00  0.0000000000000D+00
300  2.9900000000000D+00  0.0000000000000D+00  0.0000000000000D+00
301  3.0000000000000D+00  0.0000000000000D+00  0.0000000000000D+00
302  3.0100000000000D+00  0.0000000000000D+00  0.0000000000000D+00
303  3.0200000000000D+00  0.0000000000000D+00  0.0000000000000D+00
304  3.0300000000000D+00  0.0000000000000D+00  0.0000000000000D+00
305  3.0400000000000D+00  0.0000000000000D+00  0.0000000000000D+00
306  3.0500000000000D+00  0.0000000000000D+00  0.0000000000000D+00
307  3.0600000000000D+00  0.0000000000000D+00  0.0000000000000D+00
308  3.0700000000000D+00  0.0000000000000D+00  0.0000000000000D+00
309  3.0800000000000D+00  0.0000000000000D+00  0.0000000000000D+00
310  3.0900000000000D+00  0.0000000000000D+00  0.0000000000000D+00
311  3.1000000000000D+00  0.0000000000000D+00  0.0000000000000D+00
312  3.1100000000000D+00  0.0000000000000D+00  0.0000000000000D+00
313  3.1200000000000D+00  0.0000000000000D+00  0.0000000000000D+00
314  3.1300000000000D+00  0.0000000000000D+00  0.0000000000000D+00
315  3.1400000000000D+00  0.0000000000000D+00  0.0000000000000D+00
316  3.1500000000000D+00  0.0000000000000D+00  0.0000000000000D+00
317  3.1600000000000D+00  0.0000000000000D+00  0.0000000000000D+00
318  3.1700000000000D+00  0.0000000000000D+00  0.0000000000000D+00
319  3.1800000000000D+00  0.0000000000000D+00  0.0000000000000D+00
320  3.1900000000000D+00  0.0000000000000D+00  0.0000000000000D+00
321  3.2000000000000D+00  0.0000000000000D+00  0.0000000000000D+00
322  3.2100000000000D+00  0.0000000000000D+00  0.0000000000000D+00
323  3.2200000000000D+00  0.0000000000000D+00  0.0000000000000D+00
324  3.2300000000000D+00  0.0000000000000D+00  0.0000000000000D+00
325  3.2400000000000D+00  0.0000000000000D+00  0.0000000000000D+00
326  3.2500000000000D+00  0.0000000000000D+00  0.0000000000000D+00
327  3.2600000000000D+00  0.0000000000000D+00  0.0000000000000D+00
328  3.2700000000000D+00  0.0000000000000D+00  0.0000000000000D+00
329  3.2800000000000D+00  0.0000000000000D+00  0.0000000000000D+00
330  3.2900000000000D+00  0.0000000000000D+00  0.0000000000000D+00
331  3.3000000000000D+00  0.0000000000000D+00  0.0000000000000D+00
332  3.3100000000000D+00  0.0000000000000D+00  0.0000000000000D+00
333  3.3200000000000D+00  0.0000000000000D+00  0.0000000000000D+00
334  3.3300000000000D+00  0.0000000000000D+00  0.0000000000000D+00
335  3.3400000000000D+00  0.0000000000000D+00  0.0000000000000D+00
336  3.3500000000000D+00  0.0000000000000D+00  0.0000000000000D+00
337  3.3600000000000D+00  0.0000000000000D+00  0.0000000000000D+00
338  3.3700000000000D+00  0.0000000000000D+00  0.0000000000000D+00
339  3.3800000000000D+00  0.0000000000000D+00  0.0000000000000D+00
340  3.3900000000000D+00  0.0000000000000D+00  0.0000000000000D+00
341  3.4000000000000D+00  0.0000000000000D+00  0.0000000000000D+00
342  3.4100000000000D+00  0.0000000000000D+00  0.0000000000000D+00
343  3.4200000000000D+00  0.0000000000000D+00  0.0000000000000D+00
344  3.4300000000000D+00  0.0000000000000D+00  0.0000000000000D+00
345  3.4400000000000D+00  0.0000000000000D+00  0.0000000000000D+00
346  3.4500000000000D+00  0.0000000000000D+00  0.0000000000000D+00
347  3.4600000000000D+00  0.0000000000000D+00  0.0000000000000D+00
348  3.4700000000000D+00  0.0000000000000D+00  0.0000000000000D+00
349  3.4800000000000D+00  0.0000000000000D+00  0.0000000000000D+00
350  3.4900000000000D+00  0.0000000000000D+00  0.0000000000000D+00
351  3.5000000000000D+00  0.0000000000000D+00  0.0000000000000D+00
352  3.5100000000000D+00  0.0000000000000D+00  0.0000000000000D+00
353  3.5200000000000D+00  0.0000000000000D+00  0.0000000000000D+00
354  3.5300000000000D+00  0.0000000000000D+00  0.0000000000000D+00
355  3.5400000000000D+00  0.0000000000000D+00  0.0000000000000D+00
356  3.5500000000000D+00  0.0000000000000D+00  0.0000000000000D+00
357  3.5600000000000D+00  0.0000000000000D+00  0.0000000000000D+00
358  3.5700000000000D+00  0.0000000000000D+00  0.0000000000000D+00
359  3.5800000000000D+00  0.0000000000000D+00  0.0000000000000D+00
360  3.5900000000000D+00  0.0000000000000D+00  0.0000000000000D+00
361  3.6000000000000D+00  0.0000000000000D+00  0.0000000000000D+00
362  3.6100000000000D+00  0.0000000000000D+00  0.0000000000000D+00
363  3.6200000000000D+00  0.0000000000000D+00  0.0000000000000D+00
364  3.6300000000000D+00  0.0000000000000D+00  0.0000000000000D+00
365  3.6400000000000D+00  0.0000000000000D+00  0.0000000000000D+00
366  3.6500000000000D+00  0.0000000000000D+00  0.0000000000000D+00
367  3.6600000000000D+00  0.0000000000000D+00  0.0000000000000D+00
368  3.6700000000000D+00  0.0000000000000D+00  0.0000000000000D+00
369  3.6800000000000D+00  0.0000000000000D+00  0.0000000000000D+00
370  3.6900000000000D+00  0.0000000000000D+00  0.0000000000000D+00
371  3.7000000000000D+00  0.0000000000000D+00  0.0000000000000D+00
372  3.7100000000000D+00  0.0000000000000D+00  0.0000000000000D+00
373  3.7200000000000D+00  0.0000000000000D+00  0.0000000000000D+00
374  3.7300000000000D+00  0.0000000000000D+00  0.0000000000000D+00
375  3.7400000000000D+00  0.0000000000000D+00  0.0000000000000D+00
376  3.7500000000000D+00  0.0000000000000D+00  0.0000000000000D+00
377  3.7600000000000D+00  0.0000000000000D+00  0.0000000000000D+00
378  3.7700000000000D+00  0.0000000000000D+00  0.0000000000000D+00
379  3.7800000000000D+00  0.0000000000000D+00  0.0000000000000D+00
380  3.7900000000000D+00  0.0000000000000D+00  0.0000000000000D+00
381  3.8000000000000D+00  0.0000000000000D+00  0.0000000000000D+00
382  3.8100000000000D+00  0.0000000000000D+00  0.0000000000000D+00
383  3.8200000000000D+00  0.0000000000000D+00  0.0000000000000D+00
384  3.8300000000000D+00  0.0000000000000D+00  0.0000000000000D+00
385  3.8400000000000D+00  0.0000000000000D+00  0.0000000000000D+00
386  3.8500000000000D+00  0.0000000000000D+00  0.0000000000000D+00
387  3.8600000000000D+00  0.0000000000000D+00  0.0000000000000D+00
388  3.8700000000000D+00  0.0000000000000D+00  0.0000000000000D+00
389  3.8800000000000D+00  0.0000000000000D+00  0.0000000000000D+00
390  3.8900000000000D+00  0.0000000000000D+00  0.0000000000000D+00
391  3.9000000000000D+00  0.0000000000000D+00  0.0000000000000D+00
392  3.9100000000000D+00  0.0000000000000D+00  0.0000000000000D+00
393  3.9200000000000D+00  0.0000000000000D+00  0.0000000000000D+00
394  3.9300000000000D+00  0.0000000000000D+00  0.0000000000000D+00
395  3.9400000000000D+00  0.0000000000000D+00  0.0000000000000D+00
396  3.9500000000000D+00  0.0000000000000D+00  0.0000000000000D+00
397  3.9600000000000D+00  0.0000000000000D+00  0.0000000000000D+00
398  3.9700000000000D+00  0.0000000000000D+00  0.0000000000000D+00
399  3.9800000000000D+00  0.0000000000000D+00  0.0000000000000D+00
400  3.9900000000000D+00  0.0000000000000D+00  0.0000000000000D+00
1                         2.8784856593539D+00  5.7801254102420D-01  6.0329013059305D-05
1  0.0000000000000D+00  1.5212977100276D-08 -3.2518456316577D-08  3.4289644332275D-08
2  1.0000000000000D-02  2.4918855192795D-03 -2.1923555154489D-03  1.6216924287565D-03
3  2.0000000000000D-02  9.9363701704140D-03 -8.7134403009065D-03  6.4327663364872D-03
4  3.0000000000000D-02  2.2240451907362D-02 -1.9396375182932D-02  1.4272316165626D-02
5  4.0000000000000D-02  3.9250830812602D-02 -3.3966563168810D-02  2.4875828119776D-02
6  5.0000000000000D-02  6.0756433841908D-02 -5.2046926635700D-02  3.7880604403590D-02
7  6.0000000000000D-02  8.6491889003873D-02 -7.3165110016615D-02  5.2833220467245D-02
8  7.0000000000000D-02  1.1614188972688D-01 -9.6762521226522D-02  6.9198881325824D-02
9  8.0000000000000D-02  1.4934637495332D-01 -1.2220505255337D-01  8.6372508734261D-02
10  9.0000000000000D-02  1.8570643653495D-01 -1.4879529190951D-01  1.0369135952859D-01
11  1.0000000000000D-01  2.2479085302025D-01 -1.7578600870682D-01  1.2044894737275D-01
12  1.1000000000000D-01  2.6614313813428D-01 -2.0239467563511D-01  1.3591001600726D-01
13  1.2000000000000D-01  3.0928898333739D-01 -2.2781876868554D-01  1.4932629220544D-01
14  1.3000000000000D-01  3.5374396696342D-01 -2.5125157319304D-01  1.5995273142974D-01
15  1.4000000000000D-01  3.9902139769933D-01 -2.7189821373214D-01  1.6706395889438D-01
16  1.5000000000000D-01  4.4464015766028D-01 -2.8899162056688D-01  1.6997060354606D-01
17  1.6000000000000D-01  4.9013241008388D-01 -3.0180814512772D-01  1.6803522248488D-01
18  1.7000000000000D-01  5.3505103872402D-01 -3.0968254168579D-01  1.6068751863512D-01
19  1.8000000000000D-01  5.7897669033917D-01 -3.1202204195255D-01  1.4743856485554D-01
20  1.9000000000000D-01  6.2152429817695D-01 -3.0831926360882D-01  1.2789376311828D-01
21  2.0000000000000D-01  6.6234897295312D-01 -2.9816371253620D-01  1.0176428754469D-01
22  2.1000000000000D-01  7.0115115837120D-01 -2.8125166148886D-01  6.8876784724506D-02
23  2.2000000000000D-01  7.3768096055903D-01 -2.5739421473493D-01  2.9181133373303D-02
24  2.3000000000000D-01  7.7174157470978D-01 -2.2652339837989D-01 -1.7243902342937D-02
25  2.4000000000000D-01  8.0319174747966D-01 -1.8869614916738D-01 -7.0187256231048D-02
26  2.5000000000000D-01  8.3194723006368D-01 -1.4409610999330D-01 -1.2930447289351D-01
27  2.6000000000000D-01  8.5798119407215D-01 -9.3033177582431D-02 -1.9411900298257D-01
28  2.7000000000000D-01  8.8132360008140D-01 -3.5940786147814D-02 -2.6402589316410D-01
29  2.8000000000000D-01  9.0205952673637D-01  2.6629050257247D-02 -3.3829784174898D-01
30  2.9000000000000D-01  9.2032648623963D-01  9.4012875225817D-02 -4.1609354985769D-01
31  3.0000000000000D-01  9.3631076967029D-01  1.6544500787685D-01 -4.9646825775802D-01
32  3.1000000000000D-01  9.5024288253989D-01  2.4006870512830D-01 -5.7838631735208D-01