Tc    ONCVPSP  r_core=  1.36  1.36  1.26
43.0000     15.0000      150102    zatom,zion,pspd
8    11     2     4   601     0    pspcod,pspxc,lmax,lloc,mmax,r2well
6.00000000  0.07000000  0.00000000    rchrg fchrg qchrg
2     2     2     0     0    nproj
0                 extension_switch
0                         1.3806290549106D+01  1.2228516197787D+00
1  0.0000000000000D+00 -0.0000000000000D+00 -0.0000000000000D+00
2  1.0000000000000D-02 -5.5772278629567D-02 -1.6746801197841D-02
3  2.0000000000000D-02 -1.1150839801121D-01 -3.3549936053149D-02
4  3.0000000000000D-02 -1.6717163045539D-01 -5.0463640947374D-02
5  4.0000000000000D-02 -2.2272412057491D-01 -6.7537992453712D-02
6  5.0000000000000D-02 -2.7812634427218D-01 -8.4816913756438D-02
7  6.0000000000000D-02 -3.3333659477462D-01 -1.0233628316526D-01
8  7.0000000000000D-02 -3.8831050414713D-01 -1.2012217629336D-01
9  8.0000000000000D-02 -4.4300060821754D-01 -1.3818927139988D-01
10  9.0000000000000D-02 -4.9735596225198D-01 -1.5653944489204D-01
11  1.0000000000000D-01 -5.5132181400283D-01 -1.7516058100493D-01
12  1.1000000000000D-01 -6.0483933997279D-01 -1.9402561642622D-01
13  1.2000000000000D-01 -6.5784544984444D-01 -2.1309183693194D-01
14  1.3000000000000D-01 -7.1027266309749D-01 -2.3230043925825D-01
15  1.4000000000000D-01 -7.6204906080503D-01 -2.5157636721058D-01
16  1.5000000000000D-01 -8.1309831461966D-01 -2.7082842696713D-01
17  1.6000000000000D-01 -8.6333979382016D-01 -2.8994968193575D-01
18  1.7000000000000D-01 -9.1268875025139D-01 -3.0881812330999D-01
19  1.8000000000000D-01 -9.6105657990389D-01 -3.2729760813965D-01
20  1.9000000000000D-01 -1.0083511589512D+00 -3.4523905299570D-01
21  2.0000000000000D-01 -1.0544772506358D+00 -3.6248186587100D-01
22  2.1000000000000D-01 -1.0993369790798D+00 -3.7885559757262D-01
23  2.2000000000000D-01 -1.1428303643764D+00 -3.9418178754076D-01
24  2.3000000000000D-01 -1.1848559135567D+00 -4.0827597973147D-01
25  2.4000000000000D-01 -1.2253112598374D+00 -4.2094987651477D-01
26  2.5000000000000D-01 -1.2640938426691D+00 -4.3201359910114D-01
27  2.6000000000000D-01 -1.3011016230758D+00 -4.4127802959472D-01
28  2.7000000000000D-01 -1.3362338212132D+00 -4.4855718461700D-01
29  2.8000000000000D-01 -1.3693916707543D+00 -4.5367059685997D-01
30  2.9000000000000D-01 -1.4004791813242D+00 -4.5644566970533D-01
31  3.0000000000000D-01 -1.4294038985760D+00 -4.5671996543435D-01
32  3.1000000000000D-01 -1.4560776535624D+00 -4.5434339517537D-01
33  3.2000000000000D-01 -1.4804172920788D+00 -4.4918027651497D-01
34  3.3000000000000D-01 -1.5023453686400D+00 -4.4111120883960D-01
35  3.4000000000000D-01 -1.5217908319759D+00 -4.3003484089750D-01
36  3.5000000000000D-01 -1.5386896166144D+00 -4.1586927740890D-01
37  3.6000000000000D-01 -1.5529852467241D+00 -3.9855343124314D-01
38  3.7000000000000D-01 -1.5646293191617D+00 -3.7804794203054D-01
39  3.8000000000000D-01 -1.5735819766735D+00 -3.5433597223577D-01
40  3.9000000000000D-01 -1.5798122892799D+00 -3.2742365568080D-01
41  4.0000000000000D-01 -1.5832985627967D+00 -2.9734026050615D-01
42  4.1000000000000D-01 -1.5840285852182D+00 -2.6413809588898D-01
43  4.2000000000000D-01 -1.5819997947364D+00 -2.2789212916889D-01
44  4.3000000000000D-01 -1.5772193723496D+00 -1.8869933090109D-01
45  4.4000000000000D-01 -1.5697042595465D+00 -1.4667776044464D-01
46  4.5000000000000D-01 -1.5594811023557D+00 -1.0196540826662D-01
47  4.6000000000000D-01 -1.5465861238452D+00 -5.4718814700778D-02
48  4.7000000000000D-01 -1.5310649280165D+00 -5.1114887051671D-03
49  4.8000000000000D-01 -1.5129722387995D+00  4.6667843867529D-02
50  4.9000000000000D-01 -1.4923715800451D+00  1.0041710577224D-01
51  5.0000000000000D-01 -1.4693349083904D+00  1.5592295477489D-01
52  5.1000000000000D-01 -1.4439421760122D+00  2.1296282475486D-01
53  5.2000000000000D-01 -1.4162808792362D+00  2.7130697471809D-01
54  5.3000000000000D-01 -1.3864455415815D+00  3.3072085224443D-01
55  5.4000000000000D-01 -1.3545371910530D+00  3.9096703274479D-01
56  5.5000000000000D-01 -1.3206628180543D+00  4.5180728791196D-01
57  5.6000000000000D-01 -1.2849347619133D+00  5.1300481709664D-01
58  5.7000000000000D-01 -1.2474702135884D+00  5.7432566007296D-01
59  5.8000000000000D-01 -1.2083905212481D+00  6.3554102319325D-01
60  5.9000000000000D-01 -1.1678207431417D+00  6.9642819686226D-01
61  6.0000000000000D-01 -1.1258889633475D+00  7.5677246161863D-01
62  6.1000000000000D-01 -1.0827257963995D+00  8.1636798611997D-01
63  6.2000000000000D-01 -1.0384639141207D+00  8.7501856370437D-01
64  6.3000000000000D-01 -9.9323734195224D-01  9.3253900371794D-01
65  6.4000000000000D-01 -9.4718119796905D-01  9.8875483343076D-01
66  6.5000000000000D-01 -9.0043114614734D-01  1.0435028839286D+00
67  6.6000000000000D-01 -8.5312285360728D-01  1.0966315954889D+00
68  6.7000000000000D-01 -8.0539176584045D-01  1.1480003418728D+00
69  6.8000000000000D-01 -7.5737274584667D-01  1.1974790981898D+00
70  6.9000000000000D-01 -7.0919954600930D-01  1.2449482266165D+00
71  7.0000000000000D-01 -6.6100463451461D-01  1.2902974219873D+00
72  7.1000000000000D-01 -6.1291891978772D-01  1.3334248342376D+00
73  7.2000000000000D-01 -5.6507146556652D-01  1.3742361220446D+00
74  7.3000000000000D-01 -5.1758930522752D-01  1.4126433592973D+00
75  7.4000000000000D-01 -4.7059704097047D-01  1.4485640150983D+00
76  7.5000000000000D-01 -4.2421677822685D-01  1.4819197006975D+00
77  7.6000000000000D-01 -3.7856789564387D-01  1.5126350973607D+00
78  7.7000000000000D-01 -3.3376682599460D-01  1.5406369178031D+00
79  7.8000000000000D-01 -2.8992684772434D-01  1.5658529514347D+00
80  7.9000000000000D-01 -2.4715787052237D-01  1.5882112343359D+00
81  8.0000000000000D-01 -2.0556621081530D-01  1.6076393748762D+00
82  8.1000000000000D-01 -1.6525435345472D-01  1.6240640630269D+00
83  8.2000000000000D-01 -1.2632069636271D-01  1.6374107879431D+00
84  8.3000000000000D-01 -8.8859275492579D-02  1.6476037843747D+00
85  8.4000000000000D-01 -5.2959468147458D-02  1.6545662239846D+00
86  8.5000000000000D-01 -1.8705673461956D-02  1.6582206627853D+00
87  8.6000000000000D-01  1.3823030320294D-02  1.6584897507216D+00
88  8.7000000000000D-01  4.4553251262460D-02  1.6552972040036D+00
89  8.8000000000000D-01  7.3417670416328D-02  1.6485690351957D+00
90  8.9000000000000D-01  1.0035544740172D-01  1.6382350303535D+00
91  9.0000000000000D-01  1.2531264156279D-01  1.6242304567398D+00
92  9.1000000000000D-01  1.4824264443298D-01  1.6064979789099D+00
93  9.2000000000000D-01  1.6910661831595D-01  1.5849897553259D+00
94  9.3000000000000D-01  1.8787393491326D-01  1.5596696822452D+00
95  9.4000000000000D-01  2.0452260713077D-01  1.5305157465850D+00
96  9.5000000000000D-01  2.1903970651408D-01  1.4975224449838D+00
97  9.6000000000000D-01  2.3142175824708D-01  1.4607032226036D+00
98  9.7000000000000D-01  2.4167502210841D-01  1.4200926352115D+00
99  9.8000000000000D-01  2.4981587077428D-01  1.3757487517445D+00
100  9.9000000000000D-01  2.5587142943346D-01  1.3277565702954D+00
101  1.0000000000000D+00  2.5987931798642D-01  1.2762286564685D+00
102  1.0100000000000D+00  2.6188797629912D-01  1.2213074075050D+00
103  1.0200000000000D+00  2.6195674626588D-01  1.1631665672202D+00
104  1.0300000000000D+00  2.6015585259999D-01  1.1020123229242D+00
105  1.0400000000000D+00  2.5656606180503D-01  1.0380829495164D+00
106  1.0500000000000D+00  2.5127956897189D-01  9.7165378263298D-01
107  1.0600000000000D+00  2.4439859054517D-01  9.0303262598001D-01
108  1.0700000000000D+00  2.3603533264313D-01  8.3256059628490D-01
109  1.0800000000000D+00  2.2631147143595D-01  7.6061088600722D-01
110  1.0900000000000D+00  2.1535764663988D-01  6.8758733426770D-01
111  1.1000000000000D+00  2.0331310071152D-01  6.1392506400437D-01
112  1.1100000000000D+00  1.9032418253213D-01  5.4008395600937D-01
113  1.1200000000000D+00  1.7654369877388D-01  4.6654691741587D-01
114  1.1300000000000D+00  1.6213037589433D-01  3.9381737151182D-01
115  1.1400000000000D+00  1.4724687787652D-01  3.2241433222378D-01
116  1.1500000000000D+00  1.3205886975199D-01  2.5286656394567D-01
117  1.1600000000000D+00  1.1673402053983D-01  1.8570908930853D-01
118  1.1700000000000D+00  1.0144143961924D-01  1.2148084790555D-01
119  1.1800000000000D+00  8.6347165371517D-02  6.0708834098348D-02
120  1.1900000000000D+00  7.1615245067264D-02  3.9096395232815D-03
121  1.2000000000000D+00  5.7407511234293D-02 -4.8411369246853D-02
122  1.2100000000000D+00  4.3877678738370D-02 -9.5782415747811D-02
123  1.2200000000000D+00  3.1173366283898D-02 -1.3775356903613D-01
124  1.2300000000000D+00  1.9438168215310D-02 -1.7388948376594D-01
125  1.2400000000000D+00  8.8091783591408D-03 -2.0377408750819D-01
126  1.2500000000000D+00 -5.8629622975813D-04 -2.2702352153040D-01
127  1.2600000000000D+00 -8.6261298827341D-03 -2.4327313069287D-01
128  1.2700000000000D+00 -1.5196881092540D-02 -2.5218876674623D-01
129  1.2800000000000D+00 -2.0199275976123D-02 -2.5348755766602D-01
130  1.2900000000000D+00 -2.3540215463775D-02 -2.4691145347570D-01
131  1.3000000000000D+00 -2.5138647941530D-02 -2.3224762336897D-01
132  1.3100000000000D+00 -2.4929829640965D-02 -2.0934537393311D-01
133  1.3200000000000D+00 -2.2855263461619D-02 -1.7808014641101D-01
134  1.3300000000000D+00 -1.8873572826403D-02 -1.3839322262309D-01
135  1.3400000000000D+00 -1.2822215913800D-02 -8.9431054898544D-02
136  1.3500000000000D+00 -3.9930393811518D-03 -2.6906800818570D-02
137  1.3600000000000D+00  7.3597172477961D-04  5.4759690532969D-03
138  1.3700000000000D+00  2.1733599987210D-04  1.5630597436468D-03
139  1.3800000000000D+00  6.8690417522634D-06  2.1011777186309D-05
140  1.3900000000000D+00  0.0000000000000D+00  0.0000000000000D+00
141  1.4000000000000D+00  0.0000000000000D+00  0.0000000000000D+00
142  1.4100000000000D+00  0.0000000000000D+00  0.0000000000000D+00
143  1.4200000000000D+00  0.0000000000000D+00  0.0000000000000D+00
144  1.4300000000000D+00  0.0000000000000D+00  0.0000000000000D+00
145  1.4400000000000D+00  0.0000000000000D+00  0.0000000000000D+00
146  1.4500000000000D+00  0.0000000000000D+00  0.0000000000000D+00
147  1.4600000000000D+00  0.0000000000000D+00  0.0000000000000D+00
148  1.4700000000000D+00  0.0000000000000D+00  0.0000000000000D+00
149  1.4800000000000D+00  0.0000000000000D+00  0.0000000000000D+00
150  1.4900000000000D+00  0.0000000000000D+00  0.0000000000000D+00
151  1.5000000000000D+00  0.0000000000000D+00  0.0000000000000D+00
152  1.5100000000000D+00  0.0000000000000D+00  0.0000000000000D+00
153  1.5200000000000D+00  0.0000000000000D+00  0.0000000000000D+00
154  1.5300000000000D+00  0.0000000000000D+00  0.0000000000000D+00
155  1.5400000000000D+00  0.0000000000000D+00  0.0000000000000D+00
156  1.5500000000000D+00  0.0000000000000D+00  0.0000000000000D+00
157  1.5600000000000D+00  0.0000000000000D+00  0.0000000000000D+00
158  1.5700000000000D+00  0.0000000000000D+00  0.0000000000000D+00
159  1.5800000000000D+00  0.0000000000000D+00  0.0000000000000D+00
160  1.5900000000000D+00  0.0000000000000D+00  0.0000000000000D+00
161  1.6000000000000D+00  0.0000000000000D+00  0.0000000000000D+00
162  1.6100000000000D+00  0.0000000000000D+00  0.0000000000000D+00
163  1.6200000000000D+00  0.0000000000000D+00  0.0000000000000D+00
164  1.6300000000000D+00  0.0000000000000D+00  0.0000000000000D+00
165  1.6400000000000D+00  0.0000000000000D+00  0.0000000000000D+00
166  1.6500000000000D+00  0.0000000000000D+00  0.0000000000000D+00
167  1.6600000000000D+00  0.0000000000000D+00  0.0000000000000D+00
168  1.6700000000000D+00  0.0000000000000D+00  0.0000000000000D+00
169  1.6800000000000D+00  0.0000000000000D+00  0.0000000000000D+00
170  1.6900000000000D+00  0.0000000000000D+00  0.0000000000000D+00
171  1.7000000000000D+00  0.0000000000000D+00  0.0000000000000D+00
172  1.7100000000000D+00  0.0000000000000D+00  0.0000000000000D+00
173  1.7200000000000D+00  0.0000000000000D+00  0.0000000000000D+00
174  1.7300000000000D+00  0.0000000000000D+00  0.0000000000000D+00
175  1.7400000000000D+00  0.0000000000000D+00  0.0000000000000D+00
176  1.7500000000000D+00  0.0000000000000D+00  0.0000000000000D+00
177  1.7600000000000D+00  0.0000000000000D+00  0.0000000000000D+00
178  1.7700000000000D+00  0.0000000000000D+00  0.0000000000000D+00
179  1.7800000000000D+00  0.0000000000000D+00  0.0000000000000D+00
180  1.7900000000000D+00  0.0000000000000D+00  0.0000000000000D+00
181  1.8000000000000D+00  0.0000000000000D+00  0.0000000000000D+00
182  1.8100000000000D+00  0.0000000000000D+00  0.0000000000000D+00
183  1.8200000000000D+00  0.0000000000000D+00  0.0000000000000D+00
184  1.8300000000000D+00  0.0000000000000D+00  0.0000000000000D+00
185  1.8400000000000D+00  0.0000000000000D+00  0.0000000000000D+00
186  1.8500000000000D+00  0.0000000000000D+00  0.0000000000000D+00
187  1.8600000000000D+00  0.0000000000000D+00  0.0000000000000D+00
188  1.8700000000000D+00  0.0000000000000D+00  0.0000000000000D+00
189  1.8800000000000D+00  0.0000000000000D+00  0.0000000000000D+00
190  1.8900000000000D+00  0.0000000000000D+00  0.0000000000000D+00
191  1.9000000000000D+00  0.0000000000000D+00  0.0000000000000D+00
192  1.9100000000000D+00  0.0000000000000D+00  0.0000000000000D+00
193  1.9200000000000D+00  0.0000000000000D+00  0.0000000000000D+00
194  1.9300000000000D+00  0.0000000000000D+00  0.0000000000000D+00
195  1.9400000000000D+00  0.0000000000000D+00  0.0000000000000D+00
196  1.9500000000000D+00  0.0000000000000D+00  0.0000000000000D+00
197  1.9600000000000D+00  0.0000000000000D+00  0.0000000000000D+00
198  1.9700000000000D+00  0.0000000000000D+00  0.0000000000000D+00
199  1.9800000000000D+00  0.0000000000000D+00  0.0000000000000D+00
200  1.9900000000000D+00  0.0000000000000D+00  0.0000000000000D+00
201  2.0000000000000D+00  0.0000000000000D+00  0.0000000000000D+00
202  2.0100000000000D+00  0.0000000000000D+00  0.0000000000000D+00
203  2.0200000000000D+00  0.0000000000000D+00  0.0000000000000D+00
204  2.0300000000000D+00  0.0000000000000D+00  0.0000000000000D+00
205  2.0400000000000D+00  0.0000000000000D+00  0.0000000000000D+00
206  2.0500000000000D+00  0.0000000000000D+00  0.0000000000000D+00
207  2.0600000000000D+00  0.0000000000000D+00  0.0000000000000D+00
208  2.0700000000000D+00  0.0000000000000D+00  0.0000000000000D+00
209  2.0800000000000D+00  0.0000000000000D+00  0.0000000000000D+00
210  2.0900000000000D+00  0.0000000000000D+00  0.0000000000000D+00
211  2.1000000000000D+00  0.0000000000000D+00  0.0000000000000D+00
212  2.1100000000000D+00  0.0000000000000D+00  0.0000000000000D+00
213  2.1200000000000D+00  0.0000000000000D+00  0.0000000000000D+00
214  2.1300000000000D+00  0.0000000000000D+00  0.0000000000000D+00
215  2.1400000000000D+00  0.0000000000000D+00  0.0000000000000D+00
216  2.1500000000000D+00  0.0000000000000D+00  0.0000000000000D+00
217  2.1600000000000D+00  0.0000000000000D+00  0.0000000000000D+00
218  2.1700000000000D+00  0.0000000000000D+00  0.0000000000000D+00
219  2.1800000000000D+00  0.0000000000000D+00  0.0000000000000D+00
220  2.1900000000000D+00  0.0000000000000D+00  0.0000000000000D+00
221  2.2000000000000D+00  0.0000000000000D+00  0.0000000000000D+00
222  2.2100000000000D+00  0.0000000000000D+00  0.0000000000000D+00
223  2.2200000000000D+00  0.0000000000000D+00  0.0000000000000D+00
224  2.2300000000000D+00  0.0000000000000D+00  0.0000000000000D+00
225  2.2400000000000D+00  0.0000000000000D+00  0.0000000000000D+00
226  2.2500000000000D+00  0.0000000000000D+00  0.0000000000000D+00
227  2.2600000000000D+00  0.0000000000000D+00  0.0000000000000D+00
228  2.2700000000000D+00  0.0000000000000D+00  0.0000000000000D+00
229  2.2800000000000D+00  0.0000000000000D+00  0.0000000000000D+00
230  2.2900000000000D+00  0.0000000000000D+00  0.0000000000000D+00
231  2.3000000000000D+00  0.0000000000000D+00  0.0000000000000D+00
232  2.3100000000000D+00  0.0000000000000D+00  0.0000000000000D+00
233  2.3200000000000D+00  0.0000000000000D+00  0.0000000000000D+00
234  2.3300000000000D+00  0.0000000000000D+00  0.0000000000000D+00
235  2.3400000000000D+00  0.0000000000000D+00  0.0000000000000D+00
236  2.3500000000000D+00  0.0000000000000D+00  0.0000000000000D+00
237  2.3600000000000D+00  0.0000000000000D+00  0.0000000000000D+00
238  2.3700000000000D+00  0.0000000000000D+00  0.0000000000000D+00
239  2.3800000000000D+00  0.0000000000000D+00  0.0000000000000D+00
240  2.3900000000000D+00  0.0000000000000D+00  0.0000000000000D+00
241  2.4000000000000D+00  0.0000000000000D+00  0.0000000000000D+00
242  2.4100000000000D+00  0.0000000000000D+00  0.0000000000000D+00
243  2.4200000000000D+00  0.0000000000000D+00  0.0000000000000D+00
244  2.4300000000000D+00  0.0000000000000D+00  0.0000000000000D+00
245  2.4400000000000D+00  0.0000000000000D+00  0.0000000000000D+00
246  2.4500000000000D+00  0.0000000000000D+00  0.0000000000000D+00
247  2.4600000000000D+00  0.0000000000000D+00  0.0000000000000D+00
248  2.4700000000000D+00  0.0000000000000D+00  0.0000000000000D+00
249  2.4800000000000D+00  0.0000000000000D+00  0.0000000000000D+00
250  2.4900000000000D+00  0.0000000000000D+00  0.0000000000000D+00
251  2.5000000000000D+00  0.0000000000000D+00  0.0000000000000D+00
252  2.5100000000000D+00  0.0000000000000D+00  0.0000000000000D+00
253  2.5200000000000D+00  0.0000000000000D+00  0.0000000000000D+00
254  2.5300000000000D+00  0.0000000000000D+00  0.0000000000000D+00
255  2.5400000000000D+00  0.0000000000000D+00  0.0000000000000D+00
256  2.5500000000000D+00  0.0000000000000D+00  0.0000000000000D+00
257  2.5600000000000D+00  0.0000000000000D+00  0.0000000000000D+00
258  2.5700000000000D+00  0.0000000000000D+00  0.0000000000000D+00
259  2.5800000000000D+00  0.0000000000000D+00  0.0000000000000D+00
260  2.5900000000000D+00  0.0000000000000D+00  0.0000000000000D+00
261  2.6000000000000D+00  0.0000000000000D+00  0.0000000000000D+00
262  2.6100000000000D+00  0.0000000000000D+00  0.0000000000000D+00
263  2.6200000000000D+00  0.0000000000000D+00  0.0000000000000D+00
264  2.6300000000000D+00  0.0000000000000D+00  0.0000000000000D+00
265  2.6400000000000D+00  0.0000000000000D+00  0.0000000000000D+00
266  2.6500000000000D+00  0.0000000000000D+00  0.0000000000000D+00
267  2.6600000000000D+00  0.0000000000000D+00  0.0000000000000D+00
268  2.6700000000000D+00  0.0000000000000D+00  0.0000000000000D+00
269  2.6800000000000D+00  0.0000000000000D+00  0.0000000000000D+00
270  2.6900000000000D+00  0.0000000000000D+00  0.0000000000000D+00
271  2.7000000000000D+00  0.0000000000000D+00  0.0000000000000D+00
272  2.7100000000000D+00  0.0000000000000D+00  0.0000000000000D+00
273  2.7200000000000D+00  0.0000000000000D+00  0.0000000000000D+00
274  2.7300000000000D+00  0.0000000000000D+00  0.0000000000000D+00
275  2.7400000000000D+00  0.0000000000000D+00  0.0000000000000D+00
276  2.7500000000000D+00  0.0000000000000D+00  0.0000000000000D+00
277  2.7600000000000D+00  0.0000000000000D+00  0.0000000000000D+00
278  2.7700000000000D+00  0.0000000000000D+00  0.0000000000000D+00
279  2.7800000000000D+00  0.0000000000000D+00  0.0000000000000D+00
280  2.7900000000000D+00  0.0000000000000D+00  0.0000000000000D+00
281  2.8000000000000D+00  0.0000000000000D+00  0.0000000000000D+00
282  2.8100000000000D+00  0.0000000000000D+00  0.0000000000000D+00
283  2.8200000000000D+00  0.0000000000000D+00  0.0000000000000D+00
284  2.8300000000000D+00  0.0000000000000D+00  0.0000000000000D+00
285  2.8400000000000D+00  0.0000000000000D+00  0.0000000000000D+00
286  2.8500000000000D+00  0.0000000000000D+00  0.0000000000000D+00
287  2.8600000000000D+00  0.0000000000000D+00  0.0000000000000D+00
288  2.8700000000000D+00  0.0000000000000D+00  0.0000000000000D+00
289  2.8800000000000D+00  0.0000000000000D+00  0.0000000000000D+00
290  2.8900000000000D+00  0.0000000000000D+00  0.0000000000000D+00
291  2.9000000000000D+00  0.0000000000000D+00  0.0000000000000D+00
292  2.9100000000000D+00  0.0000000000000D+00  0.0000000000000D+00
293  2.9200000000000D+00  0.0000000000000D+00  0.0000000000000D+00
294  2.9300000000000D+00  0.0000000000000D+00  0.0000000000000D+00
295  2.9400000000000D+00  0.0000000000000D+00  0.0000000000000D+00
296  2.9500000000000D+00  0.0000000000000D+00  0.0000000000000D+00
297  2.9600000000000D+00  0.0000000000000D+00  0.0000000000000D+00
298  2.9700000000000D+00  0.0000000000000D+00  0.0000000000000D+00
299  2.9800000000000D+00  0.0000000000000D+00  0.0000000000000D+00
300  2.9900000000000D+00  0.0000000000000D+00  0.0000000000000D+00
301  3.0000000000000D+00  0.0000000000000D+00  0.0000000000000D+00
302  3.0100000000000D+00  0.0000000000000D+00  0.0000000000000D+00
303  3.0200000000000D+00  0.0000000000000D+00  0.0000000000000D+00
304  3.0300000000000D+00  0.0000000000000D+00  0.0000000000000D+00
305  3.0400000000000D+00  0.0000000000000D+00  0.0000000000000D+00
306  3.0500000000000D+00  0.0000000000000D+00  0.0000000000000D+00
307  3.0600000000000D+00  0.0000000000000D+00  0.0000000000000D+00
308  3.0700000000000D+00  0.0000000000000D+00  0.0000000000000D+00
309  3.0800000000000D+00  0.0000000000000D+00  0.0000000000000D+00
310  3.0900000000000D+00  0.0000000000000D+00  0.0000000000000D+00
311  3.1000000000000D+00  0.0000000000000D+00  0.0000000000000D+00
312  3.1100000000000D+00  0.0000000000000D+00  0.0000000000000D+00
313  3.1200000000000D+00  0.0000000000000D+00  0.0000000000000D+00
314  3.1300000000000D+00  0.0000000000000D+00  0.0000000000000D+00
315  3.1400000000000D+00  0.0000000000000D+00  0.0000000000000D+00
316  3.1500000000000D+00  0.0000000000000D+00  0.0000000000000D+00
317  3.1600000000000D+00  0.0000000000000D+00  0.0000000000000D+00
318  3.1700000000000D+00  0.0000000000000D+00  0.0000000000000D+00
319  3.1800000000000D+00  0.0000000000000D+00  0.0000000000000D+00
320  3.1900000000000D+00  0.0000000000000D+00  0.0000000000000D+00
321  3.2000000000000D+00  0.0000000000000D+00  0.0000000000000D+00
322  3.2100000000000D+00  0.0000000000000D+00  0.0000000000000D+00
323  3.2200000000000D+00  0.0000000000000D+00  0.0000000000000D+00
324  3.2300000000000D+00  0.0000000000000D+00  0.0000000000000D+00
325  3.2400000000000D+00  0.0000000000000D+00  0.0000000000000D+00
326  3.2500000000000D+00  0.0000000000000D+00  0.0000000000000D+00
327  3.2600000000000D+00  0.0000000000000D+00  0.0000000000000D+00
328  3.2700000000000D+00  0.0000000000000D+00  0.0000000000000D+00
329  3.2800000000000D+00  0.0000000000000D+00  0.0000000000000D+00
330  3.2900000000000D+00  0.0000000000000D+00  0.0000000000000D+00
331  3.3000000000000D+00  0.0000000000000D+00  0.0000000000000D+00
332  3.3100000000000D+00  0.0000000000000D+00  0.0000000000000D+00
333  3.3200000000000D+00  0.0000000000000D+00  0.0000000000000D+00
334  3.3300000000000D+00  0.0000000000000D+00  0.0000000000000D+00
335  3.3400000000000D+00  0.0000000000000D+00  0.0000000000000D+00
336  3.3500000000000D+00  0.0000000000000D+00  0.0000000000000D+00
337  3.3600000000000D+00  0.0000000000000D+00  0.0000000000000D+00
338  3.3700000000000D+00  0.0000000000000D+00  0.0000000000000D+00
339  3.3800000000000D+00  0.0000000000000D+00  0.0000000000000D+00
340  3.3900000000000D+00  0.0000000000000D+00  0.0000000000000D+00
341  3.4000000000000D+00  0.0000000000000D+00  0.0000000000000D+00
342  3.4100000000000D+00  0.0000000000000D+00  0.0000000000000D+00
343  3.4200000000000D+00  0.0000000000000D+00  0.0000000000000D+00
344  3.4300000000000D+00  0.0000000000000D+00  0.0000000000000D+00
345  3.4400000000000D+00  0.0000000000000D+00  0.0000000000000D+00
346  3.4500000000000D+00  0.0000000000000D+00  0.0000000000000D+00
347  3.4600000000000D+00  0.0000000000000D+00  0.0000000000000D+00
348  3.4700000000000D+00  0.0000000000000D+00  0.0000000000000D+00
349  3.4800000000000D+00  0.0000000000000D+00  0.0000000000000D+00
350  3.4900000000000D+00  0.0000000000000D+00  0.0000000000000D+00
351  3.5000000000000D+00  0.0000000000000D+00  0.0000000000000D+00
352  3.5100000000000D+00  0.0000000000000D+00  0.0000000000000D+00
353  3.5200000000000D+00  0.0000000000000D+00  0.0000000000000D+00
354  3.5300000000000D+00  0.0000000000000D+00  0.0000000000000D+00
355  3.5400000000000D+00  0.0000000000000D+00  0.0000000000000D+00
356  3.5500000000000D+00  0.0000000000000D+00  0.0000000000000D+00
357  3.5600000000000D+00  0.0000000000000D+00  0.0000000000000D+00
358  3.5700000000000D+00  0.0000000000000D+00  0.0000000000000D+00
359  3.5800000000000D+00  0.0000000000000D+00  0.0000000000000D+00
360  3.5900000000000D+00  0.0000000000000D+00  0.0000000000000D+00
361  3.6000000000000D+00  0.0000000000000D+00  0.0000000000000D+00
362  3.6100000000000D+00  0.0000000000000D+00  0.0000000000000D+00
363  3.6200000000000D+00  0.0000000000000D+00  0.0000000000000D+00
364  3.6300000000000D+00  0.0000000000000D+00  0.0000000000000D+00
365  3.6400000000000D+00  0.0000000000000D+00  0.0000000000000D+00
366  3.6500000000000D+00  0.0000000000000D+00  0.0000000000000D+00
367  3.6600000000000D+00  0.0000000000000D+00  0.0000000000000D+00
368  3.6700000000000D+00  0.0000000000000D+00  0.0000000000000D+00
369  3.6800000000000D+00  0.0000000000000D+00  0.0000000000000D+00
370  3.6900000000000D+00  0.0000000000000D+00  0.0000000000000D+00
371  3.7000000000000D+00  0.0000000000000D+00  0.0000000000000D+00
372  3.7100000000000D+00  0.0000000000000D+00  0.0000000000000D+00
373  3.7200000000000D+00  0.0000000000000D+00  0.0000000000000D+00
374  3.7300000000000D+00  0.0000000000000D+00  0.0000000000000D+00
375  3.7400000000000D+00  0.0000000000000D+00  0.0000000000000D+00
376  3.7500000000000D+00  0.0000000000000D+00  0.0000000000000D+00
377  3.7600000000000D+00  0.0000000000000D+00  0.0000000000000D+00
378  3.7700000000000D+00  0.0000000000000D+00  0.0000000000000D+00
379  3.7800000000000D+00  0.0000000000000D+00  0.0000000000000D+00
380  3.7900000000000D+00  0.0000000000000D+00  0.0000000000000D+00
381  3.8000000000000D+00  0.0000000000000D+00  0.0000000000000D+00
382  3.8100000000000D+00  0.0000000000000D+00  0.0000000000000D+00
383  3.8200000000000D+00  0.0000000000000D+00  0.0000000000000D+00
384  3.8300000000000D+00  0.0000000000000D+00  0.0000000000000D+00
385  3.8400000000000D+00  0.0000000000000D+00  0.0000000000000D+00
386  3.8500000000000D+00  0.0000000000000D+00  0.0000000000000D+00
387  3.8600000000000D+00  0.0000000000000D+00  0.0000000000000D+00
388  3.8700000000000D+00  0.0000000000000D+00  0.0000000000000D+00
389  3.8800000000000D+00  0.0000000000000D+00  0.0000000000000D+00
390  3.8900000000000D+00  0.0000000000000D+00  0.0000000000000D+00
391  3.9000000000000D+00  0.0000000000000D+00  0.0000000000000D+00
392  3.9100000000000D+00  0.0000000000000D+00  0.0000000000000D+00
393  3.9200000000000D+00  0.0000000000000D+00  0.0000000000000D+00
394  3.9300000000000D+00  0.0000000000000D+00  0.0000000000000D+00
395  3.9400000000000D+00  0.0000000000000D+00  0.0000000000000D+00
396  3.9500000000000D+00  0.0000000000000D+00  0.0000000000000D+00
397  3.9600000000000D+00  0.0000000000000D+00  0.0000000000000D+00
398  3.9700000000000D+00  0.0000000000000D+00  0.0000000000000D+00
399  3.9800000000000D+00  0.0000000000000D+00  0.0000000000000D+00
400  3.9900000000000D+00  0.0000000000000D+00  0.0000000000000D+00
401  4.0000000000000D+00  0.0000000000000D+00  0.0000000000000D+00
402  4.0100000000000D+00  0.0000000000000D+00  0.0000000000000D+00
403  4.0200000000000D+00  0.0000000000000D+00  0.0000000000000D+00
404  4.0300000000000D+00  0.0000000000000D+00  0.0000000000000D+00
405  4.0400000000000D+00  0.0000000000000D+00  0.0000000000000D+00
406  4.0500000000000D+00  0.0000000000000D+00  0.0000000000000D+00
407  4.0600000000000D+00  0.0000000000000D+00  0.0000000000000D+00
408  4.0700000000000D+00  0.0000000000000D+00  0.0000000000000D+00
409  4.0800000000000D+00  0.0000000000000D+00  0.0000000000000D+00
410  4.0900000000000D+00  0.0000000000000D+00  0.0000000000000D+00
411  4.1000000000000D+00  0.0000000000000D+00  0.0000000000000D+00
412  4.1100000000000D+00  0.0000000000000D+00  0.0000000000000D+00
413  4.1200000000000D+00  0.0000000000000D+00  0.0000000000000D+00
414  4.1300000000000D+00  0.0000000000000D+00  0.0000000000000D+00
415  4.1400000000000D+00  0.0000000000000D+00  0.0000000000000D+00
416  4.1500000000000D+00  0.0000000000000D+00  0.0000000000000D+00
417  4.1600000000000D+00  0.0000000000000D+00  0.0000000000000D+00
418  4.1700000000000D+00  0.0000000000000D+00  0.0000000000000D+00
419  4.1800000000000D+00  0.0000000000000D+00  0.0000000000000D+00
420  4.1900000000000D+00  0.0000000000000D+00  0.0000000000000D+00
421  4.2000000000000D+00  0.0000000000000D+00  0.0000000000000D+00
422  4.2100000000000D+00  0.0000000000000D+00  0.0000000000000D+00
423  4.2200000000000D+00  0.0000000000000D+00  0.0000000000000D+00
424  4.2300000000000D+00  0.0000000000000D+00  0.0000000000000D+00
425  4.2400000000000D+00  0.0000000000000D+00  0.0000000000000D+00
426  4.2500000000000D+00  0.0000000000000D+00  0.0000000000000D+00
427  4.2600000000000D+00  0.0000000000000D+00  0.0000000000000D+00
428  4.2700000000000D+00  0.0000000000000D+00  0.0000000000000D+00
429  4.2800000000000D+00  0.0000000000000D+00  0.0000000000000D+00
430  4.2900000000000D+00  0.0000000000000D+00  0.0000000000000D+00
431  4.3000000000000D+00  0.0000000000000D+00  0.0000000000000D+00
432  4.3100000000000D+00  0.0000000000000D+00  0.0000000000000D+00
433  4.3200000000000D+00  0.0000000000000D+00  0.0000000000000D+00
434  4.3300000000000D+00  0.0000000000000D+00  0.0000000000000D+00
435  4.3400000000000D+00  0.0000000000000D+00  0.0000000000000D+00
436  4.3500000000000D+00  0.0000000000000D+00  0.0000000000000D+00
437  4.3600000000000D+00  0.0000000000000D+00  0.0000000000000D+00
438  4.3700000000000D+00  0.0000000000000D+00  0.0000000000000D+00
439  4.3800000000000D+00  0.0000000000000D+00  0.0000000000000D+00
440  4.3900000000000D+00  0.0000000000000D+00  0.0000000000000D+00
441  4.4000000000000D+00  0.0000000000000D+00  0.0000000000000D+00
442  4.4100000000000D+00  0.0000000000000D+00  0.0000000000000D+00
443  4.4200000000000D+00  0.0000000000000D+00  0.0000000000000D+00
444  4.4300000000000D+00  0.0000000000000D+00  0.0000000000000D+00