Tc    ONCVPSP  r_core=  1.51  1.60  1.60
43.0000     15.0000      140908    zatom,zion,pspd
8    11     2     4   601     0    pspcod,pspxc,lmax,lloc,mmax,r2well
6.00000000  0.20000000  0.00000000    rchrg fchrg qchrg
2     2     2     0     0    nproj
0                 extension_switch
0                         1.2078165682910D+01  1.3727372577687D+00
1  0.0000000000000D+00 -0.0000000000000D+00  0.0000000000000D+00
2  1.0000000000000D-02 -5.8144139030695D-02  1.6842334672306D-02
3  2.0000000000000D-02 -1.1624624996688D-01  3.3753984539695D-02
4  3.0000000000000D-02 -1.7426352113603D-01  5.0801343787705D-02
5  4.0000000000000D-02 -2.3215158998455D-01  6.8045022729861D-02
6  5.0000000000000D-02 -2.8986380803134D-01  8.5537100159116D-02
7  6.0000000000000D-02 -3.4735055347755D-01  1.0331854583813D-01
8  7.0000000000000D-02 -4.0455860601353D-01  1.2141686489210D-01
9  8.0000000000000D-02 -4.6143059724039D-01  1.3984401173549D-01
10  9.0000000000000D-02 -5.1790454876468D-01  1.5859461616757D-01
11  1.0000000000000D-01 -5.7391350843044D-01  1.7764455841128D-01
12  1.1000000000000D-01 -6.2938529340196D-01  1.9694992344476D-01
13  1.2000000000000D-01 -6.8424234686098D-01  2.1644635782013D-01
14  1.3000000000000D-01 -7.3840171304563D-01  2.3604884471119D-01
15  1.4000000000000D-01 -7.9177513320611D-01  2.5565190503192D-01
16  1.5000000000000D-01 -8.4426926288467D-01  2.7513022461250D-01
17  1.6000000000000D-01 -8.9578600874897D-01  2.9433969936972D-01
18  1.7000000000000D-01 -9.4622298090707D-01  3.1311888223081D-01
19  1.8000000000000D-01 -9.9547405478474D-01  3.3129080863023D-01
20  1.9000000000000D-01 -1.0434300346852D+00  3.4866517044812D-01
21  2.0000000000000D-01 -1.0899794085374D+00  3.6504079909255D-01
22  2.1000000000000D-01 -1.1350091831800D+00  3.8020841731824D-01
23  2.2000000000000D-01 -1.1784057862293D+00  3.9395360834010D-01
24  2.3000000000000D-01 -1.2200560215623D+00  4.0605995365273D-01
25  2.4000000000000D-01 -1.2598480617429D+00  4.1631227877533D-01
26  2.5000000000000D-01 -1.2976724616899D+00  4.2449994931764D-01
27  2.6000000000000D-01 -1.3334231811313D+00  4.3042017041720D-01
28  2.7000000000000D-01 -1.3669985920652D+00  4.3388120604926D-01
29  2.8000000000000D-01 -1.3983024605954D+00  4.3470547799574D-01
30  2.9000000000000D-01 -1.4272448873868D+00  4.3273248797345D-01
31  3.0000000000000D-01 -1.4537431896200D+00  4.2782150277580D-01
32  3.1000000000000D-01 -1.4777227114104D+00  4.1985395633843D-01
33  3.2000000000000D-01 -1.4991175493104D+00  4.0873552254441D-01
34  3.3000000000000D-01 -1.5178711745050D+00  3.9439779980947D-01
35  3.4000000000000D-01 -1.5339369812636D+00  3.7679969196814D-01
36  3.5000000000000D-01 -1.5472786668199D+00  3.5592820204055D-01
37  3.6000000000000D-01 -1.5578705610614D+00  3.3179898757564D-01
38  3.7000000000000D-01 -1.5656977691287D+00  3.0445628334780D-01
39  3.8000000000000D-01 -1.5707562427404D+00  2.7397252319467D-01
40  3.9000000000000D-01 -1.5730527041151D+00  2.4044745219202D-01
41  4.0000000000000D-01 -1.5726044513887D+00  2.0400682348878D-01
42  4.1000000000000D-01 -1.5694390586595D+00  1.6480071883862D-01
43  4.2000000000000D-01 -1.5635939660699D+00  1.2300149548667D-01
44  4.3000000000000D-01 -1.5551159720973D+00  7.8801406380390D-02
45  4.4000000000000D-01 -1.5440606388028D+00  3.2409938590022D-02
46  4.5000000000000D-01 -1.5304916220690D+00 -1.5949080409105D-02
47  4.6000000000000D-01 -1.5144799400525D+00 -6.6040554468384D-02
48  4.7000000000000D-01 -1.4961031942738D+00 -1.1762130997383D-01
49  4.8000000000000D-01 -1.4754447601355D+00 -1.7044333802302D-01
50  4.9000000000000D-01 -1.4525929765760D+00 -2.2425696343929D-01
51  5.0000000000000D-01 -1.4276402667834D+00 -2.7881426651217D-01
52  5.1000000000000D-01 -1.4006823609497D+00 -3.3387195168851D-01
53  5.2000000000000D-01 -1.3718175438856D+00 -3.8919409343977D-01
54  5.3000000000000D-01 -1.3411458013940D+00 -4.4455525403119D-01
55  5.4000000000000D-01 -1.3087682257557D+00 -4.9974242932889D-01
56  5.5000000000000D-01 -1.2747863801291D+00 -5.5455715749268D-01
57  5.6000000000000D-01 -1.2393016529406D+00 -6.0881757467268D-01
58  5.7000000000000D-01 -1.2024149686317D+00 -6.6235902368383D-01
59  5.8000000000000D-01 -1.1642261849947D+00 -7.1503579639359D-01
60  5.9000000000000D-01 -1.1248340412068D+00 -7.6672072867012D-01
61  6.0000000000000D-01 -1.0843357837079D+00 -8.1730590224380D-01
62  6.1000000000000D-01 -1.0428271643984D+00 -8.6670191371853D-01
63  6.2000000000000D-01 -1.0004024957172D+00 -9.1483689773853D-01
64  6.3000000000000D-01 -9.5715454856858D-01 -9.6165589368023D-01
65  6.4000000000000D-01 -9.1317493684360D-01 -1.0071186254499D+00
66  6.5000000000000D-01 -8.6855425981893D-01 -1.0511979194684D+00
67  6.6000000000000D-01 -8.2338235271390D-01 -1.0938775769657D+00
68  6.7000000000000D-01 -7.7774874426259D-01 -1.1351497506880D+00
69  6.8000000000000D-01 -7.3174301363872D-01 -1.1750125264352D+00
70  6.9000000000000D-01 -6.8545515453428D-01 -1.2134671080335D+00
71  7.0000000000000D-01 -6.3897604250371D-01 -1.2505150574787D+00
72  7.1000000000000D-01 -5.9239783624740D-01 -1.2861556066316D+00
73  7.2000000000000D-01 -5.4581435526374D-01 -1.3203829846433D+00
74  7.3000000000000D-01 -4.9932141482581D-01 -1.3531840677844D+00
75  7.4000000000000D-01 -4.5301714116118D-01 -1.3845355741160D+00
76  7.5000000000000D-01 -4.0700217738927D-01 -1.4144023874775D+00
77  7.6000000000000D-01 -3.6137982103527D-01 -1.4427357982178D+00
78  7.7000000000000D-01 -3.1625607158033D-01 -1.4694721097738D+00
79  7.8000000000000D-01 -2.7173957411421D-01 -1.4945316899032D+00
80  7.9000000000000D-01 -2.2794145299588D-01 -1.5178184685291D+00
81  8.0000000000000D-01 -1.8497503018863D-01 -1.5392199082678D+00
82  8.1000000000000D-01 -1.4295542538767D-01 -1.5586074641463D+00
83  8.2000000000000D-01 -1.0199903761262D-01 -1.5758375390224D+00
84  8.3000000000000D-01 -6.2222910543581D-02 -1.5907529310132D+00
85  8.4000000000000D-01 -2.3743986486453D-02 -1.6031847589997D+00
86  8.5000000000000D-01  1.3321743585245D-02 -1.6129548422024D+00
87  8.6000000000000D-01  4.8860183990779D-02 -1.6198785000656D+00
88  8.7000000000000D-01  8.2760160035206D-02 -1.6237677293978D+00
89  8.8000000000000D-01  1.1491451097698D-01 -1.6244347070233D+00
90  8.9000000000000D-01  1.4522123381737D-01 -1.6216955582277D+00
91  9.0000000000000D-01  1.7358465969181D-01 -1.6153743241577D+00
92  9.1000000000000D-01  1.9991664314346D-01 -1.6053070552010D+00
93  9.2000000000000D-01  2.2413774337212D-01 -1.5913459524035D+00
94  9.3000000000000D-01  2.4617837573371D-01 -1.5733634753665D+00
95  9.4000000000000D-01  2.6597991138276D-01 -1.5512563330703D+00
96  9.5000000000000D-01  2.8349570307750D-01 -1.5249492739535D+00
97  9.6000000000000D-01  2.9869201588345D-01 -1.4943985936444D+00
98  9.7000000000000D-01  3.1154869713579D-01 -1.4595948620903D+00
99  9.8000000000000D-01  3.2205995441890D-01 -1.4205658799086D+00
100  9.9000000000000D-01  3.3023552957100D-01 -1.3773808246797D+00
101  1.0000000000000D+00  3.3610022156620D-01 -1.3301494870335D+00
102  1.0100000000000D+00  3.3969436911237D-01 -1.2790241567691D+00
103  1.0200000000000D+00  3.4107385101713D-01 -1.2242000291837D+00
104  1.0300000000000D+00  3.4030986310747D-01 -1.1659148444243D+00
105  1.0400000000000D+00  3.3748816265245D-01 -1.1044467945180D+00
106  1.0500000000000D+00  3.3271014585780D-01 -1.0401180496567D+00
107  1.0600000000000D+00  3.2609023309025D-01 -9.7328674360444D-01
108  1.0700000000000D+00  3.1775548319532D-01 -9.0434574504127D-01
109  1.0800000000000D+00  3.0784443758026D-01 -8.3371898844355D-01
110  1.0900000000000D+00  2.9650606007153D-01 -7.6185808860985D-01
111  1.1000000000000D+00  2.8389837087768D-01 -6.8923769183945D-01
112  1.1100000000000D+00  2.7018616540237D-01 -6.1634815426766D-01
113  1.1200000000000D+00  2.5553966980381D-01 -5.4369098776863D-01
114  1.1300000000000D+00  2.4013378828404D-01 -4.7177644974263D-01
115  1.1400000000000D+00  2.2414396277751D-01 -4.0110938081180D-01
116  1.1500000000000D+00  2.0774558396929D-01 -3.3218748316959D-01
117  1.1600000000000D+00  1.9111242855045D-01 -2.6549601943358D-01
118  1.1700000000000D+00  1.7441587703625D-01 -2.0150519867618D-01
119  1.1800000000000D+00  1.5781798613384D-01 -1.4064668736714D-01
120  1.1900000000000D+00  1.4147444459816D-01 -8.3323838316020D-02
121  1.2000000000000D+00  1.2553428991117D-01 -2.9910742827856D-02
122  1.2100000000000D+00  1.1013223242679D-01  1.9273663284673D-02
123  1.2200000000000D+00  9.5389799685696D-02  6.3961437523784D-02
124  1.2300000000000D+00  8.1418226134020D-02  1.0392579414573D-01
125  1.2400000000000D+00  6.8312890700458D-02  1.3899971728561D-01
126  1.2500000000000D+00  5.6149162014438D-02  1.6908930635684D-01
127  1.2600000000000D+00  4.4990831792570D-02  1.9414542446137D-01
128  1.2700000000000D+00  3.4884523997424D-02  2.1418223240515D-01
129  1.2800000000000D+00  2.5853676585117D-02  2.2929595695068D-01
130  1.2900000000000D+00  1.7910748397439D-02  2.3962464579815D-01
131  1.3000000000000D+00  1.1049202151707D-02  2.4537419493424D-01
132  1.3100000000000D+00  5.2411252837762D-03  2.4682400523980D-01
133  1.3200000000000D+00  4.4977748993691D-04  2.4428666440141D-01
134  1.3300000000000D+00 -3.3802737153257D-03  2.3813588329546D-01
135  1.3400000000000D+00 -6.3146314830970D-03  2.2877445954478D-01
136  1.3500000000000D+00 -8.4254247960818D-03  2.1662917203825D-01
137  1.3600000000000D+00 -9.7966822470394D-03  2.0215520708323D-01
138  1.3700000000000D+00 -1.0515392621937D-02  1.8581610565009D-01
139  1.3800000000000D+00 -1.0674551901174D-02  1.6809245051633D-01
140  1.3900000000000D+00 -1.0367817779394D-02  1.4945284213644D-01
141  1.4000000000000D+00 -9.6912619667107D-03  1.3037577600604D-01
142  1.4100000000000D+00 -8.7379302121707D-03  1.1131448076862D-01
143  1.4200000000000D+00 -7.5967165472855D-03  9.2701266509474D-02
144  1.4300000000000D+00 -6.3563680485133D-03  7.4964012820736D-02
145  1.4400000000000D+00 -5.0898811584690D-03  5.8456576994143D-02
146  1.4500000000000D+00 -3.8731927250719D-03  4.3545847521429D-02
147  1.4600000000000D+00 -2.7617334627009D-03  3.0506159355568D-02
148  1.4700000000000D+00 -1.8066307611122D-03  1.9593799464352D-02
149  1.4800000000000D+00 -1.0466558686180D-03  1.1010584084554D-02
150  1.4900000000000D+00 -5.0136450498555D-04  4.8761623349811D-03
151  1.5000000000000D+00 -2.1528139502141D-04  1.5711006197885D-03
152  1.5100000000000D+00 -8.6957134313932D-05  1.8404532234399D-04
153  1.5200000000000D+00 -1.7155294006366D-05 -1.3109836473012D-04
154  1.5300000000000D+00  4.2629428745896D-06 -1.1881307789771D-05
155  1.5400000000000D+00  4.6088239706725D-06 -1.2845317836850D-05
156  1.5500000000000D+00  0.0000000000000D+00  0.0000000000000D+00
157  1.5600000000000D+00  0.0000000000000D+00  0.0000000000000D+00
158  1.5700000000000D+00  0.0000000000000D+00  0.0000000000000D+00
159  1.5800000000000D+00  0.0000000000000D+00  0.0000000000000D+00
160  1.5900000000000D+00  0.0000000000000D+00  0.0000000000000D+00
161  1.6000000000000D+00  0.0000000000000D+00  0.0000000000000D+00
162  1.6100000000000D+00  0.0000000000000D+00  0.0000000000000D+00
163  1.6200000000000D+00  0.0000000000000D+00  0.0000000000000D+00
164  1.6300000000000D+00  0.0000000000000D+00  0.0000000000000D+00
165  1.6400000000000D+00  0.0000000000000D+00  0.0000000000000D+00
166  1.6500000000000D+00  0.0000000000000D+00  0.0000000000000D+00
167  1.6600000000000D+00  0.0000000000000D+00  0.0000000000000D+00
168  1.6700000000000D+00  0.0000000000000D+00  0.0000000000000D+00
169  1.6800000000000D+00  0.0000000000000D+00  0.0000000000000D+00
170  1.6900000000000D+00  0.0000000000000D+00  0.0000000000000D+00
171  1.7000000000000D+00  0.0000000000000D+00  0.0000000000000D+00
172  1.7100000000000D+00  0.0000000000000D+00  0.0000000000000D+00
173  1.7200000000000D+00  0.0000000000000D+00  0.0000000000000D+00
174  1.7300000000000D+00  0.0000000000000D+00  0.0000000000000D+00
175  1.7400000000000D+00  0.0000000000000D+00  0.0000000000000D+00
176  1.7500000000000D+00  0.0000000000000D+00  0.0000000000000D+00
177  1.7600000000000D+00  0.0000000000000D+00  0.0000000000000D+00
178  1.7700000000000D+00  0.0000000000000D+00  0.0000000000000D+00
179  1.7800000000000D+00  0.0000000000000D+00  0.0000000000000D+00
180  1.7900000000000D+00  0.0000000000000D+00  0.0000000000000D+00
181  1.8000000000000D+00  0.0000000000000D+00  0.0000000000000D+00
182  1.8100000000000D+00  0.0000000000000D+00  0.0000000000000D+00
183  1.8200000000000D+00  0.0000000000000D+00  0.0000000000000D+00
184  1.8300000000000D+00  0.0000000000000D+00  0.0000000000000D+00
185  1.8400000000000D+00  0.0000000000000D+00  0.0000000000000D+00
186  1.8500000000000D+00  0.0000000000000D+00  0.0000000000000D+00
187  1.8600000000000D+00  0.0000000000000D+00  0.0000000000000D+00
188  1.8700000000000D+00  0.0000000000000D+00  0.0000000000000D+00
189  1.8800000000000D+00  0.0000000000000D+00  0.0000000000000D+00
190  1.8900000000000D+00  0.0000000000000D+00  0.0000000000000D+00
191  1.9000000000000D+00  0.0000000000000D+00  0.0000000000000D+00
192  1.9100000000000D+00  0.0000000000000D+00  0.0000000000000D+00
193  1.9200000000000D+00  0.0000000000000D+00  0.0000000000000D+00
194  1.9300000000000D+00  0.0000000000000D+00  0.0000000000000D+00
195  1.9400000000000D+00  0.0000000000000D+00  0.0000000000000D+00
196  1.9500000000000D+00  0.0000000000000D+00  0.0000000000000D+00
197  1.9600000000000D+00  0.0000000000000D+00  0.0000000000000D+00
198  1.9700000000000D+00  0.0000000000000D+00  0.0000000000000D+00
199  1.9800000000000D+00  0.0000000000000D+00  0.0000000000000D+00
200  1.9900000000000D+00  0.0000000000000D+00  0.0000000000000D+00
201  2.0000000000000D+00  0.0000000000000D+00  0.0000000000000D+00
202  2.0100000000000D+00  0.0000000000000D+00  0.0000000000000D+00
203  2.0200000000000D+00  0.0000000000000D+00  0.0000000000000D+00
204  2.0300000000000D+00  0.0000000000000D+00  0.0000000000000D+00
205  2.0400000000000D+00  0.0000000000000D+00  0.0000000000000D+00
206  2.0500000000000D+00  0.0000000000000D+00  0.0000000000000D+00
207  2.0600000000000D+00  0.0000000000000D+00  0.0000000000000D+00
208  2.0700000000000D+00  0.0000000000000D+00  0.0000000000000D+00
209  2.0800000000000D+00  0.0000000000000D+00  0.0000000000000D+00
210  2.0900000000000D+00  0.0000000000000D+00  0.0000000000000D+00
211  2.1000000000000D+00  0.0000000000000D+00  0.0000000000000D+00
212  2.1100000000000D+00  0.0000000000000D+00  0.0000000000000D+00
213  2.1200000000000D+00  0.0000000000000D+00  0.0000000000000D+00
214  2.1300000000000D+00  0.0000000000000D+00  0.0000000000000D+00
215  2.1400000000000D+00  0.0000000000000D+00  0.0000000000000D+00
216  2.1500000000000D+00  0.0000000000000D+00  0.0000000000000D+00
217  2.1600000000000D+00  0.0000000000000D+00  0.0000000000000D+00
218  2.1700000000000D+00  0.0000000000000D+00  0.0000000000000D+00
219  2.1800000000000D+00  0.0000000000000D+00  0.0000000000000D+00
220  2.1900000000000D+00  0.0000000000000D+00  0.0000000000000D+00
221  2.2000000000000D+00  0.0000000000000D+00  0.0000000000000D+00
222  2.2100000000000D+00  0.0000000000000D+00  0.0000000000000D+00
223  2.2200000000000D+00  0.0000000000000D+00  0.0000000000000D+00
224  2.2300000000000D+00  0.0000000000000D+00  0.0000000000000D+00
225  2.2400000000000D+00  0.0000000000000D+00  0.0000000000000D+00
226  2.2500000000000D+00  0.0000000000000D+00  0.0000000000000D+00
227  2.2600000000000D+00  0.0000000000000D+00  0.0000000000000D+00
228  2.2700000000000D+00  0.0000000000000D+00  0.0000000000000D+00
229  2.2800000000000D+00  0.0000000000000D+00  0.0000000000000D+00
230  2.2900000000000D+00  0.0000000000000D+00  0.0000000000000D+00
231  2.3000000000000D+00  0.0000000000000D+00  0.0000000000000D+00
232  2.3100000000000D+00  0.0000000000000D+00  0.0000000000000D+00
233  2.3200000000000D+00  0.0000000000000D+00  0.0000000000000D+00
234  2.3300000000000D+00  0.0000000000000D+00  0.0000000000000D+00
235  2.3400000000000D+00  0.0000000000000D+00  0.0000000000000D+00
236  2.3500000000000D+00  0.0000000000000D+00  0.0000000000000D+00
237  2.3600000000000D+00  0.0000000000000D+00  0.0000000000000D+00
238  2.3700000000000D+00  0.0000000000000D+00  0.0000000000000D+00
239  2.3800000000000D+00  0.0000000000000D+00  0.0000000000000D+00
240  2.3900000000000D+00  0.0000000000000D+00  0.0000000000000D+00
241  2.4000000000000D+00  0.0000000000000D+00  0.0000000000000D+00
242  2.4100000000000D+00  0.0000000000000D+00  0.0000000000000D+00
243  2.4200000000000D+00  0.0000000000000D+00  0.0000000000000D+00
244  2.4300000000000D+00  0.0000000000000D+00  0.0000000000000D+00
245  2.4400000000000D+00  0.0000000000000D+00  0.0000000000000D+00
246  2.4500000000000D+00  0.0000000000000D+00  0.0000000000000D+00
247  2.4600000000000D+00  0.0000000000000D+00  0.0000000000000D+00
248  2.4700000000000D+00  0.0000000000000D+00  0.0000000000000D+00
249  2.4800000000000D+00  0.0000000000000D+00  0.0000000000000D+00
250  2.4900000000000D+00  0.0000000000000D+00  0.0000000000000D+00
251  2.5000000000000D+00  0.0000000000000D+00  0.0000000000000D+00
252  2.5100000000000D+00  0.0000000000000D+00  0.0000000000000D+00
253  2.5200000000000D+00  0.0000000000000D+00  0.0000000000000D+00
254  2.5300000000000D+00  0.0000000000000D+00  0.0000000000000D+00
255  2.5400000000000D+00  0.0000000000000D+00  0.0000000000000D+00
256  2.5500000000000D+00  0.0000000000000D+00  0.0000000000000D+00
257  2.5600000000000D+00  0.0000000000000D+00  0.0000000000000D+00
258  2.5700000000000D+00  0.0000000000000D+00  0.0000000000000D+00
259  2.5800000000000D+00  0.0000000000000D+00  0.0000000000000D+00
260  2.5900000000000D+00  0.0000000000000D+00  0.0000000000000D+00
261  2.6000000000000D+00  0.0000000000000D+00  0.0000000000000D+00
262  2.6100000000000D+00  0.0000000000000D+00  0.0000000000000D+00
263  2.6200000000000D+00  0.0000000000000D+00  0.0000000000000D+00
264  2.6300000000000D+00  0.0000000000000D+00  0.0000000000000D+00
265  2.6400000000000D+00  0.0000000000000D+00  0.0000000000000D+00
266  2.6500000000000D+00  0.0000000000000D+00  0.0000000000000D+00
267  2.6600000000000D+00  0.0000000000000D+00  0.0000000000000D+00
268  2.6700000000000D+00  0.0000000000000D+00  0.0000000000000D+00
269  2.6800000000000D+00  0.0000000000000D+00  0.0000000000000D+00
270  2.6900000000000D+00  0.0000000000000D+00  0.0000000000000D+00
271  2.7000000000000D+00  0.0000000000000D+00  0.0000000000000D+00
272  2.7100000000000D+00  0.0000000000000D+00  0.0000000000000D+00
273  2.7200000000000D+00  0.0000000000000D+00  0.0000000000000D+00
274  2.7300000000000D+00  0.0000000000000D+00  0.0000000000000D+00
275  2.7400000000000D+00  0.0000000000000D+00  0.0000000000000D+00
276  2.7500000000000D+00  0.0000000000000D+00  0.0000000000000D+00
277  2.7600000000000D+00  0.0000000000000D+00  0.0000000000000D+00
278  2.7700000000000D+00  0.0000000000000D+00  0.0000000000000D+00
279  2.7800000000000D+00  0.0000000000000D+00  0.0000000000000D+00
280  2.7900000000000D+00  0.0000000000000D+00  0.0000000000000D+00
281  2.8000000000000D+00  0.0000000000000D+00  0.0000000000000D+00
282  2.8100000000000D+00  0.0000000000000D+00  0.0000000000000D+00
283  2.8200000000000D+00  0.0000000000000D+00  0.0000000000000D+00
284  2.8300000000000D+00  0.0000000000000D+00  0.0000000000000D+00
285  2.8400000000000D+00  0.0000000000000D+00  0.0000000000000D+00
286  2.8500000000000D+00  0.0000000000000D+00  0.0000000000000D+00
287  2.8600000000000D+00  0.0000000000000D+00  0.0000000000000D+00
288  2.8700000000000D+00  0.0000000000000D+00  0.0000000000000D+00
289  2.8800000000000D+00  0.0000000000000D+00  0.0000000000000D+00
290  2.8900000000000D+00  0.0000000000000D+00  0.0000000000000D+00
291  2.9000000000000D+00  0.0000000000000D+00  0.0000000000000D+00
292  2.9100000000000D+00  0.0000000000000D+00  0.0000000000000D+00
293  2.9200000000000D+00  0.0000000000000D+00  0.0000000000000D+00
294  2.9300000000000D+00  0.0000000000000D+00  0.0000000000000D+00
295  2.9400000000000D+00  0.0000000000000D+00  0.0000000000000D+00
296  2.9500000000000D+00  0.0000000000000D+00  0.0000000000000D+00
297  2.9600000000000D+00  0.0000000000000D+00  0.0000000000000D+00
298  2.9700000000000D+00  0.0000000000000D+00  0.0000000000000D+00
299  2.9800000000000D+00  0.0000000000000D+00  0.0000000000000D+00
300  2.9900000000000D+00  0.0000000000000D+00  0.0000000000000D+00
301  3.0000000000000D+00  0.0000000000000D+00  0.0000000000000D+00
302  3.0100000000000D+00  0.0000000000000D+00  0.0000000000000D+00
303  3.0200000000000D+00  0.0000000000000D+00  0.0000000000000D+00
304  3.0300000000000D+00  0.0000000000000D+00  0.0000000000000D+00
305  3.0400000000000D+00  0.0000000000000D+00  0.0000000000000D+00
306  3.0500000000000D+00  0.0000000000000D+00  0.0000000000000D+00
307  3.0600000000000D+00  0.0000000000000D+00  0.0000000000000D+00
308  3.0700000000000D+00  0.0000000000000D+00  0.0000000000000D+00
309  3.0800000000000D+00  0.0000000000000D+00  0.0000000000000D+00
310  3.0900000000000D+00  0.0000000000000D+00  0.0000000000000D+00
311  3.1000000000000D+00  0.0000000000000D+00  0.0000000000000D+00
312  3.1100000000000D+00  0.0000000000000D+00  0.0000000000000D+00
313  3.1200000000000D+00  0.0000000000000D+00  0.0000000000000D+00
314  3.1300000000000D+00  0.0000000000000D+00  0.0000000000000D+00
315  3.1400000000000D+00  0.0000000000000D+00  0.0000000000000D+00
316  3.1500000000000D+00  0.0000000000000D+00  0.0000000000000D+00
317  3.1600000000000D+00  0.0000000000000D+00  0.0000000000000D+00
318  3.1700000000000D+00  0.0000000000000D+00  0.0000000000000D+00
319  3.1800000000000D+00  0.0000000000000D+00  0.0000000000000D+00
320  3.1900000000000D+00  0.0000000000000D+00  0.0000000000000D+00
321  3.2000000000000D+00  0.0000000000000D+00  0.0000000000000D+00
322  3.2100000000000D+00  0.0000000000000D+00  0.0000000000000D+00
323  3.2200000000000D+00  0.0000000000000D+00  0.0000000000000D+00
324  3.2300000000000D+00  0.0000000000000D+00  0.0000000000000D+00
325  3.2400000000000D+00  0.0000000000000D+00  0.0000000000000D+00
326  3.2500000000000D+00  0.0000000000000D+00  0.0000000000000D+00
327  3.2600000000000D+00  0.0000000000000D+00  0.0000000000000D+00
328  3.2700000000000D+00  0.0000000000000D+00  0.0000000000000D+00
329  3.2800000000000D+00  0.0000000000000D+00  0.0000000000000D+00
330  3.2900000000000D+00  0.0000000000000D+00  0.0000000000000D+00
331  3.3000000000000D+00  0.0000000000000D+00  0.0000000000000D+00
332  3.3100000000000D+00  0.0000000000000D+00  0.0000000000000D+00
333  3.3200000000000D+00  0.0000000000000D+00  0.0000000000000D+00
334  3.3300000000000D+00  0.0000000000000D+00  0.0000000000000D+00
335  3.3400000000000D+00  0.0000000000000D+00  0.0000000000000D+00
336  3.3500000000000D+00  0.0000000000000D+00  0.0000000000000D+00
337  3.3600000000000D+00  0.0000000000000D+00  0.0000000000000D+00
338  3.3700000000000D+00  0.0000000000000D+00  0.0000000000000D+00
339  3.3800000000000D+00  0.0000000000000D+00  0.0000000000000D+00
340  3.3900000000000D+00  0.0000000000000D+00  0.0000000000000D+00
341  3.4000000000000D+00  0.0000000000000D+00  0.0000000000000D+00
342  3.4100000000000D+00  0.0000000000000D+00  0.0000000000000D+00
343  3.4200000000000D+00  0.0000000000000D+00  0.0000000000000D+00
344  3.4300000000000D+00  0.0000000000000D+00  0.0000000000000D+00
345  3.4400000000000D+00  0.0000000000000D+00  0.0000000000000D+00
346  3.4500000000000D+00  0.0000000000000D+00  0.0000000000000D+00
347  3.4600000000000D+00  0.0000000000000D+00  0.0000000000000D+00
348  3.4700000000000D+00  0.0000000000000D+00  0.0000000000000D+00
349  3.4800000000000D+00  0.0000000000000D+00  0.0000000000000D+00
350  3.4900000000000D+00  0.0000000000000D+00  0.0000000000000D+00
351  3.5000000000000D+00  0.0000000000000D+00  0.0000000000000D+00
352  3.5100000000000D+00  0.0000000000000D+00  0.0000000000000D+00
353  3.5200000000000D+00  0.0000000000000D+00  0.0000000000000D+00
354  3.5300000000000D+00  0.0000000000000D+00  0.0000000000000D+00
355  3.5400000000000D+00  0.0000000000000D+00  0.0000000000000D+00
356  3.5500000000000D+00  0.0000000000000D+00  0.0000000000000D+00
357  3.5600000000000D+00  0.0000000000000D+00  0.0000000000000D+00
358  3.5700000000000D+00  0.0000000000000D+00  0.0000000000000D+00
359  3.5800000000000D+00  0.0000000000000D+00  0.0000000000000D+00
360  3.5900000000000D+00  0.0000000000000D+00  0.0000000000000D+00
361  3.6000000000000D+00  0.0000000000000D+00  0.0000000000000D+00
362  3.6100000000000D+00  0.0000000000000D+00  0.0000000000000D+00
363  3.6200000000000D+00  0.0000000000000D+00  0.0000000000000D+00
364  3.6300000000000D+00  0.0000000000000D+00  0.0000000000000D+00
365  3.6400000000000D+00  0.0000000000000D+00  0.0000000000000D+00
366  3.6500000000000D+00  0.0000000000000D+00  0.0000000000000D+00
367  3.6600000000000D+00  0.0000000000000D+00  0.0000000000000D+00
368  3.6700000000000D+00  0.0000000000000D+00  0.0000000000000D+00
369  3.6800000000000D+00  0.0000000000000D+00  0.0000000000000D+00
370  3.6900000000000D+00  0.0000000000000D+00  0.0000000000000D+00
371  3.7000000000000D+00  0.0000000000000D+00  0.0000000000000D+00
372  3.7100000000000D+00  0.0000000000000D+00  0.0000000000000D+00
373  3.7200000000000D+00  0.0000000000000D+00  0.0000000000000D+00
374  3.7300000000000D+00  0.0000000000000D+00  0.0000000000000D+00
375  3.7400000000000D+00  0.0000000000000D+00  0.0000000000000D+00
376  3.7500000000000D+00  0.0000000000000D+00  0.0000000000000D+00
377  3.7600000000000D+00  0.0000000000000D+00  0.0000000000000D+00
378  3.7700000000000D+00  0.0000000000000D+00  0.0000000000000D+00
379  3.7800000000000D+00  0.0000000000000D+00  0.0000000000000D+00
380  3.7900000000000D+00  0.0000000000000D+00  0.0000000000000D+00
381  3.8000000000000D+00  0.0000000000000D+00  0.0000000000000D+00
382  3.8100000000000D+00  0.0000000000000D+00  0.0000000000000D+00
383  3.8200000000000D+00  0.0000000000000D+00  0.0000000000000D+00
384  3.8300000000000D+00  0.0000000000000D+00  0.0000000000000D+00
385  3.8400000000000D+00  0.0000000000000D+00  0.0000000000000D+00
386  3.8500000000000D+00  0.0000000000000D+00  0.0000000000000D+00
387  3.8600000000000D+00  0.0000000000000D+00  0.0000000000000D+00
388  3.8700000000000D+00  0.0000000000000D+00  0.0000000000000D+00
389  3.8800000000000D+00  0.0000000000000D+00  0.0000000000000D+00
390  3.8900000000000D+00  0.0000000000000D+00  0.0000000000000D+00
391  3.9000000000000D+00  0.0000000000000D+00  0.0000000000000D+00
392  3.9100000000000D+00  0.0000000000000D+00  0.0000000000000D+00
393  3.9200000000000D+00  0.0000000000000D+00  0.0000000000000D+00
394  3.9300000000000D+00  0.0000000000000D+00  0.0000000000000D+00
395  3.9400000000000D+00  0.0000000000000D+00  0.0000000000000D+00
396  3.9500000000000D+00  0.0000000000000D+00  0.0000000000000D+00
397  3.9600000000000D+00  0.0000000000000D+00  0.0000000000000D+00
398  3.9700000000000D+00  0.0000000000000D+00  0.0000000000000D+00
399  3.9800000000000D+00  0.0000000000000D+00  0.0000000000000D+00
400  3.9900000000000D+00  0.0000000000000D+00  0.0000000000000D+00
401  4.0000000000000D+00  0.0000000000000D+00  0.0000000000000D+00
402  4.0100000000000D+00  0.0000000000000D+00  0.0000000000000D+00
403  4.0200000000000D+00  0.0000000000000D+00  0.0000000000000D+00
404  4.0300000000000D+00  0.0000000000000D+00  0.0000000000000D+00
405  4.0400000000000D+00  0.0000000000000D+00  0.0000000000000D+00
406  4.0500000000000D+00  0.0000000000000D+00  0.0000000000000D+00
407  4.0600000000000D+00  0.0000000000000D+00  0.0000000000000D+00
408  4.0700000000000D+00  0.0000000000000D+00  0.0000000000000D+00
409  4.0800000000000D+00  0.0000000000000D+00  0.0000000000000D+00
410  4.0900000000000D+00  0.0000000000000D+00  0.0000000000000D+00
411  4.1000000000000D+00  0.0000000000000D+00  0.0000000000000D+00
412  4.1100000000000D+00  0.0000000000000D+00  0.0000000000000D+00
413  4.1200000000000D+00  0.0000000000000D+00  0.0000000000000D+00
414  4.1300000000000D+00  0.0000000000000D+00  0.0000000000000D+00
415  4.1400000000000D+00  0.0000000000000D+00  0.0000000000000D+00
416  4.1500000000000D+00  0.0000000000000D+00  0.0000000000000D+00
417  4.1600000000000D+00  0.0000000000000D+00  0.0000000000000D+00
418  4.1700000000000D+00  0.0000000000000D+00  0.0000000000000D+00
419  4.1800000000000D+00  0.0000000000000D+00  0.0000000000000D+00
420  4.1900000000000D+00  0.0000000000000D+00  0.0000000000000D+00
421  4.2000000000000D+00  0.0000000000000D+00  0.0000000000000D+00
422  4.2100000000000D+00  0.0000000000000D+00  0.0000000000000D+00
423  4.2200000000000D+00  0.0000000000000D+00  0.0000000000000D+00
424  4.2300000000000D+00  0.0000000000000D+00  0.0000000000000D+00
425  4.2400000000000D+00  0.0000000000000D+00  0.0000000000000D+00
426  4.2500000000000D+00  0.0000000000000D+00  0.0000000000000D+00
427  4.2600000000000D+00  0.0000000000000D+00  0.0000000000000D+00
428  4.2700000000000D+00  0.0000000000000D+00  0.0000000000000D+00
429  4.2800000000000D+00  0.0000000000000D+00  0.0000000000000D+00
430  4.2900000000000D+00  0.0000000000000D+00  0.0000000000000D+00
431  4.3000000000000D+00  0.0000000000000D+00  0.0000000000000D+00
432  4.3100000000000D+00  0.0000000000000D+00  0.0000000000000D+00
433  4.3200000000000D+00  0.0000000000000D+00  0.0000000000000D+00
434  4.3300000000000D+00  0.0000000000000D+00  0.0000000000000D+00
435  4.3400000000000D+00  0.0000000000000D+00  0.0000000000000D+00
436  4.3500000000000D+00  0.0000000000000D+00  0.0000000000000D+00
437  4.3600000000000D+00  0.0000000000000D+00  0.0000000000000D+00
438  4.3700000000000D+00  0.0000000000000D+00  0.0000000000000D+00
439  4.3800000000000D+00  0.0000000000000D+00  0.0000000000000D+00
440  4.3900000000000D+00  0.0000000000000D+00  0.0000000000000D+00
441  4.4000000000000D+00  0.0000000000000D+00  0.0000000000000D+00
442  4.4100000000000D+00  0.0000000000000D+00  0.0000000000000D+00
443  4.4200000000000D+00  0.0000000000000D+00  0.0000000000000D+00
444  4.4300000000000D+00  0.0000000000000D+00  0.0000000000000D+00