Tc    ONCVPSP  r_core=  1.56  1.66  1.66
43.0000     15.0000      140910    zatom,zion,pspd
8    11     2     4   601     0    pspcod,pspxc,lmax,lloc,mmax,r2well
6.00000000  0.10000000  0.00000000    rchrg fchrg qchrg
2     2     2     0     0    nproj
0                 extension_switch
0                         1.1744039595940D+01  1.3984916521357D+00
1  0.0000000000000D+00 -0.0000000000000D+00  0.0000000000000D+00
2  1.0000000000000D-02 -5.8769288965997D-02  2.0104160678903D-02
3  2.0000000000000D-02 -1.1748018780894D-01  4.0210735584879D-02
4  3.0000000000000D-02 -1.7607387424101D-01  6.0320628451625D-02
5  4.0000000000000D-02 -2.3449067067094D-01  8.0431751037949D-02
6  5.0000000000000D-02 -2.9266963897041D-01  1.0053759917616D-01
7  6.0000000000000D-02 -3.5054820173184D-01  1.2062591388833D-01
8  7.0000000000000D-02 -4.0806179817225D-01  1.4067745366043D-01
9  8.0000000000000D-02 -4.6514358227112D-01  1.6066490206688D-01
10  9.0000000000000D-02 -5.2172417004354D-01  1.8055193264081D-01
11  1.0000000000000D-01 -5.7773144204096D-01  2.0029245017660D-01
12  1.1000000000000D-01 -6.3309040628062D-01  2.1983002468000D-01
13  1.2000000000000D-01 -6.8772312580645D-01  2.3909753084543D-01
14  1.3000000000000D-01 -7.4154871403575D-01  2.5801700245799D-01
15  1.4000000000000D-01 -7.9448339993164D-01  2.7649970738784D-01
16  1.5000000000000D-01 -8.4644066390461D-01  2.9444644513549D-01
17  1.6000000000000D-01 -8.9733144420640D-01  3.1174806501036D-01
18  1.7000000000000D-01 -9.4706441233146D-01  3.2828619908753D-01
19  1.8000000000000D-01 -9.9554631496816D-01  3.4393420066605D-01
20  1.9000000000000D-01 -1.0426823789578D+00  3.5855827553441D-01
21  2.0000000000000D-01 -1.0883767742160D+00  3.7201878866362D-01
22  2.1000000000000D-01 -1.1325331295363D+00  3.8417172833935D-01
23  2.2000000000000D-01 -1.1750550941939D+00  3.9487030395287D-01
24  2.3000000000000D-01 -1.2158469388661D+00  4.0396665499073D-01
25  2.4000000000000D-01 -1.2548141870521D+00  4.1131364208649D-01
26  2.5000000000000D-01 -1.2918642686524D+00  4.1676669223746D-01
27  2.6000000000000D-01 -1.3269071893684D+00  4.2018567591662D-01
28  2.7000000000000D-01 -1.3598562021816D+00  4.2143677310664D-01
29  2.8000000000000D-01 -1.3906284752907D+00  4.2039430832420D-01
30  2.9000000000000D-01 -1.4191457474661D+00  4.1694252530606D-01
31  3.0000000000000D-01 -1.4453349605641D+00  4.1097726900728D-01
32  3.1000000000000D-01 -1.4691288612572D+00  4.0240754949011D-01
33  3.2000000000000D-01 -1.4904665634267D+00  3.9115696116235D-01
34  3.3000000000000D-01 -1.5092940582909D+00  3.7716492056380D-01
35  3.4000000000000D-01 -1.5255646941957D+00  3.6038777681958D-01
36  3.5000000000000D-01 -1.5392395561318D+00  3.4079961150676D-01
37  3.6000000000000D-01 -1.5502878319060D+00  3.1839295065344D-01
38  3.7000000000000D-01 -1.5586870599395D+00  2.9317912255082D-01
39  3.8000000000000D-01 -1.5644233464131D+00  2.6518848091729D-01
40  3.9000000000000D-01 -1.5674914898941D+00  2.3447034174460D-01
41  4.0000000000000D-01 -1.5678950314647D+00  2.0109268449576D-01
42  4.1000000000000D-01 -1.5656462390990D+00  1.6514163937602D-01
43  4.2000000000000D-01 -1.5607660175155D+00  1.2672074637334D-01
44  4.3000000000000D-01 -1.5532837487004D+00  8.5950004976920D-02
45  4.4000000000000D-01 -1.5432370667592D+00  4.2964730848481D-02
46  4.5000000000000D-01 -1.5306715715626D+00 -2.0857614811213D-03
47  4.6000000000000D-01 -1.5156404864376D+00 -4.9039628068750D-02
48  4.7000000000000D-01 -1.4982042659924D+00 -9.7724092462290D-02
49  4.8000000000000D-01 -1.4784301614739D+00 -1.4795713981997D-01
50  4.9000000000000D-01 -1.4563917574207D+00 -1.9954924964701D-01
51  5.0000000000000D-01 -1.4321684552786D+00 -2.5230531165292D-01
52  5.1000000000000D-01 -1.4058449644166D+00 -3.0602637580000D-01
53  5.2000000000000D-01 -1.3775107915648D+00 -3.6051138529088D-01
54  5.3000000000000D-01 -1.3472596528197D+00 -4.1555917761808D-01
55  5.4000000000000D-01 -1.3151889842913D+00 -4.7096997461415D-01
56  5.5000000000000D-01 -1.2813994201751D+00 -5.2654699648832D-01
57  5.6000000000000D-01 -1.2459942254345D+00 -5.8209816331162D-01
58  5.7000000000000D-01 -1.2090789250610D+00 -6.3743701381019D-01
59  5.8000000000000D-01 -1.1707607001595D+00 -6.9238441436331D-01
60  5.9000000000000D-01 -1.1311481264890D+00 -7.4676899323254D-01
61  6.0000000000000D-01 -1.0903506547313D+00 -8.0042840458042D-01
62  6.1000000000000D-01 -1.0484783326958D+00 -8.5320970905005D-01
63  6.2000000000000D-01 -1.0056415579249D+00 -9.0496962040246D-01
64  6.3000000000000D-01 -9.6195063851969D-01 -9.5557522835541D-01
65  6.4000000000000D-01 -9.1751578316424D-01 -1.0049033989972D+00
66  6.5000000000000D-01 -8.7244683784040D-01 -1.0528408479977D+00
67  6.6000000000000D-01 -8.2685306346353D-01 -1.0992839525374D+00
68  6.7000000000000D-01 -7.8084317178594D-01 -1.1441378777167D+00
69  6.8000000000000D-01 -7.3452524756785D-01 -1.1873159606790D+00
70  6.9000000000000D-01 -6.8800657922260D-01 -1.2287391101034D+00
71  7.0000000000000D-01 -6.4139373381708D-01 -1.2683347005296D+00
72  7.1000000000000D-01 -5.9479255312744D-01 -1.3060355960035D+00
73  7.2000000000000D-01 -5.4830814044998D-01 -1.3417791402904D+00
74  7.3000000000000D-01 -5.0204489337849D-01 -1.3755061131149D+00
75  7.4000000000000D-01 -4.5610641550620D-01 -1.4071596661280D+00
76  7.5000000000000D-01 -4.1059558421401D-01 -1.4366842975831D+00
77  7.6000000000000D-01 -3.6561450772189D-01 -1.4640249286496D+00
78  7.7000000000000D-01 -3.2126446363775D-01 -1.4891260599920D+00
79  7.8000000000000D-01 -2.7764581355522D-01 -1.5119310501779D+00
80  7.9000000000000D-01 -2.3485788208587D-01 -1.5323815395496D+00
81  8.0000000000000D-01 -1.9299879582014D-01 -1.5504170406573D+00
82  8.1000000000000D-01 -1.5216527862128D-01 -1.5659747129703D+00
83  8.2000000000000D-01 -1.1245240067041D-01 -1.5789893358133D+00
84  8.3000000000000D-01 -7.3953279777392D-02 -1.5893934893796D+00
85  8.4000000000000D-01 -3.6758734630247D-02 -1.5971179493495D+00
86  8.5000000000000D-01 -9.5689085419100D-04 -1.6020922961523D+00
87  8.6000000000000D-01  3.3367258029098D-02 -1.6042457353346D+00
88  8.7000000000000D-01  6.6132331430405D-02 -1.6035081209039D+00
89  8.8000000000000D-01  9.7261079792568D-02 -1.5998111689552D+00
90  8.9000000000000D-01  1.2668093427009D-01 -1.5930898444377D+00
91  9.0000000000000D-01  1.5432458117581D-01 -1.5832838996158D+00
92  9.1000000000000D-01  1.8013055332985D-01 -1.5703395387083D+00
93  9.2000000000000D-01  2.0404382948980D-01 -1.5542111794212D+00
94  9.3000000000000D-01  2.2601643220988D-01 -1.5348632787223D+00
95  9.4000000000000D-01  2.4600801380868D-01 -1.5122721873705D+00
96  9.5000000000000D-01  2.6398641966499D-01 -1.4864279955533D+00
97  9.6000000000000D-01  2.7992821786238D-01 -1.4573363306923D+00
98  9.7000000000000D-01  2.9381909538845D-01 -1.4250198757375D+00
99  9.8000000000000D-01  3.0565434200559D-01 -1.3895200336566D+00
100  9.9000000000000D-01  3.1543960965976D-01 -1.3508992690508D+00
101  1.0000000000000D+00  3.2319069144226D-01 -1.3092412410345D+00
102  1.0100000000000D+00  3.2893390658294D-01 -1.2646521663659D+00
103  1.0200000000000D+00  3.3270621395514D-01 -1.2172615471042D+00
104  1.0300000000000D+00  3.3455520473837D-01 -1.1672225496001D+00
105  1.0400000000000D+00  3.3453873684961D-01 -1.1147114018816D+00
106  1.0500000000000D+00  3.3272589787531D-01 -1.0599301856727D+00
107  1.0600000000000D+00  3.2919546656849D-01 -1.0031031702012D+00
108  1.0700000000000D+00  3.2403587375013D-01 -9.4447684687901D-01
109  1.0800000000000D+00  3.1734463648719D-01 -8.8431856943928D-01
110  1.0900000000000D+00  3.0922780752814D-01 -8.2291518442178D-01
111  1.1000000000000D+00  2.9979960638118D-01 -7.6057211927912D-01
112  1.1100000000000D+00  2.8918083319025D-01 -6.9760907361674D-01
113  1.1200000000000D+00  2.7749822499602D-01 -6.3435820919283D-01
114  1.1300000000000D+00  2.6488388944324D-01 -5.7116259096206D-01
115  1.1400000000000D+00  2.5147339684111D-01 -5.0837071774711D-01
116  1.1500000000000D+00  2.3740485929828D-01 -4.4633386060392D-01
117  1.1600000000000D+00  2.2281801829027D-01 -3.8540338689455D-01
118  1.1700000000000D+00  2.0785371014736D-01 -3.2592920285219D-01
119  1.1800000000000D+00  1.9264978266521D-01 -2.6824775914247D-01
120  1.1900000000000D+00  1.7734223074134D-01 -2.1268528727520D-01
121  1.2000000000000D+00  1.6206499797205D-01 -1.5955721006246D-01
122  1.2100000000000D+00  1.4694509672991D-01 -1.0915371692189D-01
123  1.2200000000000D+00  1.3210264446016D-01 -6.1739769506347D-02
124  1.2300000000000D+00  1.1765253353349D-01 -1.7560022331940D-02
125  1.2400000000000D+00  1.0370061424259D-01  2.3172492177380D-02
126  1.2500000000000D+00  9.0339985310906D-02  6.0287381263474D-02
127  1.2600000000000D+00  7.7656579278291D-02  9.3640336892618D-02
128  1.2700000000000D+00  6.5725080957465D-02  1.2312523339672D-01
129  1.2800000000000D+00  5.4603143029772D-02  1.4869112707960D-01
130  1.2900000000000D+00  4.4340580159275D-02  1.7031502152295D-01
131  1.3000000000000D+00  3.4972801840556D-02  1.8802132269127D-01
132  1.3100000000000D+00  2.6517008772025D-02  2.0189254718990D-01
133  1.3200000000000D+00  1.8983429600617D-02  2.1203566762920D-01
134  1.3300000000000D+00  1.2365480955758D-02  2.1860861046858D-01
135  1.3400000000000D+00  6.6457639475227D-03  2.2179895983015D-01
136  1.3500000000000D+00  1.8014845834344D-03  2.2181259671884D-01
137  1.3600000000000D+00 -2.2056388555054D-03  2.1889540893740D-01
138  1.3700000000000D+00 -5.4186909702133D-03  2.1330790600868D-01
139  1.3800000000000D+00 -7.8883865639380D-03  2.0533256153865D-01
140  1.3900000000000D+00 -9.6744801201257D-03  1.9527175767508D-01
141  1.4000000000000D+00 -1.0839470205743D-02  1.8343833783435D-01
142  1.4100000000000D+00 -1.1452490710004D-02  1.7015744664038D-01
143  1.4200000000000D+00 -1.1584263236831D-02  1.5575614837330D-01
144  1.4300000000000D+00 -1.1309079020375D-02  1.4057116101644D-01
145  1.4400000000000D+00 -1.0699649225047D-02  1.2492326614645D-01
146  1.4500000000000D+00 -9.8312427078317D-03  1.0914396411691D-01
147  1.4600000000000D+00 -8.7740669163806D-03  9.3536644803243D-02
148  1.4700000000000D+00 -7.5971740210498D-03  7.8400035899259D-02
149  1.4800000000000D+00 -6.3661828575412D-03  6.4015878689920D-02
150  1.4900000000000D+00 -5.1372231563030D-03  5.0627179667508D-02
151  1.5000000000000D+00 -3.9684637675741D-03  3.8484216321778D-02
152  1.5100000000000D+00 -2.8989868827865D-03  2.7761633690673D-02
153  1.5200000000000D+00 -1.9734554167708D-03  1.8655930964428D-02
154  1.5300000000000D+00 -1.2144748566303D-03  1.1277975739734D-02
155  1.5400000000000D+00 -6.4630355759422D-04  5.7453350970120D-03
156  1.5500000000000D+00 -2.9039683806598D-04  2.2415326610853D-03
157  1.5600000000000D+00 -1.2314339345739D-04  5.6913779075566D-04
158  1.5700000000000D+00 -4.0034052941905D-05 -3.8435960047940D-05
159  1.5800000000000D+00 -3.3549739450578D-06 -4.8343092938404D-05
160  1.5900000000000D+00  5.8899958270019D-06 -1.6566824418671D-05
161  1.6000000000000D+00  1.3475878844025D-06 -3.7903680283230D-06
162  1.6100000000000D+00  0.0000000000000D+00  0.0000000000000D+00
163  1.6200000000000D+00  0.0000000000000D+00  0.0000000000000D+00
164  1.6300000000000D+00  0.0000000000000D+00  0.0000000000000D+00
165  1.6400000000000D+00  0.0000000000000D+00  0.0000000000000D+00
166  1.6500000000000D+00  0.0000000000000D+00  0.0000000000000D+00
167  1.6600000000000D+00  0.0000000000000D+00  0.0000000000000D+00
168  1.6700000000000D+00  0.0000000000000D+00  0.0000000000000D+00
169  1.6800000000000D+00  0.0000000000000D+00  0.0000000000000D+00
170  1.6900000000000D+00  0.0000000000000D+00  0.0000000000000D+00
171  1.7000000000000D+00  0.0000000000000D+00  0.0000000000000D+00
172  1.7100000000000D+00  0.0000000000000D+00  0.0000000000000D+00
173  1.7200000000000D+00  0.0000000000000D+00  0.0000000000000D+00
174  1.7300000000000D+00  0.0000000000000D+00  0.0000000000000D+00
175  1.7400000000000D+00  0.0000000000000D+00  0.0000000000000D+00
176  1.7500000000000D+00  0.0000000000000D+00  0.0000000000000D+00
177  1.7600000000000D+00  0.0000000000000D+00  0.0000000000000D+00
178  1.7700000000000D+00  0.0000000000000D+00  0.0000000000000D+00
179  1.7800000000000D+00  0.0000000000000D+00  0.0000000000000D+00
180  1.7900000000000D+00  0.0000000000000D+00  0.0000000000000D+00
181  1.8000000000000D+00  0.0000000000000D+00  0.0000000000000D+00
182  1.8100000000000D+00  0.0000000000000D+00  0.0000000000000D+00
183  1.8200000000000D+00  0.0000000000000D+00  0.0000000000000D+00
184  1.8300000000000D+00  0.0000000000000D+00  0.0000000000000D+00
185  1.8400000000000D+00  0.0000000000000D+00  0.0000000000000D+00
186  1.8500000000000D+00  0.0000000000000D+00  0.0000000000000D+00
187  1.8600000000000D+00  0.0000000000000D+00  0.0000000000000D+00
188  1.8700000000000D+00  0.0000000000000D+00  0.0000000000000D+00
189  1.8800000000000D+00  0.0000000000000D+00  0.0000000000000D+00
190  1.8900000000000D+00  0.0000000000000D+00  0.0000000000000D+00
191  1.9000000000000D+00  0.0000000000000D+00  0.0000000000000D+00
192  1.9100000000000D+00  0.0000000000000D+00  0.0000000000000D+00
193  1.9200000000000D+00  0.0000000000000D+00  0.0000000000000D+00
194  1.9300000000000D+00  0.0000000000000D+00  0.0000000000000D+00
195  1.9400000000000D+00  0.0000000000000D+00  0.0000000000000D+00
196  1.9500000000000D+00  0.0000000000000D+00  0.0000000000000D+00
197  1.9600000000000D+00  0.0000000000000D+00  0.0000000000000D+00
198  1.9700000000000D+00  0.0000000000000D+00  0.0000000000000D+00
199  1.9800000000000D+00  0.0000000000000D+00  0.0000000000000D+00
200  1.9900000000000D+00  0.0000000000000D+00  0.0000000000000D+00
201  2.0000000000000D+00  0.0000000000000D+00  0.0000000000000D+00
202  2.0100000000000D+00  0.0000000000000D+00  0.0000000000000D+00
203  2.0200000000000D+00  0.0000000000000D+00  0.0000000000000D+00
204  2.0300000000000D+00  0.0000000000000D+00  0.0000000000000D+00
205  2.0400000000000D+00  0.0000000000000D+00  0.0000000000000D+00
206  2.0500000000000D+00  0.0000000000000D+00  0.0000000000000D+00
207  2.0600000000000D+00  0.0000000000000D+00  0.0000000000000D+00
208  2.0700000000000D+00  0.0000000000000D+00  0.0000000000000D+00
209  2.0800000000000D+00  0.0000000000000D+00  0.0000000000000D+00
210  2.0900000000000D+00  0.0000000000000D+00  0.0000000000000D+00
211  2.1000000000000D+00  0.0000000000000D+00  0.0000000000000D+00
212  2.1100000000000D+00  0.0000000000000D+00  0.0000000000000D+00
213  2.1200000000000D+00  0.0000000000000D+00  0.0000000000000D+00
214  2.1300000000000D+00  0.0000000000000D+00  0.0000000000000D+00
215  2.1400000000000D+00  0.0000000000000D+00  0.0000000000000D+00
216  2.1500000000000D+00  0.0000000000000D+00  0.0000000000000D+00
217  2.1600000000000D+00  0.0000000000000D+00  0.0000000000000D+00
218  2.1700000000000D+00  0.0000000000000D+00  0.0000000000000D+00
219  2.1800000000000D+00  0.0000000000000D+00  0.0000000000000D+00
220  2.1900000000000D+00  0.0000000000000D+00  0.0000000000000D+00
221  2.2000000000000D+00  0.0000000000000D+00  0.0000000000000D+00
222  2.2100000000000D+00  0.0000000000000D+00  0.0000000000000D+00
223  2.2200000000000D+00  0.0000000000000D+00  0.0000000000000D+00
224  2.2300000000000D+00  0.0000000000000D+00  0.0000000000000D+00
225  2.2400000000000D+00  0.0000000000000D+00  0.0000000000000D+00
226  2.2500000000000D+00  0.0000000000000D+00  0.0000000000000D+00
227  2.2600000000000D+00  0.0000000000000D+00  0.0000000000000D+00
228  2.2700000000000D+00  0.0000000000000D+00  0.0000000000000D+00
229  2.2800000000000D+00  0.0000000000000D+00  0.0000000000000D+00
230  2.2900000000000D+00  0.0000000000000D+00  0.0000000000000D+00
231  2.3000000000000D+00  0.0000000000000D+00  0.0000000000000D+00
232  2.3100000000000D+00  0.0000000000000D+00  0.0000000000000D+00
233  2.3200000000000D+00  0.0000000000000D+00  0.0000000000000D+00
234  2.3300000000000D+00  0.0000000000000D+00  0.0000000000000D+00
235  2.3400000000000D+00  0.0000000000000D+00  0.0000000000000D+00
236  2.3500000000000D+00  0.0000000000000D+00  0.0000000000000D+00
237  2.3600000000000D+00  0.0000000000000D+00  0.0000000000000D+00
238  2.3700000000000D+00  0.0000000000000D+00  0.0000000000000D+00
239  2.3800000000000D+00  0.0000000000000D+00  0.0000000000000D+00
240  2.3900000000000D+00  0.0000000000000D+00  0.0000000000000D+00
241  2.4000000000000D+00  0.0000000000000D+00  0.0000000000000D+00
242  2.4100000000000D+00  0.0000000000000D+00  0.0000000000000D+00
243  2.4200000000000D+00  0.0000000000000D+00  0.0000000000000D+00
244  2.4300000000000D+00  0.0000000000000D+00  0.0000000000000D+00
245  2.4400000000000D+00  0.0000000000000D+00  0.0000000000000D+00
246  2.4500000000000D+00  0.0000000000000D+00  0.0000000000000D+00
247  2.4600000000000D+00  0.0000000000000D+00  0.0000000000000D+00
248  2.4700000000000D+00  0.0000000000000D+00  0.0000000000000D+00
249  2.4800000000000D+00  0.0000000000000D+00  0.0000000000000D+00
250  2.4900000000000D+00  0.0000000000000D+00  0.0000000000000D+00
251  2.5000000000000D+00  0.0000000000000D+00  0.0000000000000D+00
252  2.5100000000000D+00  0.0000000000000D+00  0.0000000000000D+00
253  2.5200000000000D+00  0.0000000000000D+00  0.0000000000000D+00
254  2.5300000000000D+00  0.0000000000000D+00  0.0000000000000D+00
255  2.5400000000000D+00  0.0000000000000D+00  0.0000000000000D+00
256  2.5500000000000D+00  0.0000000000000D+00  0.0000000000000D+00
257  2.5600000000000D+00  0.0000000000000D+00  0.0000000000000D+00
258  2.5700000000000D+00  0.0000000000000D+00  0.0000000000000D+00
259  2.5800000000000D+00  0.0000000000000D+00  0.0000000000000D+00
260  2.5900000000000D+00  0.0000000000000D+00  0.0000000000000D+00
261  2.6000000000000D+00  0.0000000000000D+00  0.0000000000000D+00
262  2.6100000000000D+00  0.0000000000000D+00  0.0000000000000D+00
263  2.6200000000000D+00  0.0000000000000D+00  0.0000000000000D+00
264  2.6300000000000D+00  0.0000000000000D+00  0.0000000000000D+00
265  2.6400000000000D+00  0.0000000000000D+00  0.0000000000000D+00
266  2.6500000000000D+00  0.0000000000000D+00  0.0000000000000D+00
267  2.6600000000000D+00  0.0000000000000D+00  0.0000000000000D+00
268  2.6700000000000D+00  0.0000000000000D+00  0.0000000000000D+00
269  2.6800000000000D+00  0.0000000000000D+00  0.0000000000000D+00
270  2.6900000000000D+00  0.0000000000000D+00  0.0000000000000D+00
271  2.7000000000000D+00  0.0000000000000D+00  0.0000000000000D+00
272  2.7100000000000D+00  0.0000000000000D+00  0.0000000000000D+00
273  2.7200000000000D+00  0.0000000000000D+00  0.0000000000000D+00
274  2.7300000000000D+00  0.0000000000000D+00  0.0000000000000D+00
275  2.7400000000000D+00  0.0000000000000D+00  0.0000000000000D+00
276  2.7500000000000D+00  0.0000000000000D+00  0.0000000000000D+00
277  2.7600000000000D+00  0.0000000000000D+00  0.0000000000000D+00
278  2.7700000000000D+00  0.0000000000000D+00  0.0000000000000D+00
279  2.7800000000000D+00  0.0000000000000D+00  0.0000000000000D+00
280  2.7900000000000D+00  0.0000000000000D+00  0.0000000000000D+00
281  2.8000000000000D+00  0.0000000000000D+00  0.0000000000000D+00
282  2.8100000000000D+00  0.0000000000000D+00  0.0000000000000D+00
283  2.8200000000000D+00  0.0000000000000D+00  0.0000000000000D+00
284  2.8300000000000D+00  0.0000000000000D+00  0.0000000000000D+00
285  2.8400000000000D+00  0.0000000000000D+00  0.0000000000000D+00
286  2.8500000000000D+00  0.0000000000000D+00  0.0000000000000D+00
287  2.8600000000000D+00  0.0000000000000D+00  0.0000000000000D+00
288  2.8700000000000D+00  0.0000000000000D+00  0.0000000000000D+00
289  2.8800000000000D+00  0.0000000000000D+00  0.0000000000000D+00
290  2.8900000000000D+00  0.0000000000000D+00  0.0000000000000D+00
291  2.9000000000000D+00  0.0000000000000D+00  0.0000000000000D+00
292  2.9100000000000D+00  0.0000000000000D+00  0.0000000000000D+00
293  2.9200000000000D+00  0.0000000000000D+00  0.0000000000000D+00
294  2.9300000000000D+00  0.0000000000000D+00  0.0000000000000D+00
295  2.9400000000000D+00  0.0000000000000D+00  0.0000000000000D+00
296  2.9500000000000D+00  0.0000000000000D+00  0.0000000000000D+00
297  2.9600000000000D+00  0.0000000000000D+00  0.0000000000000D+00
298  2.9700000000000D+00  0.0000000000000D+00  0.0000000000000D+00
299  2.9800000000000D+00  0.0000000000000D+00  0.0000000000000D+00
300  2.9900000000000D+00  0.0000000000000D+00  0.0000000000000D+00
301  3.0000000000000D+00  0.0000000000000D+00  0.0000000000000D+00
302  3.0100000000000D+00  0.0000000000000D+00  0.0000000000000D+00
303  3.0200000000000D+00  0.0000000000000D+00  0.0000000000000D+00
304  3.0300000000000D+00  0.0000000000000D+00  0.0000000000000D+00
305  3.0400000000000D+00  0.0000000000000D+00  0.0000000000000D+00
306  3.0500000000000D+00  0.0000000000000D+00  0.0000000000000D+00
307  3.0600000000000D+00  0.0000000000000D+00  0.0000000000000D+00
308  3.0700000000000D+00  0.0000000000000D+00  0.0000000000000D+00
309  3.0800000000000D+00  0.0000000000000D+00  0.0000000000000D+00
310  3.0900000000000D+00  0.0000000000000D+00  0.0000000000000D+00
311  3.1000000000000D+00  0.0000000000000D+00  0.0000000000000D+00
312  3.1100000000000D+00  0.0000000000000D+00  0.0000000000000D+00
313  3.1200000000000D+00  0.0000000000000D+00  0.0000000000000D+00
314  3.1300000000000D+00  0.0000000000000D+00  0.0000000000000D+00
315  3.1400000000000D+00  0.0000000000000D+00  0.0000000000000D+00
316  3.1500000000000D+00  0.0000000000000D+00  0.0000000000000D+00
317  3.1600000000000D+00  0.0000000000000D+00  0.0000000000000D+00
318  3.1700000000000D+00  0.0000000000000D+00  0.0000000000000D+00
319  3.1800000000000D+00  0.0000000000000D+00  0.0000000000000D+00
320  3.1900000000000D+00  0.0000000000000D+00  0.0000000000000D+00
321  3.2000000000000D+00  0.0000000000000D+00  0.0000000000000D+00
322  3.2100000000000D+00  0.0000000000000D+00  0.0000000000000D+00
323  3.2200000000000D+00  0.0000000000000D+00  0.0000000000000D+00
324  3.2300000000000D+00  0.0000000000000D+00  0.0000000000000D+00
325  3.2400000000000D+00  0.0000000000000D+00  0.0000000000000D+00
326  3.2500000000000D+00  0.0000000000000D+00  0.0000000000000D+00
327  3.2600000000000D+00  0.0000000000000D+00  0.0000000000000D+00
328  3.2700000000000D+00  0.0000000000000D+00  0.0000000000000D+00
329  3.2800000000000D+00  0.0000000000000D+00  0.0000000000000D+00
330  3.2900000000000D+00  0.0000000000000D+00  0.0000000000000D+00
331  3.3000000000000D+00  0.0000000000000D+00  0.0000000000000D+00
332  3.3100000000000D+00  0.0000000000000D+00  0.0000000000000D+00
333  3.3200000000000D+00  0.0000000000000D+00  0.0000000000000D+00
334  3.3300000000000D+00  0.0000000000000D+00  0.0000000000000D+00
335  3.3400000000000D+00  0.0000000000000D+00  0.0000000000000D+00
336  3.3500000000000D+00  0.0000000000000D+00  0.0000000000000D+00
337  3.3600000000000D+00  0.0000000000000D+00  0.0000000000000D+00
338  3.3700000000000D+00  0.0000000000000D+00  0.0000000000000D+00
339  3.3800000000000D+00  0.0000000000000D+00  0.0000000000000D+00
340  3.3900000000000D+00  0.0000000000000D+00  0.0000000000000D+00
341  3.4000000000000D+00  0.0000000000000D+00  0.0000000000000D+00
342  3.4100000000000D+00  0.0000000000000D+00  0.0000000000000D+00
343  3.4200000000000D+00  0.0000000000000D+00  0.0000000000000D+00
344  3.4300000000000D+00  0.0000000000000D+00  0.0000000000000D+00
345  3.4400000000000D+00  0.0000000000000D+00  0.0000000000000D+00
346  3.4500000000000D+00  0.0000000000000D+00  0.0000000000000D+00
347  3.4600000000000D+00  0.0000000000000D+00  0.0000000000000D+00
348  3.4700000000000D+00  0.0000000000000D+00  0.0000000000000D+00
349  3.4800000000000D+00  0.0000000000000D+00  0.0000000000000D+00
350  3.4900000000000D+00  0.0000000000000D+00  0.0000000000000D+00
351  3.5000000000000D+00  0.0000000000000D+00  0.0000000000000D+00
352  3.5100000000000D+00  0.0000000000000D+00  0.0000000000000D+00
353  3.5200000000000D+00  0.0000000000000D+00  0.0000000000000D+00
354  3.5300000000000D+00  0.0000000000000D+00  0.0000000000000D+00
355  3.5400000000000D+00  0.0000000000000D+00  0.0000000000000D+00
356  3.5500000000000D+00  0.0000000000000D+00  0.0000000000000D+00
357  3.5600000000000D+00  0.0000000000000D+00  0.0000000000000D+00
358  3.5700000000000D+00  0.0000000000000D+00  0.0000000000000D+00
359  3.5800000000000D+00  0.0000000000000D+00  0.0000000000000D+00
360  3.5900000000000D+00  0.0000000000000D+00  0.0000000000000D+00
361  3.6000000000000D+00  0.0000000000000D+00  0.0000000000000D+00
362  3.6100000000000D+00  0.0000000000000D+00  0.0000000000000D+00
363  3.6200000000000D+00  0.0000000000000D+00  0.0000000000000D+00
364  3.6300000000000D+00  0.0000000000000D+00  0.0000000000000D+00
365  3.6400000000000D+00  0.0000000000000D+00  0.0000000000000D+00
366  3.6500000000000D+00  0.0000000000000D+00  0.0000000000000D+00
367  3.6600000000000D+00  0.0000000000000D+00  0.0000000000000D+00
368  3.6700000000000D+00  0.0000000000000D+00  0.0000000000000D+00
369  3.6800000000000D+00  0.0000000000000D+00  0.0000000000000D+00
370  3.6900000000000D+00  0.0000000000000D+00  0.0000000000000D+00
371  3.7000000000000D+00  0.0000000000000D+00  0.0000000000000D+00
372  3.7100000000000D+00  0.0000000000000D+00  0.0000000000000D+00
373  3.7200000000000D+00  0.0000000000000D+00  0.0000000000000D+00
374  3.7300000000000D+00  0.0000000000000D+00  0.0000000000000D+00
375  3.7400000000000D+00  0.0000000000000D+00  0.0000000000000D+00
376  3.7500000000000D+00  0.0000000000000D+00  0.0000000000000D+00
377  3.7600000000000D+00  0.0000000000000D+00  0.0000000000000D+00
378  3.7700000000000D+00  0.0000000000000D+00  0.0000000000000D+00
379  3.7800000000000D+00  0.0000000000000D+00  0.0000000000000D+00
380  3.7900000000000D+00  0.0000000000000D+00  0.0000000000000D+00
381  3.8000000000000D+00  0.0000000000000D+00  0.0000000000000D+00
382  3.8100000000000D+00  0.0000000000000D+00  0.0000000000000D+00
383  3.8200000000000D+00  0.0000000000000D+00  0.0000000000000D+00
384  3.8300000000000D+00  0.0000000000000D+00  0.0000000000000D+00
385  3.8400000000000D+00  0.0000000000000D+00  0.0000000000000D+00
386  3.8500000000000D+00  0.0000000000000D+00  0.0000000000000D+00
387  3.8600000000000D+00  0.0000000000000D+00  0.0000000000000D+00
388  3.8700000000000D+00  0.0000000000000D+00  0.0000000000000D+00
389  3.8800000000000D+00  0.0000000000000D+00  0.0000000000000D+00
390  3.8900000000000D+00  0.0000000000000D+00  0.0000000000000D+00
391  3.9000000000000D+00  0.0000000000000D+00  0.0000000000000D+00
392  3.9100000000000D+00  0.0000000000000D+00  0.0000000000000D+00
393  3.9200000000000D+00  0.0000000000000D+00  0.0000000000000D+00
394  3.9300000000000D+00  0.0000000000000D+00  0.0000000000000D+00
395  3.9400000000000D+00  0.0000000000000D+00  0.0000000000000D+00
396  3.9500000000000D+00  0.0000000000000D+00  0.0000000000000D+00
397  3.9600000000000D+00  0.0000000000000D+00  0.0000000000000D+00
398  3.9700000000000D+00  0.0000000000000D+00  0.0000000000000D+00
399  3.9800000000000D+00  0.0000000000000D+00  0.0000000000000D+00
400  3.9900000000000D+00  0.0000000000000D+00  0.0000000000000D+00
401  4.0000000000000D+00  0.0000000000000D+00  0.0000000000000D+00
402  4.0100000000000D+00  0.0000000000000D+00  0.0000000000000D+00
403  4.0200000000000D+00  0.0000000000000D+00  0.0000000000000D+00
404  4.0300000000000D+00  0.0000000000000D+00  0.0000000000000D+00
405  4.0400000000000D+00  0.0000000000000D+00  0.0000000000000D+00
406  4.0500000000000D+00  0.0000000000000D+00  0.0000000000000D+00
407  4.0600000000000D+00  0.0000000000000D+00  0.0000000000000D+00
408  4.0700000000000D+00  0.0000000000000D+00  0.0000000000000D+00
409  4.0800000000000D+00  0.0000000000000D+00  0.0000000000000D+00
410  4.0900000000000D+00  0.0000000000000D+00  0.0000000000000D+00
411  4.1000000000000D+00  0.0000000000000D+00  0.0000000000000D+00
412  4.1100000000000D+00  0.0000000000000D+00  0.0000000000000D+00
413  4.1200000000000D+00  0.0000000000000D+00  0.0000000000000D+00
414  4.1300000000000D+00  0.0000000000000D+00  0.0000000000000D+00
415  4.1400000000000D+00  0.0000000000000D+00  0.0000000000000D+00
416  4.1500000000000D+00  0.0000000000000D+00  0.0000000000000D+00
417  4.1600000000000D+00  0.0000000000000D+00  0.0000000000000D+00
418  4.1700000000000D+00  0.0000000000000D+00  0.0000000000000D+00
419  4.1800000000000D+00  0.0000000000000D+00  0.0000000000000D+00
420  4.1900000000000D+00  0.0000000000000D+00  0.0000000000000D+00
421  4.2000000000000D+00  0.0000000000000D+00  0.0000000000000D+00
422  4.2100000000000D+00  0.0000000000000D+00  0.0000000000000D+00
423  4.2200000000000D+00  0.0000000000000D+00  0.0000000000000D+00
424  4.2300000000000D+00  0.0000000000000D+00  0.0000000000000D+00
425  4.2400000000000D+00  0.0000000000000D+00  0.0000000000000D+00
426  4.2500000000000D+00  0.0000000000000D+00  0.0000000000000D+00
427  4.2600000000000D+00  0.0000000000000D+00  0.0000000000000D+00
428  4.2700000000000D+00  0.0000000000000D+00  0.0000000000000D+00
429  4.2800000000000D+00  0.0000000000000D+00  0.0000000000000D+00
430  4.2900000000000D+00  0.0000000000000D+00  0.0000000000000D+00
431  4.3000000000000D+00  0.0000000000000D+00  0.0000000000000D+00
432  4.3100000000000D+00  0.0000000000000D+00  0.0000000000000D+00
433  4.3200000000000D+00  0.0000000000000D+00  0.0000000000000D+00
434  4.3300000000000D+00  0.0000000000000D+00  0.0000000000000D+00
435  4.3400000000000D+00  0.0000000000000D+00  0.0000000000000D+00
436  4.3500000000000D+00  0.0000000000000D+00  0.0000000000000D+00
437  4.3600000000000D+00  0.0000000000000D+00  0.0000000000000D+00
438  4.3700000000000D+00  0.0000000000000D+00  0.0000000000000D+00
439  4.3800000000000D+00  0.0000000000000D+00  0.0000000000000D+00
440  4.3900000000000D+00  0.0000000000000D+00  0.0000000000000D+00
441  4.4000000000000D+00  0.0000000000000D+00  0.0000000000000D+00
442  4.4100000000000D+00  0.0000000000000D+00  0.0000000000000D+00
443  4.4200000000000D+00  0.0000000000000D+00  0.0000000000000D+00
444  4.4300000000000D+00  0.0000000000000D+00  0.0000000000000D+00