Ag    ONCVPSP-3.3.0  r_core=   1.41384   1.46535   1.61207
47.0000     19.0000      171103    zatom,zion,pspd
8   -1012   2     4   600     0    pspcod,pspxc,lmax,lloc,mmax,r2well
5.99000000  7.00000000  0.00000000    rchrg fchrg qchrg
2     2     2     0     0    nproj
1     1           extension_switch
0                         9.5639158515488D+00 -3.7740393281174D-01
1  0.0000000000000D+00 -5.2101989389541D-11 -3.2107548841864D-09
2  1.0000000000000D-02  7.9301928212737D-02  7.3203697456844D-02
3  2.0000000000000D-02  1.5841385465162D-01  1.4588089414330D-01
4  3.0000000000000D-02  2.3714635883502D-01  2.1750988388470D-01
5  4.0000000000000D-02  3.1531118068612D-01  2.8757849125931D-01
6  5.0000000000000D-02  3.9272179529962D-01  3.5558869171157D-01
7  6.0000000000000D-02  4.6919398122293D-01  4.2106105967053D-01
8  7.0000000000000D-02  5.4454638015225D-01  4.8353899117261D-01
9  8.0000000000000D-02  6.1860104599536D-01  5.4259265069913D-01
10  9.0000000000000D-02  6.9118398131764D-01  5.9782259586175D-01
11  1.0000000000000D-01  7.6212565926214D-01  6.4886303814639D-01
12  1.1000000000000D-01  8.3126152911993D-01  6.9538470309027D-01
13  1.2000000000000D-01  8.9843250382115D-01  7.3709725893977D-01
14  1.3000000000000D-01  9.6348542771934D-01  7.7375128893575D-01
15  1.4000000000000D-01  1.0262735231505D+00  8.0513978880660D-01
16  1.5000000000000D-01  1.0866568143633D+00  8.3109917772160D-01
17  1.6000000000000D-01  1.1445025275351D+00  8.5150981776957D-01
18  1.7000000000000D-01  1.1996854657110D+00  8.6629604387774D-01
19  1.8000000000000D-01  1.2520883576258D+00  8.7542571287234D-01
20  1.9000000000000D-01  1.3016021794934D+00  8.7890928700274D-01
21  2.0000000000000D-01  1.3481264489700D+00  8.7679847360804D-01
22  2.1000000000000D-01  1.3915694906200D+00  8.6918444860096D-01
23  2.2000000000000D-01  1.4318486723292D+00  8.5619569699275D-01
24  2.3000000000000D-01  1.4688906122260D+00  8.3799550869666D-01
25  2.4000000000000D-01  1.5026313557771D+00  8.1477917225609D-01
26  2.5000000000000D-01  1.5330165228303D+00  7.8677091287616D-01
27  2.6000000000000D-01  1.5600014244712D+00  7.5422062414174D-01
28  2.7000000000000D-01  1.5835511496505D+00  7.1740044503248D-01
29  2.8000000000000D-01  1.6036406216242D+00  6.7660123526708D-01
30  2.9000000000000D-01  1.6202546243198D+00  6.3212900259817D-01
31  3.0000000000000D-01  1.6333877988156D+00  5.8430133543333D-01
32  3.1000000000000D-01  1.6430446101768D+00  5.3344389307715D-01
33  3.2000000000000D-01  1.6492392849498D+00  4.7988700399324D-01
34  3.3000000000000D-01  1.6519957196650D+00  4.2396241980276D-01
35  3.4000000000000D-01  1.6513473607397D+00  3.6600026931080D-01
36  3.5000000000000D-01  1.6473370562150D+00  3.0632625273695D-01
37  3.6000000000000D-01  1.6400168797915D+00  2.4525911158639D-01
38  3.7000000000000D-01  1.6294479276647D+00  1.8310840430890D-01
39  3.8000000000000D-01  1.6157000886885D+00  1.2017261213962D-01
40  3.9000000000000D-01  1.5988517884275D+00  5.6737593385361D-02
41  4.0000000000000D-01  1.5789897076866D+00 -6.9246019811853D-03
42  4.1000000000000D-01  1.5562084761410D+00 -7.0556552134989D-02
43  4.2000000000000D-01  1.5306103417217D+00 -1.3391591897679D-01
44  4.3000000000000D-01  1.5023048164515D+00 -1.9677554743373D-01
45  4.4000000000000D-01  1.4714082994698D+00 -2.5892322288957D-01
46  4.5000000000000D-01  1.4380436780302D+00 -3.2016110734633D-01
47  4.6000000000000D-01  1.4023399073146D+00 -3.8030488075085D-01
48  4.7000000000000D-01  1.3644315699640D+00 -4.3918261929621D-01
49  4.8000000000000D-01  1.3244584162993D+00 -4.9663344733134D-01
50  4.9000000000000D-01  1.2825648862808D+00 -5.5250600370399D-01
51  5.0000000000000D-01  1.2388996143378D+00 -6.0665676684374D-01
52  5.1000000000000D-01  1.1936149182960D+00 -6.5894828560278D-01
53  5.2000000000000D-01  1.1468662737245D+00 -7.0924736475760D-01
54  5.3000000000000D-01  1.0988117751339D+00 -7.5742325510004D-01
55  5.4000000000000D-01  1.0496115855664D+00 -8.0334589817871D-01
56  5.5000000000000D-01  9.9942737623631D-01 -8.4688427498925D-01
57  5.6000000000000D-01  9.4842175799720D-01 -8.8790490624852D-01
58  5.7000000000000D-01  8.9675770653751D-01 -9.2627054934532D-01
59  5.8000000000000D-01  8.4459798332422D-01 -9.6183913367601D-01
60  5.9000000000000D-01  7.9210455443854D-01 -9.9446297187493D-01
61  6.0000000000000D-01  7.3943800956349D-01 -1.0239882795287D+00
62  6.1000000000000D-01  6.8675698349574D-01 -1.0502550303541D+00
63  6.2000000000000D-01  6.3421758265898D-01 -1.0730971676370D+00
64  6.3000000000000D-01  5.8197281919020D-01 -1.0923431860669D+00
65  6.4000000000000D-01  5.3017205525366D-01 -1.1078170910192D+00
66  6.5000000000000D-01  4.7896046030519D-01 -1.1193397350393D+00
67  6.6000000000000D-01  4.2847848408155D-01 -1.1267305237775D+00
68  6.7000000000000D-01  3.7886134812281D-01 -1.1298094761094D+00
69  6.8000000000000D-01  3.3023855864823D-01 -1.1283996157742D+00
70  6.9000000000000D-01  2.8273344359657D-01 -1.1223296646538D+00
71  7.0000000000000D-01  2.3646271660732D-01 -1.1114370009578D+00
72  7.1000000000000D-01  1.9153607066078D-01 -1.0955708392021D+00
73  7.2000000000000D-01  1.4805580400802D-01 -1.0745955830563D+00
74  7.3000000000000D-01  1.0611648090960D-01 -1.0483942970287D+00
75  7.4000000000000D-01  6.5804629559546D-02 -1.0168722386097D+00
76  7.5000000000000D-01  2.7198479402607D-02 -9.7996038906263D-01
77  7.6000000000000D-01 -9.6322601445447D-03 -9.3761891853802D-01
78  7.7000000000000D-01 -4.4626577781544D-02 -8.8984051970578D-01
79  7.8000000000000D-01 -7.7732293686193D-02 -8.3665354367096D-01
80  7.9000000000000D-01 -1.0890614688858D-01 -7.7812487259974D-01
81  8.0000000000000D-01 -1.3811383569479D-01 -7.1436246524878D-01
82  8.1000000000000D-01 -1.6533001051642D-01 -6.4551751446018D-01
83  8.2000000000000D-01 -1.9053821879891D-01 -5.7178615962613D-01
84  8.3000000000000D-01 -2.1373080209431D-01 -4.9341070211287D-01
85  8.4000000000000D-01 -2.3490874568863D-01 -4.1068027760203D-01
86  8.5000000000000D-01 -2.5408148156667D-01 -3.2393094618727D-01
87  8.6000000000000D-01 -2.7126664587543D-01 -2.3354516876630D-01
88  8.7000000000000D-01 -2.8648979242515D-01 -1.3995064669027D-01
89  8.8000000000000D-01 -2.9978406414270D-01 -4.3618510659726D-02
90  8.9000000000000D-01 -3.1118982475902D-01  5.4939145643845D-02
91  9.0000000000000D-01 -3.2075425336794D-01  1.5517238186097D-01
92  9.1000000000000D-01 -3.2853090483249D-01  2.5649716183125D-01
93  9.2000000000000D-01 -3.3457923933332D-01  3.5829971361364D-01
94  9.3000000000000D-01 -3.3896412464739D-01  4.5994146325331D-01
95  9.4000000000000D-01 -3.4175531500975D-01  5.6076449719746D-01
96  9.5000000000000D-01 -3.4302691064189D-01  6.6009749908030D-01
97  9.6000000000000D-01 -3.4285680222882D-01  7.5726209777311D-01
98  9.7000000000000D-01 -3.4132610478107D-01  8.5157955574254D-01
99  9.8000000000000D-01 -3.3851858543376D-01  9.4237771960396D-01
100  9.9000000000000D-01 -3.3452008980489D-01  1.0289981486404D+00
101  1.0000000000000D+00 -3.2941797155957D-01  1.1108033320290D+00
102  1.0100000000000D+00 -3.2330052980367D-01  1.1871839016743D+00
103  1.0200000000000D+00 -3.1625645885598D-01  1.2575657450419D+00
104  1.0300000000000D+00 -3.0837431483767D-01  1.3214169210987D+00
105  1.0400000000000D+00 -2.9974200333892D-01  1.3782542826712D+00
106  1.0500000000000D+00 -2.9044629221593D-01  1.4276497101335D+00
107  1.0600000000000D+00 -2.8057235331237D-01  1.4692358642593D+00
108  1.0700000000000D+00 -2.7020333658156D-01  1.5027113707875D+00
109  1.0800000000000D+00 -2.5941997977556D-01  1.5278453544078D+00
110  1.0900000000000D+00 -2.4830025645824D-01  1.5444812474141D+00
111  1.1000000000000D+00 -2.3691906469706D-01  1.5525398064522D+00
112  1.1100000000000D+00 -2.2534795835021D-01  1.5520212800811D+00
113  1.1200000000000D+00 -2.1365492237622D-01  1.5430066809194D+00
114  1.1300000000000D+00 -2.0190419318877D-01  1.5256581254283D+00
115  1.1400000000000D+00 -1.9015612446887D-01  1.5002182191579D+00
116  1.1500000000000D+00 -1.7846709842428D-01  1.4670084758906D+00
117  1.1600000000000D+00 -1.6688948192322D-01  1.4264267735359D+00
118  1.1700000000000D+00 -1.5547162654096D-01  1.3789438596679D+00
119  1.1800000000000D+00 -1.4425791090271D-01  1.3250989372085D+00
120  1.1900000000000D+00 -1.3328882332302D-01  1.2654943714141D+00
121  1.2000000000000D+00 -1.2260108232402D-01  1.2007895709113D+00
122  1.2100000000000D+00 -1.1222779213339D-01  1.1316941091288D+00
123  1.2200000000000D+00 -1.0219862984459D-01  1.0589601647960D+00
124  1.2300000000000D+00 -9.2540060616597D-02  9.8337436936229D-01
125  1.2400000000000D+00 -8.3275577036654D-02  9.0574915660746D-01
126  1.2500000000000D+00 -7.4425958334294D-02  8.2691372335368D-01
127  1.2600000000000D+00 -6.6009545060875D-02  7.4770471311422D-01
128  1.2700000000000D+00 -5.8042524691275D-02  6.6895673912744D-01
129  1.2800000000000D+00 -5.0539223357150D-02  5.9149287230900D-01
130  1.2900000000000D+00 -4.3512399059955D-02  5.1611521627475D-01
131  1.3000000000000D+00 -3.6973531547813D-02  4.4359569641842D-01
132  1.3100000000000D+00 -3.0933104183356D-02  3.7466718828663D-01
133  1.3200000000000D+00 -2.5400873368348D-02  3.1001510375642D-01
134  1.3300000000000D+00 -2.0386120902048D-02  2.5026955928634D-01
135  1.3400000000000D+00 -1.5897885344942D-02  1.9599823274896D-01
136  1.3500000000000D+00 -1.1945168500748D-02  1.4770001365891D-01
137  1.3600000000000D+00 -8.5371131914463D-03  1.0579955077208D-01
138  1.3700000000000D+00 -5.6847295079956D-03  7.0663055536869D-02
139  1.3800000000000D+00 -3.3933250163760D-03  4.2496240779830D-02
140  1.3900000000000D+00 -1.6661985570839D-03  2.1377269685298D-02
141  1.4000000000000D+00 -5.6069554082383D-04  8.0670928008336D-03
142  1.4100000000000D+00 -4.5839170961719D-05  1.9488974384811D-03
143  1.4200000000000D+00  6.3899466781124D-05  1.0215789910473D-04
144  1.4300000000000D+00  5.4259657907951D-06 -1.3944028640129D-05
145  1.4400000000000D+00 -1.6078015127043D-05  6.0019473791844D-05
146  1.4500000000000D+00  1.3232385586334D-06 -2.2941802120957D-06
147  1.4600000000000D+00  2.4868895898030D-06 -5.7966599465533D-06
148  1.4700000000000D+00 -7.2461751114447D-08 -2.0800109254393D-06
149  1.4800000000000D+00 -4.3054110984936D-08 -1.2358660928895D-06
150  1.4900000000000D+00  0.0000000000000D+00  0.0000000000000D+00
151  1.5000000000000D+00  0.0000000000000D+00  0.0000000000000D+00
152  1.5100000000000D+00  0.0000000000000D+00  0.0000000000000D+00
153  1.5200000000000D+00  0.0000000000000D+00  0.0000000000000D+00
154  1.5300000000000D+00  0.0000000000000D+00  0.0000000000000D+00
155  1.5400000000000D+00  0.0000000000000D+00  0.0000000000000D+00
156  1.5500000000000D+00  0.0000000000000D+00  0.0000000000000D+00
157  1.5600000000000D+00  0.0000000000000D+00  0.0000000000000D+00
158  1.5700000000000D+00  0.0000000000000D+00  0.0000000000000D+00
159  1.5800000000000D+00  0.0000000000000D+00  0.0000000000000D+00
160  1.5900000000000D+00  0.0000000000000D+00  0.0000000000000D+00
161  1.6000000000000D+00  0.0000000000000D+00  0.0000000000000D+00
162  1.6100000000000D+00  0.0000000000000D+00  0.0000000000000D+00
163  1.6200000000000D+00  0.0000000000000D+00  0.0000000000000D+00
164  1.6300000000000D+00  0.0000000000000D+00  0.0000000000000D+00
165  1.6400000000000D+00  0.0000000000000D+00  0.0000000000000D+00
166  1.6500000000000D+00  0.0000000000000D+00  0.0000000000000D+00
167  1.6600000000000D+00  0.0000000000000D+00  0.0000000000000D+00
168  1.6700000000000D+00  0.0000000000000D+00  0.0000000000000D+00
169  1.6800000000000D+00  0.0000000000000D+00  0.0000000000000D+00
170  1.6900000000000D+00  0.0000000000000D+00  0.0000000000000D+00
171  1.7000000000000D+00  0.0000000000000D+00  0.0000000000000D+00
172  1.7100000000000D+00  0.0000000000000D+00  0.0000000000000D+00
173  1.7200000000000D+00  0.0000000000000D+00  0.0000000000000D+00
174  1.7300000000000D+00  0.0000000000000D+00  0.0000000000000D+00
175  1.7400000000000D+00  0.0000000000000D+00  0.0000000000000D+00
176  1.7500000000000D+00  0.0000000000000D+00  0.0000000000000D+00
177  1.7600000000000D+00  0.0000000000000D+00  0.0000000000000D+00
178  1.7700000000000D+00  0.0000000000000D+00  0.0000000000000D+00
179  1.7800000000000D+00  0.0000000000000D+00  0.0000000000000D+00
180  1.7900000000000D+00  0.0000000000000D+00  0.0000000000000D+00
181  1.8000000000000D+00  0.0000000000000D+00  0.0000000000000D+00
182  1.8100000000000D+00  0.0000000000000D+00  0.0000000000000D+00
183  1.8200000000000D+00  0.0000000000000D+00  0.0000000000000D+00
184  1.8300000000000D+00  0.0000000000000D+00  0.0000000000000D+00
185  1.8400000000000D+00  0.0000000000000D+00  0.0000000000000D+00
186  1.8500000000000D+00  0.0000000000000D+00  0.0000000000000D+00
187  1.8600000000000D+00  0.0000000000000D+00  0.0000000000000D+00
188  1.8700000000000D+00  0.0000000000000D+00  0.0000000000000D+00
189  1.8800000000000D+00  0.0000000000000D+00  0.0000000000000D+00
190  1.8900000000000D+00  0.0000000000000D+00  0.0000000000000D+00
191  1.9000000000000D+00  0.0000000000000D+00  0.0000000000000D+00
192  1.9100000000000D+00  0.0000000000000D+00  0.0000000000000D+00
193  1.9200000000000D+00  0.0000000000000D+00  0.0000000000000D+00
194  1.9300000000000D+00  0.0000000000000D+00  0.0000000000000D+00
195  1.9400000000000D+00  0.0000000000000D+00  0.0000000000000D+00
196  1.9500000000000D+00  0.0000000000000D+00  0.0000000000000D+00
197  1.9600000000000D+00  0.0000000000000D+00  0.0000000000000D+00
198  1.9700000000000D+00  0.0000000000000D+00  0.0000000000000D+00
199  1.9800000000000D+00  0.0000000000000D+00  0.0000000000000D+00
200  1.9900000000000D+00  0.0000000000000D+00  0.0000000000000D+00
201  2.0000000000000D+00  0.0000000000000D+00  0.0000000000000D+00
202  2.0100000000000D+00  0.0000000000000D+00  0.0000000000000D+00
203  2.0200000000000D+00  0.0000000000000D+00  0.0000000000000D+00
204  2.0300000000000D+00  0.0000000000000D+00  0.0000000000000D+00
205  2.0400000000000D+00  0.0000000000000D+00  0.0000000000000D+00
206  2.0500000000000D+00  0.0000000000000D+00  0.0000000000000D+00
207  2.0600000000000D+00  0.0000000000000D+00  0.0000000000000D+00
208  2.0700000000000D+00  0.0000000000000D+00  0.0000000000000D+00
209  2.0800000000000D+00  0.0000000000000D+00  0.0000000000000D+00
210  2.0900000000000D+00  0.0000000000000D+00  0.0000000000000D+00
211  2.1000000000000D+00  0.0000000000000D+00  0.0000000000000D+00
212  2.1100000000000D+00  0.0000000000000D+00  0.0000000000000D+00
213  2.1200000000000D+00  0.0000000000000D+00  0.0000000000000D+00
214  2.1300000000000D+00  0.0000000000000D+00  0.0000000000000D+00
215  2.1400000000000D+00  0.0000000000000D+00  0.0000000000000D+00
216  2.1500000000000D+00  0.0000000000000D+00  0.0000000000000D+00
217  2.1600000000000D+00  0.0000000000000D+00  0.0000000000000D+00
218  2.1700000000000D+00  0.0000000000000D+00  0.0000000000000D+00
219  2.1800000000000D+00  0.0000000000000D+00  0.0000000000000D+00
220  2.1900000000000D+00  0.0000000000000D+00  0.0000000000000D+00
221  2.2000000000000D+00  0.0000000000000D+00  0.0000000000000D+00
222  2.2100000000000D+00  0.0000000000000D+00  0.0000000000000D+00
223  2.2200000000000D+00  0.0000000000000D+00  0.0000000000000D+00
224  2.2300000000000D+00  0.0000000000000D+00  0.0000000000000D+00
225  2.2400000000000D+00  0.0000000000000D+00  0.0000000000000D+00
226  2.2500000000000D+00  0.0000000000000D+00  0.0000000000000D+00
227  2.2600000000000D+00  0.0000000000000D+00  0.0000000000000D+00
228  2.2700000000000D+00  0.0000000000000D+00  0.0000000000000D+00
229  2.2800000000000D+00  0.0000000000000D+00  0.0000000000000D+00
230  2.2900000000000D+00  0.0000000000000D+00  0.0000000000000D+00
231  2.3000000000000D+00  0.0000000000000D+00  0.0000000000000D+00
232  2.3100000000000D+00  0.0000000000000D+00  0.0000000000000D+00
233  2.3200000000000D+00  0.0000000000000D+00  0.0000000000000D+00
234  2.3300000000000D+00  0.0000000000000D+00  0.0000000000000D+00
235  2.3400000000000D+00  0.0000000000000D+00  0.0000000000000D+00
236  2.3500000000000D+00  0.0000000000000D+00  0.0000000000000D+00
237  2.3600000000000D+00  0.0000000000000D+00  0.0000000000000D+00
238  2.3700000000000D+00  0.0000000000000D+00  0.0000000000000D+00
239  2.3800000000000D+00  0.0000000000000D+00  0.0000000000000D+00
240  2.3900000000000D+00  0.0000000000000D+00  0.0000000000000D+00
241  2.4000000000000D+00  0.0000000000000D+00  0.0000000000000D+00
242  2.4100000000000D+00  0.0000000000000D+00  0.0000000000000D+00
243  2.4200000000000D+00  0.0000000000000D+00  0.0000000000000D+00
244  2.4300000000000D+00  0.0000000000000D+00  0.0000000000000D+00
245  2.4400000000000D+00  0.0000000000000D+00  0.0000000000000D+00
246  2.4500000000000D+00  0.0000000000000D+00  0.0000000000000D+00
247  2.4600000000000D+00  0.0000000000000D+00  0.0000000000000D+00
248  2.4700000000000D+00  0.0000000000000D+00  0.0000000000000D+00
249  2.4800000000000D+00  0.0000000000000D+00  0.0000000000000D+00
250  2.4900000000000D+00  0.0000000000000D+00  0.0000000000000D+00
251  2.5000000000000D+00  0.0000000000000D+00  0.0000000000000D+00
252  2.5100000000000D+00  0.0000000000000D+00  0.0000000000000D+00
253  2.5200000000000D+00  0.0000000000000D+00  0.0000000000000D+00
254  2.5300000000000D+00  0.0000000000000D+00  0.0000000000000D+00
255  2.5400000000000D+00  0.0000000000000D+00  0.0000000000000D+00
256  2.5500000000000D+00  0.0000000000000D+00  0.0000000000000D+00
257  2.5600000000000D+00  0.0000000000000D+00  0.0000000000000D+00
258  2.5700000000000D+00  0.0000000000000D+00  0.0000000000000D+00
259  2.5800000000000D+00  0.0000000000000D+00  0.0000000000000D+00
260  2.5900000000000D+00  0.0000000000000D+00  0.0000000000000D+00
261  2.6000000000000D+00  0.0000000000000D+00  0.0000000000000D+00
262  2.6100000000000D+00  0.0000000000000D+00  0.0000000000000D+00
263  2.6200000000000D+00  0.0000000000000D+00  0.0000000000000D+00
264  2.6300000000000D+00  0.0000000000000D+00  0.0000000000000D+00
265  2.6400000000000D+00  0.0000000000000D+00  0.0000000000000D+00
266  2.6500000000000D+00  0.0000000000000D+00  0.0000000000000D+00
267  2.6600000000000D+00  0.0000000000000D+00  0.0000000000000D+00
268  2.6700000000000D+00  0.0000000000000D+00  0.0000000000000D+00
269  2.6800000000000D+00  0.0000000000000D+00  0.0000000000000D+00
270  2.6900000000000D+00  0.0000000000000D+00  0.0000000000000D+00
271  2.7000000000000D+00  0.0000000000000D+00  0.0000000000000D+00
272  2.7100000000000D+00  0.0000000000000D+00  0.0000000000000D+00
273  2.7200000000000D+00  0.0000000000000D+00  0.0000000000000D+00
274  2.7300000000000D+00  0.0000000000000D+00  0.0000000000000D+00
275  2.7400000000000D+00  0.0000000000000D+00  0.0000000000000D+00
276  2.7500000000000D+00  0.0000000000000D+00  0.0000000000000D+00
277  2.7600000000000D+00  0.0000000000000D+00  0.0000000000000D+00
278  2.7700000000000D+00  0.0000000000000D+00  0.0000000000000D+00
279  2.7800000000000D+00  0.0000000000000D+00  0.0000000000000D+00
280  2.7900000000000D+00  0.0000000000000D+00  0.0000000000000D+00
281  2.8000000000000D+00  0.0000000000000D+00  0.0000000000000D+00
282  2.8100000000000D+00  0.0000000000000D+00  0.0000000000000D+00
283  2.8200000000000D+00  0.0000000000000D+00  0.0000000000000D+00
284  2.8300000000000D+00  0.0000000000000D+00  0.0000000000000D+00
285  2.8400000000000D+00  0.0000000000000D+00  0.0000000000000D+00
286  2.8500000000000D+00  0.0000000000000D+00  0.0000000000000D+00
287  2.8600000000000D+00  0.0000000000000D+00  0.0000000000000D+00
288  2.8700000000000D+00  0.0000000000000D+00  0.0000000000000D+00
289  2.8800000000000D+00  0.0000000000000D+00  0.0000000000000D+00
290  2.8900000000000D+00  0.0000000000000D+00  0.0000000000000D+00
291  2.9000000000000D+00  0.0000000000000D+00  0.0000000000000D+00
292  2.9100000000000D+00  0.0000000000000D+00  0.0000000000000D+00
293  2.9200000000000D+00  0.0000000000000D+00  0.0000000000000D+00
294  2.9300000000000D+00  0.0000000000000D+00  0.0000000000000D+00
295  2.9400000000000D+00  0.0000000000000D+00  0.0000000000000D+00
296  2.9500000000000D+00  0.0000000000000D+00  0.0000000000000D+00
297  2.9600000000000D+00  0.0000000000000D+00  0.0000000000000D+00
298  2.9700000000000D+00  0.0000000000000D+00  0.0000000000000D+00
299  2.9800000000000D+00  0.0000000000000D+00  0.0000000000000D+00
300  2.9900000000000D+00  0.0000000000000D+00  0.0000000000000D+00
301  3.0000000000000D+00  0.0000000000000D+00  0.0000000000000D+00
302  3.0100000000000D+00  0.0000000000000D+00  0.0000000000000D+00
303  3.0200000000000D+00  0.0000000000000D+00  0.0000000000000D+00
304  3.0300000000000D+00  0.0000000000000D+00  0.0000000000000D+00
305  3.0400000000000D+00  0.0000000000000D+00  0.0000000000000D+00
306  3.0500000000000D+00  0.0000000000000D+00  0.0000000000000D+00
307  3.0600000000000D+00  0.0000000000000D+00  0.0000000000000D+00
308  3.0700000000000D+00  0.0000000000000D+00  0.0000000000000D+00
309  3.0800000000000D+00  0.0000000000000D+00  0.0000000000000D+00
310  3.0900000000000D+00  0.0000000000000D+00  0.0000000000000D+00
311  3.1000000000000D+00  0.0000000000000D+00  0.0000000000000D+00
312  3.1100000000000D+00  0.0000000000000D+00  0.0000000000000D+00
313  3.1200000000000D+00  0.0000000000000D+00  0.0000000000000D+00
314  3.1300000000000D+00  0.0000000000000D+00  0.0000000000000D+00
315  3.1400000000000D+00  0.0000000000000D+00  0.0000000000000D+00
316  3.1500000000000D+00  0.0000000000000D+00  0.0000000000000D+00
317  3.1600000000000D+00  0.0000000000000D+00  0.0000000000000D+00
318  3.1700000000000D+00  0.0000000000000D+00  0.0000000000000D+00
319  3.1800000000000D+00  0.0000000000000D+00  0.0000000000000D+00
320  3.1900000000000D+00  0.0000000000000D+00  0.0000000000000D+00
321  3.2000000000000D+00  0.0000000000000D+00  0.0000000000000D+00
322  3.2100000000000D+00  0.0000000000000D+00  0.0000000000000D+00
323  3.2200000000000D+00  0.0000000000000D+00  0.0000000000000D+00
324  3.2300000000000D+00  0.0000000000000D+00  0.0000000000000D+00
325  3.2400000000000D+00  0.0000000000000D+00  0.0000000000000D+00
326  3.2500000000000D+00  0.0000000000000D+00  0.0000000000000D+00
327  3.2600000000000D+00  0.0000000000000D+00  0.0000000000000D+00
328  3.2700000000000D+00  0.0000000000000D+00  0.0000000000000D+00
329  3.2800000000000D+00  0.0000000000000D+00  0.0000000000000D+00
330  3.2900000000000D+00  0.0000000000000D+00  0.0000000000000D+00
331  3.3000000000000D+00  0.0000000000000D+00  0.0000000000000D+00
332  3.3100000000000D+00  0.0000000000000D+00  0.0000000000000D+00
333  3.3200000000000D+00  0.0000000000000D+00  0.0000000000000D+00
334  3.3300000000000D+00  0.0000000000000D+00  0.0000000000000D+00
335  3.3400000000000D+00  0.0000000000000D+00  0.0000000000000D+00
336  3.3500000000000D+00  0.0000000000000D+00  0.0000000000000D+00
337  3.3600000000000D+00  0.0000000000000D+00  0.0000000000000D+00
338  3.3700000000000D+00  0.0000000000000D+00  0.0000000000000D+00
339  3.3800000000000D+00  0.0000000000000D+00  0.0000000000000D+00
340  3.3900000000000D+00  0.0000000000000D+00  0.0000000000000D+00
341  3.4000000000000D+00  0.0000000000000D+00  0.0000000000000D+00
342  3.4100000000000D+00  0.0000000000000D+00  0.0000000000000D+00
343  3.4200000000000D+00  0.0000000000000D+00  0.0000000000000D+00
344  3.4300000000000D+00  0.0000000000000D+00  0.0000000000000D+00
345  3.4400000000000D+00  0.0000000000000D+00  0.0000000000000D+00
346  3.4500000000000D+00  0.0000000000000D+00  0.0000000000000D+00
347  3.4600000000000D+00  0.0000000000000D+00  0.0000000000000D+00
348  3.4700000000000D+00  0.0000000000000D+00  0.0000000000000D+00
349  3.4800000000000D+00  0.0000000000000D+00  0.0000000000000D+00
350  3.4900000000000D+00  0.0000000000000D+00  0.0000000000000D+00
351  3.5000000000000D+00  0.0000000000000D+00  0.0000000000000D+00
352  3.5100000000000D+00  0.0000000000000D+00  0.0000000000000D+00
353  3.5200000000000D+00  0.0000000000000D+00  0.0000000000000D+00
354  3.5300000000000D+00  0.0000000000000D+00  0.0000000000000D+00
355  3.5400000000000D+00  0.0000000000000D+00  0.0000000000000D+00
356  3.5500000000000D+00  0.0000000000000D+00  0.0000000000000D+00
357  3.5600000000000D+00  0.0000000000000D+00  0.0000000000000D+00
358  3.5700000000000D+00  0.0000000000000D+00  0.0000000000000D+00
359  3.5800000000000D+00  0.0000000000000D+00  0.0000000000000D+00
360  3.5900000000000D+00  0.0000000000000D+00  0.0000000000000D+00
361  3.6000000000000D+00  0.0000000000000D+00  0.0000000000000D+00
362  3.6100000000000D+00  0.0000000000000D+00  0.0000000000000D+00
363  3.6200000000000D+00  0.0000000000000D+00  0.0000000000000D+00
364  3.6300000000000D+00  0.0000000000000D+00  0.0000000000000D+00
365  3.6400000000000D+00  0.0000000000000D+00  0.0000000000000D+00
366  3.6500000000000D+00  0.0000000000000D+00  0.0000000000000D+00
367  3.6600000000000D+00  0.0000000000000D+00  0.0000000000000D+00
368  3.6700000000000D+00  0.0000000000000D+00  0.0000000000000D+00
369  3.6800000000000D+00  0.0000000000000D+00  0.0000000000000D+00
370  3.6900000000000D+00  0.0000000000000D+00  0.0000000000000D+00
371  3.7000000000000D+00  0.0000000000000D+00  0.0000000000000D+00
372  3.7100000000000D+00  0.0000000000000D+00  0.0000000000000D+00
373  3.7200000000000D+00  0.0000000000000D+00  0.0000000000000D+00
374  3.7300000000000D+00  0.0000000000000D+00  0.0000000000000D+00
375  3.7400000000000D+00  0.0000000000000D+00  0.0000000000000D+00
376  3.7500000000000D+00  0.0000000000000D+00  0.0000000000000D+00
377  3.7600000000000D+00  0.0000000000000D+00  0.0000000000000D+00
378  3.7700000000000D+00  0.0000000000000D+00  0.0000000000000D+00
379  3.7800000000000D+00  0.0000000000000D+00  0.0000000000000D+00
380  3.7900000000000D+00  0.0000000000000D+00  0.0000000000000D+00
381  3.8000000000000D+00  0.0000000000000D+00  0.0000000000000D+00
382  3.8100000000000D+00  0.0000000000000D+00  0.0000000000000D+00
383  3.8200000000000D+00  0.0000000000000D+00  0.0000000000000D+00
384  3.8300000000000D+00  0.0000000000000D+00  0.0000000000000D+00
385  3.8400000000000D+00  0.0000000000000D+00  0.0000000000000D+00
386  3.8500000000000D+00  0.0000000000000D+00  0.0000000000000D+00
387  3.8600000000000D+00  0.0000000000000D+00  0.0000000000000D+00
388  3.8700000000000D+00  0.0000000000000D+00  0.0000000000000D+00
389  3.8800000000000D+00  0.0000000000000D+00  0.0000000000000D+00
390  3.8900000000000D+00  0.0000000000000D+00  0.0000000000000D+00
391  3.9000000000000D+00  0.0000000000000D+00  0.0000000000000D+00
392  3.9100000000000D+00  0.0000000000000D+00  0.0000000000000D+00
393  3.9200000000000D+00  0.0000000000000D+00  0.0000000000000D+00
394  3.9300000000000D+00  0.0000000000000D+00  0.0000000000000D+00
395  3.9400000000000D+00  0.0000000000000D+00  0.0000000000000D+00
396  3.9500000000000D+00  0.0000000000000D+00  0.0000000000000D+00
397  3.9600000000000D+00  0.0000000000000D+00  0.0000000000000D+00
398  3.9700000000000D+00  0.0000000000000D+00  0.0000000000000D+00
399  3.9800000000000D+00  0.0000000000000D+00  0.0000000000000D+00
400  3.9900000000000D+00  0.0000000000000D+00  0.0000000000000D+00
401  4.0000000000000D+00  0.0000000000000D+00  0.0000000000000D+00
402  4.0100000000000D+00  0.0000000000000D+00  0.0000000000000D+00
403  4.0200000000000D+00  0.0000000000000D+00  0.0000000000000D+00
404  4.0300000000000D+00  0.0000000000000D+00  0.0000000000000D+00
405  4.0400000000000D+00  0.0000000000000D+00  0.0000000000000D+00
406  4.0500000000000D+00  0.0000000000000D+00  0.0000000000000D+00
407  4.0600000000000D+00  0.0000000000000D+00  0.0000000000000D+00
408  4.0700000000000D+00  0.0000000000000D+00  0.0000000000000D+00
409  4.0800000000000D+00  0.0000000000000D+00  0.0000000000000D+00
410  4.0900000000000D+00  0.0000000000000D+00  0.0000000000000D+00
411  4.1000000000000D+00  0.0000000000000D+00  0.0000000000000D+00
412  4.1100000000000D+00  0.0000000000000D+00  0.0000000000000D+00
413  4.1200000000000D+00  0.0000000000000D+00  0.0000000000000D+00
414  4.1300000000000D+00  0.0000000000000D+00  0.0000000000000D+00
415  4.1400000000000D+00  0.0000000000000D+00  0.0000000000000D+00
416  4.1500000000000D+00  0.0000000000000D+00  0.0000000000000D+00
417  4.1600000000000D+00  0.0000000000000D+00  0.0000000000000D+00
418  4.1700000000000D+00  0.0000000000000D+00  0.0000000000000D+00
419  4.1800000000000D+00  0.0000000000000D+00  0.0000000000000D+00
420  4.1900000000000D+00  0.0000000000000D+00  0.0000000000000D+00
421  4.2000000000000D+00  0.0000000000000D+00  0.0000000000000D+00
422  4.2100000000000D+00  0.0000000000000D+00  0.0000000000000D+00
423  4.2200000000000D+00  0.0000000000000D+00  0.0000000000000D+00
424  4.2300000000000D+00  0.0000000000000D+00  0.0000000000000D+00
425  4.2400000000000D+00  0.0000000000000D+00  0.0000000000000D+00
426  4.2500000000000D+00  0.0000000000000D+00  0.0000000000000D+00
427  4.2600000000000D+00  0.0000000000000D+00  0.0000000000000D+00
428  4.2700000000000D+00  0.0000000000000D+00  0.0000000000000D+00
429  4.2800000000000D+00  0.0000000000000D+00  0.0000000000000D+00
430  4.2900000000000D+00  0.0000000000000D+00  0.0000000000000D+00
431  4.3000000000000D+00  0.0000000000000D+00  0.0000000000000D+00
432  4.3100000000000D+00  0.0000000000000D+00  0.0000000000000D+00
433  4.3200000000000D+00  0.0000000000000D+00  0.0000000000000D+00
434  4.3300000000000D+00  0.0000000000000D+00  0.0000000000000D+00
435  4.3400000000000D+00  0.0000000000000D+00  0.0000000000000D+00
436  4.3500000000000D+00  0.0000000000000D+00  0.0000000000000D+00
437  4.3600000000000D+00  0.0000000000000D+00  0.0000000000000D+00
438  4.3700000000000D+00  0.0000000000000D+00  0.0000000000000D+00
439  4.3800000000000D+00  0.0000000000000D+00  0.0000000000000D+00
440  4.3900000000000D+00  0.0000000000000D+00  0.0000000000000D+00
441  4.4000000000000D+00  0.0000000000000D+00  0.0000000000000D+00
442  4.4100000000000D+00  0.0000000000000D+00  0.0000000000000D+00
443  4.4200000000000D+00  0.0000000000000D+00  0.0000000000000D+00