<UPF version="2.0.1">
<PP_INFO>

This pseudopotential file has been produced using the code
ONCVPSP  (Optimized Norm-Conservinng Vanderbilt PSeudopotential)
fully-relativistic version 3.2.3 08/16/2016 by D. R. Hamann
The code is available through a link at URL www.mat-simresearch.com.
Documentation with the package provides a full discription of the
input data below.


While it is not required under the terms of the GNU GPL, it is
suggested that you cite D. R. Hamann, Phys. Rev. B 88, 085117 (2013)
in any publication using these pseudopotentials.

<PP_INPUTFILE>
# ATOM AND REFERENCE CONFIGURATION
# atsym  z   nc   nv     iexc    psfile
F  9.00    1    2       4      both
#
#   n    l    f        energy (Ha)
1    0    2.00
2    0    2.00
2    1    5.00
#
# PSEUDOPOTENTIAL AND OPTIMIZATION
# lmax
2
#
#   l,   rc,     ep,   ncon, nbas, qcut
0   1.30000  -1.09875    4    8   8.60000
1   1.45000  -0.40753    4    8   9.00000
2   1.60000   0.15000    4    8   5.80000
#
# LOCAL POTENTIAL
# lloc, lpopt,  rc(5),   dvloc0
4    5   0.95000      0.00000
#
# VANDERBILT-KLEINMAN-BYLANDER PROJECTORs
# l, nproj, debl
0    2   1.50000
1    2   1.49922
2    1   2.00000
#
# MODEL CORE CHARGE
# icmod, fcfact, rcfact
3   2.50000   1.85000
#
# LOG DERIVATIVE ANALYSIS
# epsh1, epsh2, depsh
-12.00   12.00    0.02
#
# OUTPUT GRID
# rlmax, drl
6.00    0.01
#
# TEST CONFIGURATIONS
# ncnf
0
# nvcnf
#   n    l    f
</PP_INPUTFILE>
</PP_INFO>
<!--                               -->
<!-- END OF HUMAN READABLE SECTION -->
<!--                               -->
<PP_HEADER
generated="Generated using ONCVPSP code by D. R. Hamann"
author="anonymous"
date="170222"
comment=""
element="F "
pseudo_type="NC"
relativistic="full"
is_ultrasoft="F"
is_paw="F"
is_coulomb="F"
has_so="T"
has_wfc="F"
has_gipaw="F"
core_correction="T"
functional="PBE"
z_valence="    7.00"
total_psenergy="  -4.77502482538E+01"
rho_cutoff="   8.31000000000E+00"
l_max="2"
l_local="-1"
mesh_size="   832"
number_of_wfc="3"
number_of_proj="8"/>
<PP_MESH>
<PP_R type="real"  size=" 832" columns="8">
0.0000    0.0100    0.0200    0.0300    0.0400    0.0500    0.0600    0.0700
0.0800    0.0900    0.1000    0.1100    0.1200    0.1300    0.1400    0.1500
0.1600    0.1700    0.1800    0.1900    0.2000    0.2100    0.2200    0.2300
0.2400    0.2500    0.2600    0.2700    0.2800    0.2900    0.3000    0.3100
0.3200    0.3300    0.3400    0.3500    0.3600    0.3700    0.3800    0.3900
0.4000    0.4100    0.4200    0.4300    0.4400    0.4500    0.4600    0.4700
0.4800    0.4900    0.5000    0.5100    0.5200    0.5300    0.5400    0.5500
0.5600    0.5700    0.5800    0.5900    0.6000    0.6100    0.6200    0.6300
0.6400    0.6500    0.6600    0.6700    0.6800    0.6900    0.7000    0.7100
0.7200    0.7300    0.7400    0.7500    0.7600    0.7700    0.7800    0.7900
0.8000    0.8100    0.8200    0.8300    0.8400    0.8500    0.8600    0.8700
0.8800    0.8900    0.9000    0.9100    0.9200    0.9300    0.9400    0.9500
0.9600    0.9700    0.9800    0.9900    1.0000    1.0100    1.0200    1.0300
1.0400    1.0500    1.0600    1.0700    1.0800    1.0900    1.1000    1.1100
1.1200    1.1300    1.1400    1.1500    1.1600    1.1700    1.1800    1.1900
1.2000    1.2100    1.2200    1.2300    1.2400    1.2500    1.2600    1.2700
1.2800    1.2900    1.3000    1.3100    1.3200    1.3300    1.3400    1.3500
1.3600    1.3700    1.3800    1.3900    1.4000    1.4100    1.4200    1.4300
1.4400    1.4500    1.4600    1.4700    1.4800    1.4900    1.5000    1.5100
1.5200    1.5300    1.5400    1.5500    1.5600    1.5700    1.5800    1.5900
1.6000    1.6100    1.6200    1.6300    1.6400    1.6500    1.6600    1.6700
1.6800    1.6900    1.7000    1.7100    1.7200    1.7300    1.7400    1.7500
1.7600    1.7700    1.7800    1.7900    1.8000    1.8100    1.8200    1.8300
1.8400    1.8500    1.8600    1.8700    1.8800    1.8900    1.9000    1.9100
1.9200    1.9300    1.9400    1.9500    1.9600    1.9700    1.9800    1.9900
2.0000    2.0100    2.0200    2.0300    2.0400    2.0500    2.0600    2.0700
2.0800    2.0900    2.1000    2.1100    2.1200    2.1300    2.1400    2.1500
2.1600    2.1700    2.1800    2.1900    2.2000    2.2100    2.2200    2.2300
2.2400    2.2500    2.2600    2.2700    2.2800    2.2900    2.3000    2.3100
2.3200    2.3300    2.3400    2.3500    2.3600    2.3700    2.3800    2.3900
2.4000    2.4100    2.4200    2.4300    2.4400    2.4500    2.4600    2.4700
2.4800    2.4900    2.5000    2.5100    2.5200    2.5300    2.5400    2.5500
2.5600    2.5700    2.5800    2.5900    2.6000    2.6100    2.6200    2.6300
2.6400    2.6500    2.6600    2.6700    2.6800    2.6900    2.7000    2.7100
2.7200    2.7300    2.7400    2.7500    2.7600    2.7700    2.7800    2.7900
2.8000    2.8100    2.8200    2.8300    2.8400    2.8500    2.8600    2.8700
2.8800    2.8900    2.9000    2.9100    2.9200    2.9300    2.9400    2.9500
2.9600    2.9700    2.9800    2.9900    3.0000    3.0100    3.0200    3.0300
3.0400    3.0500    3.0600    3.0700    3.0800    3.0900    3.1000    3.1100
3.1200    3.1300    3.1400    3.1500    3.1600    3.1700    3.1800    3.1900
3.2000    3.2100    3.2200    3.2300    3.2400    3.2500    3.2600    3.2700
3.2800    3.2900    3.3000    3.3100    3.3200    3.3300    3.3400    3.3500
3.3600    3.3700    3.3800    3.3900    3.4000    3.4100    3.4200    3.4300
3.4400    3.4500    3.4600    3.4700    3.4800    3.4900    3.5000    3.5100
3.5200    3.5300    3.5400    3.5500    3.5600    3.5700    3.5800    3.5900
3.6000    3.6100    3.6200    3.6300    3.6400    3.6500    3.6600    3.6700
3.6800    3.6900    3.7000    3.7100    3.7200    3.7300    3.7400    3.7500
3.7600    3.7700    3.7800    3.7900    3.8000    3.8100    3.8200    3.8300
3.8400    3.8500    3.8600    3.8700    3.8800    3.8900    3.9000    3.9100
3.9200    3.9300    3.9400    3.9500    3.9600    3.9700    3.9800    3.9900
4.0000    4.0100    4.0200    4.0300    4.0400    4.0500    4.0600    4.0700
4.0800    4.0900    4.1000    4.1100    4.1200    4.1300    4.1400    4.1500
4.1600    4.1700    4.1800    4.1900    4.2000    4.2100    4.2200    4.2300
4.2400    4.2500    4.2600    4.2700    4.2800    4.2900    4.3000    4.3100
4.3200    4.3300    4.3400    4.3500    4.3600    4.3700    4.3800    4.3900
4.4000    4.4100    4.4200    4.4300    4.4400    4.4500    4.4600    4.4700
4.4800    4.4900    4.5000    4.5100    4.5200    4.5300    4.5400    4.5500
4.5600    4.5700    4.5800    4.5900    4.6000    4.6100    4.6200    4.6300
4.6400    4.6500    4.6600    4.6700    4.6800    4.6900    4.7000    4.7100
4.7200    4.7300    4.7400    4.7500    4.7600    4.7700    4.7800    4.7900
4.8000    4.8100    4.8200    4.8300    4.8400    4.8500    4.8600    4.8700
4.8800    4.8900    4.9000    4.9100    4.9200    4.9300    4.9400    4.9500
4.9600    4.9700    4.9800    4.9900    5.0000    5.0100    5.0200    5.0300
5.0400    5.0500    5.0600    5.0700    5.0800    5.0900    5.1000    5.1100
5.1200    5.1300    5.1400    5.1500    5.1600    5.1700    5.1800    5.1900
5.2000    5.2100    5.2200    5.2300    5.2400    5.2500    5.2600    5.2700
5.2800    5.2900    5.3000    5.3100    5.3200    5.3300    5.3400    5.3500
5.3600    5.3700    5.3800    5.3900    5.4000    5.4100    5.4200    5.4300
5.4400    5.4500    5.4600    5.4700    5.4800    5.4900    5.5000    5.5100
5.5200    5.5300    5.5400    5.5500    5.5600    5.5700    5.5800    5.5900
5.6000    5.6100    5.6200    5.6300    5.6400    5.6500    5.6600    5.6700
5.6800    5.6900    5.7000    5.7100    5.7200    5.7300    5.7400    5.7500
5.7600    5.7700    5.7800    5.7900    5.8000    5.8100    5.8200    5.8300
5.8400    5.8500    5.8600    5.8700    5.8800    5.8900    5.9000    5.9100
5.9200    5.9300    5.9400    5.9500    5.9600    5.9700    5.9800    5.9900
6.0000    6.0100    6.0200    6.0300    6.0400    6.0500    6.0600    6.0700
6.0800    6.0900    6.1000    6.1100    6.1200    6.1300    6.1400    6.1500
6.1600    6.1700    6.1800    6.1900    6.2000    6.2100    6.2200    6.2300
6.2400    6.2500    6.2600    6.2700    6.2800    6.2900    6.3000    6.3100
6.3200    6.3300    6.3400    6.3500    6.3600    6.3700    6.3800    6.3900
6.4000    6.4100    6.4200    6.4300    6.4400    6.4500    6.4600    6.4700
6.4800    6.4900    6.5000    6.5100    6.5200    6.5300    6.5400    6.5500
6.5600    6.5700    6.5800    6.5900    6.6000    6.6100    6.6200    6.6300
6.6400    6.6500    6.6600    6.6700    6.6800    6.6900    6.7000    6.7100
6.7200    6.7300    6.7400    6.7500    6.7600    6.7700    6.7800    6.7900
6.8000    6.8100    6.8200    6.8300    6.8400    6.8500    6.8600    6.8700
6.8800    6.8900    6.9000    6.9100    6.9200    6.9300    6.9400    6.9500
6.9600    6.9700    6.9800    6.9900    7.0000    7.0100    7.0200    7.0300
7.0400    7.0500    7.0600    7.0700    7.0800    7.0900    7.1000    7.1100
7.1200    7.1300    7.1400    7.1500    7.1600    7.1700    7.1800    7.1900
7.2000    7.2100    7.2200    7.2300    7.2400    7.2500    7.2600    7.2700
7.2800    7.2900    7.3000    7.3100    7.3200    7.3300    7.3400    7.3500
7.3600    7.3700    7.3800    7.3900    7.4000    7.4100    7.4200    7.4300
7.4400    7.4500    7.4600    7.4700    7.4800    7.4900    7.5000    7.5100
7.5200    7.5300    7.5400    7.5500    7.5600    7.5700    7.5800    7.5900
7.6000    7.6100    7.6200    7.6300    7.6400    7.6500    7.6600    7.6700
7.6800    7.6900    7.7000    7.7100    7.7200    7.7300    7.7400    7.7500
7.7600    7.7700    7.7800    7.7900    7.8000    7.8100    7.8200    7.8300
7.8400    7.8500    7.8600    7.8700    7.8800    7.8900    7.9000    7.9100
7.9200    7.9300    7.9400    7.9500    7.9600    7.9700    7.9800    7.9900
8.0000    8.0100    8.0200    8.0300    8.0400    8.0500    8.0600    8.0700
8.0800    8.0900    8.1000    8.1100    8.1200    8.1300    8.1400    8.1500
8.1600    8.1700    8.1800    8.1900    8.2000    8.2100    8.2200    8.2300
8.2400    8.2500    8.2600    8.2700    8.2800    8.2900    8.3000    8.3100
</PP_R>
<PP_RAB type="real"  size=" 832" columns="8">
0.0100    0.0100    0.0100    0.0100    0.0100    0.0100    0.0100    0.0100
0.0100    0.0100    0.0100    0.0100    0.0100    0.0100    0.0100    0.0100
0.0100    0.0100    0.0100    0.0100    0.0100    0.0100    0.0100    0.0100
0.0100    0.0100    0.0100    0.0100    0.0100    0.0100    0.0100    0.0100
0.0100    0.0100    0.0100    0.0100    0.0100    0.0100    0.0100    0.0100
0.0100    0.0100    0.0100    0.0100    0.0100    0.0100    0.0100    0.0100
0.0100    0.0100    0.0100    0.0100    0.0100    0.0100    0.0100    0.0100
0.0100    0.0100    0.0100    0.0100    0.0100    0.0100    0.0100    0.0100
0.0100    0.0100    0.0100    0.0100    0.0100    0.0100    0.0100    0.0100
0.0100    0.0100    0.0100    0.0100    0.0100    0.0100    0.0100    0.0100
0.0100    0.0100    0.0100    0.0100    0.0100    0.0100    0.0100    0.0100
0.0100    0.0100    0.0100    0.0100    0.0100    0.0100    0.0100    0.0100
0.0100    0.0100    0.0100    0.0100    0.0100    0.0100    0.0100    0.0100
0.0100    0.0100    0.0100    0.0100    0.0100    0.0100    0.0100    0.0100
0.0100    0.0100    0.0100    0.0100    0.0100    0.0100    0.0100    0.0100
0.0100    0.0100    0.0100    0.0100    0.0100    0.0100    0.0100    0.0100
0.0100    0.0100    0.0100    0.0100    0.0100    0.0100    0.0100    0.0100
0.0100    0.0100    0.0100    0.0100    0.0100    0.0100    0.0100    0.0100
0.0100    0.0100    0.0100    0.0100    0.0100    0.0100    0.0100    0.0100
0.0100    0.0100    0.0100    0.0100    0.0100    0.0100    0.0100    0.0100
0.0100    0.0100    0.0100    0.0100    0.0100    0.0100    0.0100    0.0100
0.0100    0.0100    0.0100    0.0100    0.0100    0.0100    0.0100    0.0100
0.0100    0.0100    0.0100    0.0100    0.0100    0.0100    0.0100    0.0100
0.0100    0.0100    0.0100    0.0100    0.0100    0.0100    0.0100    0.0100
0.0100    0.0100    0.0100    0.0100    0.0100    0.0100    0.0100    0.0100
0.0100    0.0100    0.0100    0.0100    0.0100    0.0100    0.0100    0.0100
0.0100    0.0100    0.0100    0.0100    0.0100    0.0100    0.0100    0.0100
0.0100    0.0100    0.0100    0.0100    0.0100    0.0100    0.0100    0.0100
0.0100    0.0100    0.0100    0.0100    0.0100    0.0100    0.0100    0.0100
0.0100    0.0100    0.0100    0.0100    0.0100    0.0100    0.0100    0.0100
0.0100    0.0100    0.0100    0.0100    0.0100    0.0100    0.0100    0.0100
0.0100    0.0100    0.0100    0.0100    0.0100    0.0100    0.0100    0.0100
0.0100    0.0100    0.0100    0.0100    0.0100    0.0100    0.0100    0.0100
0.0100    0.0100    0.0100    0.0100    0.0100    0.0100    0.0100    0.0100
0.0100    0.0100    0.0100    0.0100    0.0100    0.0100    0.0100    0.0100
0.0100    0.0100    0.0100    0.0100    0.0100    0.0100    0.0100    0.0100
0.0100    0.0100    0.0100    0.0100    0.0100    0.0100    0.0100    0.0100
0.0100    0.0100    0.0100    0.0100    0.0100    0.0100    0.0100    0.0100
0.0100    0.0100    0.0100    0.0100    0.0100    0.0100    0.0100    0.0100
0.0100    0.0100    0.0100    0.0100    0.0100    0.0100    0.0100    0.0100
0.0100    0.0100    0.0100    0.0100    0.0100    0.0100    0.0100    0.0100
0.0100    0.0100    0.0100    0.0100    0.0100    0.0100    0.0100    0.0100
0.0100    0.0100    0.0100    0.0100    0.0100    0.0100    0.0100    0.0100
0.0100    0.0100    0.0100    0.0100    0.0100    0.0100    0.0100    0.0100
0.0100    0.0100    0.0100    0.0100    0.0100    0.0100    0.0100    0.0100
0.0100    0.0100    0.0100    0.0100    0.0100    0.0100    0.0100    0.0100
0.0100    0.0100    0.0100    0.0100    0.0100    0.0100    0.0100    0.0100
0.0100    0.0100    0.0100    0.0100    0.0100    0.0100    0.0100    0.0100
0.0100    0.0100    0.0100    0.0100    0.0100    0.0100    0.0100    0.0100
0.0100    0.0100    0.0100    0.0100    0.0100    0.0100    0.0100    0.0100
0.0100    0.0100    0.0100    0.0100    0.0100    0.0100    0.0100    0.0100
0.0100    0.0100    0.0100    0.0100    0.0100    0.0100    0.0100    0.0100
0.0100    0.0100    0.0100    0.0100    0.0100    0.0100    0.0100    0.0100
0.0100    0.0100    0.0100    0.0100    0.0100    0.0100    0.0100    0.0100
0.0100    0.0100    0.0100    0.0100    0.0100    0.0100    0.0100    0.0100
0.0100    0.0100    0.0100    0.0100    0.0100    0.0100    0.0100    0.0100
0.0100    0.0100    0.0100    0.0100    0.0100    0.0100    0.0100    0.0100
0.0100    0.0100    0.0100    0.0100    0.0100    0.0100    0.0100    0.0100
0.0100    0.0100    0.0100    0.0100    0.0100    0.0100    0.0100    0.0100
0.0100    0.0100    0.0100    0.0100    0.0100    0.0100    0.0100    0.0100
0.0100    0.0100    0.0100    0.0100    0.0100    0.0100    0.0100    0.0100
0.0100    0.0100    0.0100    0.0100    0.0100    0.0100    0.0100    0.0100
0.0100    0.0100    0.0100    0.0100    0.0100    0.0100    0.0100    0.0100
0.0100    0.0100    0.0100    0.0100    0.0100    0.0100    0.0100    0.0100
0.0100    0.0100    0.0100    0.0100    0.0100    0.0100    0.0100    0.0100
0.0100    0.0100    0.0100    0.0100    0.0100    0.0100    0.0100    0.0100
0.0100    0.0100    0.0100    0.0100    0.0100    0.0100    0.0100    0.0100
0.0100    0.0100    0.0100    0.0100    0.0100    0.0100    0.0100    0.0100
0.0100    0.0100    0.0100    0.0100    0.0100    0.0100    0.0100    0.0100
0.0100    0.0100    0.0100    0.0100    0.0100    0.0100    0.0100    0.0100
0.0100    0.0100    0.0100    0.0100    0.0100    0.0100    0.0100    0.0100
0.0100    0.0100    0.0100    0.0100    0.0100    0.0100    0.0100    0.0100
0.0100    0.0100    0.0100    0.0100    0.0100    0.0100    0.0100    0.0100
0.0100    0.0100    0.0100    0.0100    0.0100    0.0100    0.0100    0.0100
0.0100    0.0100    0.0100    0.0100    0.0100    0.0100    0.0100    0.0100
0.0100    0.0100    0.0100    0.0100    0.0100    0.0100    0.0100    0.0100
0.0100    0.0100    0.0100    0.0100    0.0100    0.0100    0.0100    0.0100
0.0100    0.0100    0.0100    0.0100    0.0100    0.0100    0.0100    0.0100
0.0100    0.0100    0.0100    0.0100    0.0100    0.0100    0.0100    0.0100
0.0100    0.0100    0.0100    0.0100    0.0100    0.0100    0.0100    0.0100
0.0100    0.0100    0.0100    0.0100    0.0100    0.0100    0.0100    0.0100
0.0100    0.0100    0.0100    0.0100    0.0100    0.0100    0.0100    0.0100
0.0100    0.0100    0.0100    0.0100    0.0100    0.0100    0.0100    0.0100
0.0100    0.0100    0.0100    0.0100    0.0100    0.0100    0.0100    0.0100
0.0100    0.0100    0.0100    0.0100    0.0100    0.0100    0.0100    0.0100
0.0100    0.0100    0.0100    0.0100    0.0100    0.0100    0.0100    0.0100
0.0100    0.0100    0.0100    0.0100    0.0100    0.0100    0.0100    0.0100
0.0100    0.0100    0.0100    0.0100    0.0100    0.0100    0.0100    0.0100
0.0100    0.0100    0.0100    0.0100    0.0100    0.0100    0.0100    0.0100
0.0100    0.0100    0.0100    0.0100    0.0100    0.0100    0.0100    0.0100
0.0100    0.0100    0.0100    0.0100    0.0100    0.0100    0.0100    0.0100
0.0100    0.0100    0.0100    0.0100    0.0100    0.0100    0.0100    0.0100
0.0100    0.0100    0.0100    0.0100    0.0100    0.0100    0.0100    0.0100
0.0100    0.0100    0.0100    0.0100    0.0100    0.0100    0.0100    0.0100
0.0100    0.0100    0.0100    0.0100    0.0100    0.0100    0.0100    0.0100
0.0100    0.0100    0.0100    0.0100    0.0100    0.0100    0.0100    0.0100
0.0100    0.0100    0.0100    0.0100    0.0100    0.0100    0.0100    0.0100
0.0100    0.0100    0.0100    0.0100    0.0100    0.0100    0.0100    0.0100
0.0100    0.0100    0.0100    0.0100    0.0100    0.0100    0.0100    0.0100
0.0100    0.0100    0.0100    0.0100    0.0100    0.0100    0.0100    0.0100
0.0100    0.0100    0.0100    0.0100    0.0100    0.0100    0.0100    0.0100
0.0100    0.0100    0.0100    0.0100    0.0100    0.0100    0.0100    0.0100
0.0100    0.0100    0.0100    0.0100    0.0100    0.0100    0.0100    0.0100
0.0100    0.0100    0.0100    0.0100    0.0100    0.0100    0.0100    0.0100
</PP_RAB>
</PP_MESH>
<PP_LOCAL type="real"  size=" 832" columns="4">
-3.0451475377E+01   -3.0448616632E+01   -3.0440046627E+01   -3.0425783980E+01
-3.0405858943E+01   -3.0380312343E+01   -3.0349194172E+01   -3.0312561915E+01
-3.0270478731E+01   -3.0223011562E+01   -3.0170229285E+01   -3.0112200961E+01
-3.0048994284E+01   -2.9980674243E+01   -2.9907302064E+01   -2.9828934416E+01
-2.9745622910E+01   -2.9657413850E+01   -2.9564348238E+01   -2.9466461985E+01
-2.9363786310E+01   -2.9256348287E+01   -2.9144171510E+01   -2.9027276842E+01
-2.8905683236E+01   -2.8779408582E+01   -2.8648470580E+01   -2.8512887625E+01
-2.8372679667E+01   -2.8227869071E+01   -2.8078481444E+01   -2.7924546427E+01
-2.7766098464E+01   -2.7603177518E+01   -2.7435829753E+01   -2.7264108163E+01
-2.7088073148E+01   -2.6907793042E+01   -2.6723344561E+01   -2.6534813203E+01
-2.6342293556E+01   -2.6145889542E+01   -2.5945714561E+01   -2.5741891561E+01
-2.5534553004E+01   -2.5323840746E+01   -2.5109905824E+01   -2.4892908158E+01
-2.4673016166E+01   -2.4450406308E+01   -2.4225262569E+01   -2.3997775883E+01
-2.3768143526E+01   -2.3536568466E+01   -2.3303258710E+01   -2.3068426630E+01
-2.2832288291E+01   -2.2595062790E+01   -2.2356971586E+01   -2.2118237849E+01
-2.1879085808E+01   -2.1639740098E+01   -2.1400425109E+01   -2.1161364324E+01
-2.0922779647E+01   -2.0684890714E+01   -2.0447914197E+01   -2.0212063080E+01
-1.9977545941E+01   -1.9744566208E+01   -1.9513321430E+01   -1.9284002543E+01
-1.9056793159E+01   -1.8831868875E+01   -1.8609396615E+01   -1.8389534011E+01
-1.8172428835E+01   -1.7958218476E+01   -1.7747029482E+01   -1.7538977152E+01
-1.7334165190E+01   -1.7132685413E+01   -1.6934617522E+01   -1.6740028910E+01
-1.6548974528E+01   -1.6361496782E+01   -1.6177625473E+01   -1.5997377755E+01
-1.5820758120E+01   -1.5647758398E+01   -1.5478357761E+01   -1.5312522730E+01
-1.5150207179E+01   -1.4991352332E+01   -1.4835886732E+01   -1.4683726266E+01
-1.4534773909E+01   -1.4388920541E+01   -1.4246052644E+01   -1.4106060114E+01
-1.3968837597E+01   -1.3834284138E+01   -1.3702303239E+01   -1.3572802796E+01
-1.3445695027E+01   -1.3320896382E+01   -1.3198327444E+01   -1.3077912810E+01
-1.2959580973E+01   -1.2843264187E+01   -1.2728898333E+01   -1.2616422778E+01
-1.2505780238E+01   -1.2396916637E+01   -1.2289780977E+01   -1.2184325202E+01
-1.2080504072E+01   -1.1978275050E+01   -1.1877598178E+01   -1.1778435979E+01
-1.1680753345E+01   -1.1584517448E+01   -1.1489697636E+01   -1.1396265348E+01
-1.1304194020E+01   -1.1213458983E+01   -1.1124037386E+01   -1.1035908127E+01
-1.0949051572E+01   -1.0863449506E+01   -1.0779085394E+01   -1.0695947320E+01
-1.0614028951E+01   -1.0533331216E+01   -1.0453846823E+01   -1.0375558191E+01
-1.0298451833E+01   -1.0222514824E+01   -1.0147732874E+01   -1.0074091246E+01
-1.0001574474E+01   -9.9301659115E+00   -9.8598483082E+00   -9.7906032896E+00
-9.7224120563E+00   -9.6552504844E+00   -9.5890828731E+00   -9.5238610950E+00
-9.4595239652E+00   -9.3960360495E+00   -9.3333929368E+00   -9.2715814792E+00
-9.2105816866E+00   -9.1503781121E+00   -9.0909558138E+00   -9.0322998409E+00
-8.9743956637E+00   -8.9172291333E+00   -8.8607864330E+00   -8.8050540661E+00
-8.7500188425E+00   -8.6956678658E+00   -8.6419885232E+00   -8.5889684776E+00
-8.5365956606E+00   -8.4848582682E+00   -8.4337447568E+00   -8.3832438401E+00
-8.3333444874E+00   -8.2840359211E+00   -8.2353076150E+00   -8.1871492918E+00
-8.1395509203E+00   -8.0925027125E+00   -8.0459951191E+00   -8.0000188247E+00
-7.9545647422E+00   -7.9096240064E+00   -7.8651879683E+00   -7.8212481869E+00
-7.7777964195E+00   -7.7348246178E+00   -7.6923249057E+00   -7.6502895546E+00
-7.6087110452E+00   -7.5675821843E+00   -7.5268959080E+00   -7.4866449874E+00
-7.4468222786E+00   -7.4074209331E+00   -7.3684343316E+00   -7.3298559793E+00
-7.2916794883E+00   -7.2538986101E+00   -7.2165072284E+00   -7.1794993500E+00
-7.1428691050E+00   -7.1066107428E+00   -7.0707186286E+00   -7.0351872412E+00
-7.0000111695E+00   -6.9651851102E+00   -6.9307038652E+00   -6.8965623386E+00
-6.8627555346E+00   -6.8292785545E+00   -6.7961265953E+00   -6.7632949464E+00
-6.7307789879E+00   -6.6985741883E+00   -6.6666761025E+00   -6.6350803696E+00
-6.6037827110E+00   -6.5727789285E+00   -6.5420649022E+00   -6.5116365890E+00
-6.4814900207E+00   -6.4516213022E+00   -6.4220266098E+00   -6.3927021897E+00
-6.3636443564E+00   -6.3348494910E+00   -6.3063140400E+00   -6.2780345134E+00
-6.2500074837E+00   -6.2222295842E+00   -6.1946975078E+00   -6.1674080058E+00
-6.1403578863E+00   -6.1135440136E+00   -6.0869633061E+00   -6.0606127357E+00
-6.0344893264E+00   -6.0085901531E+00   -5.9829123412E+00   -5.9574530648E+00
-5.9322095461E+00   -5.9071790539E+00   -5.8823589029E+00   -5.8577464528E+00
-5.8333391074E+00   -5.8091343136E+00   -5.7851295603E+00   -5.7613223779E+00
-5.7377103373E+00   -5.7142910490E+00   -5.6910621623E+00   -5.6680213647E+00
-5.6451663809E+00   -5.6224949722E+00   -5.6000049356E+00   -5.5776941034E+00
-5.5555603422E+00   -5.5336015524E+00   -5.5118156673E+00   -5.4902006527E+00
-5.4687545064E+00   -5.4474752570E+00   -5.4263609638E+00   -5.4054097163E+00
-5.3846196331E+00   -5.3639888618E+00   -5.3435155781E+00   -5.3231979856E+00
-5.3030343151E+00   -5.2830228240E+00   -5.2631617962E+00   -5.2434495409E+00
-5.2238843928E+00   -5.2044647113E+00   -5.1851888802E+00   -5.1660553068E+00
-5.1470624223E+00   -5.1282086806E+00   -5.1094925582E+00   -5.0909125539E+00
-5.0724671880E+00   -5.0541550024E+00   -5.0359745600E+00   -5.0179244440E+00
-5.0000032581E+00   -4.9822096259E+00   -4.9645421904E+00   -4.9469996137E+00
-4.9295805771E+00   -4.9122837800E+00   -4.8951079402E+00   -4.8780517933E+00
-4.8611140926E+00   -4.8442936085E+00   -4.8275891283E+00   -4.8109994562E+00
-4.7945234126E+00   -4.7781598341E+00   -4.7619075731E+00   -4.7457654974E+00
-4.7297324905E+00   -4.7138074505E+00   -4.6979892905E+00   -4.6822769382E+00
-4.6666693355E+00   -4.6511654383E+00   -4.6357642164E+00   -4.6204646533E+00
-4.6052657457E+00   -4.5901665036E+00   -4.5751659499E+00   -4.5602631200E+00
-4.5454570623E+00   -4.5307468372E+00   -4.5161315171E+00   -4.5016101867E+00
-4.4871819422E+00   -4.4728458914E+00   -4.4586011534E+00   -4.4444468585E+00
-4.4303821483E+00   -4.4164061747E+00   -4.4025181007E+00   -4.3887170996E+00
-4.3750023552E+00   -4.3613730612E+00   -4.3478284215E+00   -4.3343676500E+00
-4.3209899699E+00   -4.3076946143E+00   -4.2944808255E+00   -4.2813478554E+00
-4.2682949646E+00   -4.2553214230E+00   -4.2424265092E+00   -4.2296095104E+00
-4.2168697228E+00   -4.2042064507E+00   -4.1916190067E+00   -4.1791067119E+00
-4.1666688953E+00   -4.1543048938E+00   -4.1420140522E+00   -4.1297957232E+00
-4.1176492669E+00   -4.1055740510E+00   -4.0935694505E+00   -4.0816348479E+00
-4.0697696326E+00   -4.0579732014E+00   -4.0462449577E+00   -4.0345843121E+00
-4.0229906819E+00   -4.0114634909E+00   -4.0000021697E+00   -3.9886061552E+00
-3.9772748910E+00   -3.9660078266E+00   -3.9548044181E+00   -3.9436641274E+00
-3.9325864227E+00   -3.9215707780E+00   -3.9106166734E+00   -3.8997235944E+00
-3.8888910326E+00   -3.8781184850E+00   -3.8674054543E+00   -3.8567514487E+00
-3.8461559815E+00   -3.8356185718E+00   -3.8251387435E+00   -3.8147160260E+00
-3.8043499538E+00   -3.7940400663E+00   -3.7837859079E+00   -3.7735870279E+00
-3.7634429807E+00   -3.7533533251E+00   -3.7433176250E+00   -3.7333354485E+00
-3.7234063687E+00   -3.7135299631E+00   -3.7037058136E+00   -3.6939335065E+00
-3.6842126326E+00   -3.6745427869E+00   -3.6649235686E+00   -3.6553545812E+00
-3.6458354323E+00   -3.6363657334E+00   -3.6269451003E+00   -3.6175731526E+00
-3.6082495139E+00   -3.5989738116E+00   -3.5897456769E+00   -3.5805647450E+00
-3.5714306544E+00   -3.5623430478E+00   -3.5533015711E+00   -3.5443058739E+00
-3.5353556095E+00   -3.5264504346E+00   -3.5175900092E+00   -3.5087739969E+00
-3.5000020647E+00   -3.4912738826E+00   -3.4825891243E+00   -3.4739474665E+00
-3.4653485891E+00   -3.4567921752E+00   -3.4482779111E+00   -3.4398054861E+00
-3.4313745924E+00   -3.4229849256E+00   -3.4146361839E+00   -3.4063280687E+00
-3.3980602840E+00   -3.3898325370E+00   -3.3816445374E+00   -3.3734959981E+00
-3.3653866343E+00   -3.3573161643E+00   -3.3492843089E+00   -3.3412907917E+00
-3.3333353388E+00   -3.3254176789E+00   -3.3175375434E+00   -3.3096946662E+00
-3.3018887836E+00   -3.2941196345E+00   -3.2863869602E+00   -3.2786905044E+00
-3.2710300134E+00   -3.2634052355E+00   -3.2558159216E+00   -3.2482618249E+00
-3.2407427008E+00   -3.2332583070E+00   -3.2258084035E+00   -3.2183927523E+00
-3.2110111177E+00   -3.2036632664E+00   -3.1963489668E+00   -3.1890679897E+00
-3.1818201079E+00   -3.1746050962E+00   -3.1674227316E+00   -3.1602727929E+00
-3.1531550611E+00   -3.1460693191E+00   -3.1390153516E+00   -3.1319929454E+00
-3.1250018892E+00   -3.1180419735E+00   -3.1111129907E+00   -3.1042147351E+00
-3.0973470026E+00   -3.0905095912E+00   -3.0837023005E+00   -3.0769249319E+00
-3.0701772886E+00   -3.0634591753E+00   -3.0567703988E+00   -3.0501107672E+00
-3.0434800904E+00   -3.0368781801E+00   -3.0303048495E+00   -3.0237599133E+00
-3.0172431880E+00   -3.0107544915E+00   -3.0042936435E+00   -2.9978604650E+00
-2.9914547788E+00   -2.9850764088E+00   -2.9787251807E+00   -2.9724009218E+00
-2.9661034605E+00   -2.9598326269E+00   -2.9535882525E+00   -2.9473701701E+00
-2.9411782141E+00   -2.9350122201E+00   -2.9288720252E+00   -2.9227574678E+00
-2.9166683878E+00   -2.9106046261E+00   -2.9045660251E+00   -2.8985524288E+00
-2.8925636819E+00   -2.8865996309E+00   -2.8806601232E+00   -2.8747450078E+00
-2.8688541346E+00   -2.8629873549E+00   -2.8571445212E+00   -2.8513254872E+00
-2.8455301078E+00   -2.8397582390E+00   -2.8340097381E+00   -2.8282844634E+00
-2.8225822744E+00   -2.8169030319E+00   -2.8112465975E+00   -2.8056128342E+00
-2.8000016059E+00   -2.7944127777E+00   -2.7888462158E+00   -2.7833017872E+00
-2.7777793603E+00   -2.7722788044E+00   -2.7667999898E+00   -2.7613427878E+00
-2.7559070709E+00   -2.7504927123E+00   -2.7450995865E+00   -2.7397275688E+00
-2.7343765356E+00   -2.7290463640E+00   -2.7237369324E+00   -2.7184481199E+00
-2.7131798067E+00   -2.7079318737E+00   -2.7027042031E+00   -2.6974966775E+00
-2.6923091809E+00   -2.6871415979E+00   -2.6819938141E+00   -2.6768657158E+00
-2.6717571904E+00   -2.6666681261E+00   -2.6615984117E+00   -2.6565479373E+00
-2.6515165934E+00   -2.6465042717E+00   -2.6415108643E+00   -2.6365362644E+00
-2.6315803661E+00   -2.6266430640E+00   -2.6217242536E+00   -2.6168238313E+00
-2.6119416941E+00   -2.6070777400E+00   -2.6022318674E+00   -2.5974039758E+00
-2.5925939653E+00   -2.5878017367E+00   -2.5830271915E+00   -2.5782702322E+00
-2.5735307617E+00   -2.5688086837E+00   -2.5641039027E+00   -2.5594163238E+00
-2.5547458528E+00   -2.5500923964E+00   -2.5454558615E+00   -2.5408361562E+00
-2.5362331889E+00   -2.5316468689E+00   -2.5270771060E+00   -2.5225238107E+00
-2.5179868942E+00   -2.5134662682E+00   -2.5089618451E+00   -2.5044735381E+00
-2.5000012607E+00   -2.4955449272E+00   -2.4911044526E+00   -2.4866797523E+00
-2.4822707425E+00   -2.4778773397E+00   -2.4734994613E+00   -2.4691370252E+00
-2.4647899498E+00   -2.4604581540E+00   -2.4561415576E+00   -2.4518400806E+00
-2.4475536437E+00   -2.4432821681E+00   -2.4390255758E+00   -2.4347837890E+00
-2.4305567306E+00   -2.4263443241E+00   -2.4221464934E+00   -2.4179631629E+00
-2.4137942578E+00   -2.4096397034E+00   -2.4054994258E+00   -2.4013733516E+00
-2.3972614078E+00   -2.3931635219E+00   -2.3890796220E+00   -2.3850096366E+00
-2.3809534946E+00   -2.3769111256E+00   -2.3728824596E+00   -2.3688674269E+00
-2.3648659586E+00   -2.3608779859E+00   -2.3569034408E+00   -2.3529422554E+00
-2.3489943627E+00   -2.3450596957E+00   -2.3411381881E+00   -2.3372297741E+00
-2.3333343881E+00   -2.3294519651E+00   -2.3255824405E+00   -2.3217257502E+00