Mo    ONCVPSP-3.3.0  r_core=   1.45541   1.45541   1.35488
42.0000     14.0000      171115    zatom,zion,pspd
8      11   2     4   600     0    pspcod,pspxc,lmax,lloc,mmax,r2well
5.99000000  3.00000000  0.00000000    rchrg fchrg qchrg
2     3     3     0    nproj
3     1           extension_switch
4     3     0    nprojso
0                         1.3489276808541D+00  1.3831235715800D+01
1  0.0000000000000D+00 -4.8342954639402D-10  1.8239398880127D-10
2  1.0000000000000D-02 -1.8123454650335D-02  5.5844618790864D-02
3  2.0000000000000D-02 -3.6271232896718D-02  1.1164860837660D-01
4  3.0000000000000D-02 -5.4466497300280D-02  1.6737093910936D-01
5  4.0000000000000D-02 -7.2730101778149D-02  2.2296978555886D-01
6  5.0000000000000D-02 -9.1079470722862D-02  2.7840214133234D-01
7  6.0000000000000D-02 -1.0952751790726D-01  3.3362344901793D-01
8  7.0000000000000D-02 -1.2808161786613D-01  3.8858725007734D-01
9  8.0000000000000D-02 -1.4674264196242D-01  4.4324485933126D-01
10  9.0000000000000D-02 -1.6550407074885D-01  4.9754506845579D-01
11  1.0000000000000D-01 -1.8435119353004D-01  5.5143388264168D-01
12  1.1000000000000D-01 -2.0326040522094D-01  6.0485429426342D-01
13  1.2000000000000D-01 -2.2219860969138D-01  6.5774609706311D-01
14  1.3000000000000D-01 -2.4112273779131D-01  7.1004574397924D-01
15  1.4000000000000D-01 -2.5997938717400D-01  7.6168625134404D-01
16  1.5000000000000D-01 -2.7870458988484D-01  8.1259715174028D-01
17  1.6000000000000D-01 -2.9722371247060D-01  8.6270449735103D-01
18  1.7000000000000D-01 -3.1545149209706D-01  9.1193091515886D-01
19  1.8000000000000D-01 -3.3329221085419D-01  9.6019571485796D-01
20  1.9000000000000D-01 -3.5064000908699D-01  1.0074150498375D+00
21  2.0000000000000D-01 -3.6737933722813D-01  1.0535021310815D+00
22  2.1000000000000D-01 -3.8338554423899D-01  1.0983674933158D+00
23  2.2000000000000D-01 -3.9852559939766D-01  1.1419193122143D+00
24  2.3000000000000D-01 -4.1265894282057D-01  1.1840637709723D+00
25  2.4000000000000D-01 -4.2563845877940D-01  1.2247054740498D+00
26  2.5000000000000D-01 -4.3731156458796D-01  1.2637479054064D+00
27  2.6000000000000D-01 -4.4752140659931D-01  1.3010939280809D+00
28  2.7000000000000D-01 -4.5610815367919D-01  1.3366463215263D+00
29  2.8000000000000D-01 -4.6291037742284D-01  1.3703083526932D+00
30  2.9000000000000D-01 -4.6776650736661D-01  1.4019843764705D+00
31  3.0000000000000D-01 -4.7051634852448D-01  1.4315804607396D+00
32  3.1000000000000D-01 -4.7100264776259D-01  1.4590050309880D+00
33  3.2000000000000D-01 -4.6907269481995D-01  1.4841695291524D+00
34  3.3000000000000D-01 -4.6457994320001D-01  1.5069890811395D+00
35  3.4000000000000D-01 -4.5738563570045D-01  1.5273831672850D+00
36  3.5000000000000D-01 -4.4736041902672D-01  1.5452762898862D+00
37  3.6000000000000D-01 -4.3438593174983D-01  1.5605986318548D+00
38  3.7000000000000D-01 -4.1835634982736D-01  1.5732867005121D+00
39  3.8000000000000D-01 -3.9917987400969D-01  1.5832839505686D+00
40  3.9000000000000D-01 -3.7678014370292D-01  1.5905413804062D+00
41  4.0000000000000D-01 -3.5109756225582D-01  1.5950180959121D+00
42  4.1000000000000D-01 -3.2209051917873D-01  1.5966818362920D+00
43  4.2000000000000D-01 -2.8973649548680D-01  1.5955094565273D+00
44  4.3000000000000D-01 -2.5403303918128D-01  1.5914873614237D+00
45  4.4000000000000D-01 -2.1499859883847D-01  1.5846118865284D+00
46  4.5000000000000D-01 -1.7267320435847D-01  1.5748896215772D+00
47  4.6000000000000D-01 -1.2711898512674D-01  1.5623376725483D+00
48  4.7000000000000D-01 -7.8420517152743D-02  1.5469838588681D+00
49  4.8000000000000D-01 -2.6684992159814D-02  1.5288668428057D+00
50  4.9000000000000D-01  2.7957796900333D-02  1.5080361886318D+00
51  5.0000000000000D-01  8.5355657862287D-02  1.4845523496699D+00
52  5.1000000000000D-01  1.4533439120798D-01  1.4584865819540D+00
53  5.2000000000000D-01  2.0769837240740D-01  1.4299207838091D+00
54  5.3000000000000D-01  2.7223132365612D-01  1.3989472612817D+00
55  5.4000000000000D-01  3.3869727219255D-01  1.3656684199734D+00
56  5.5000000000000D-01  4.0684169064222D-01  1.3301963844544D+00
57  5.6000000000000D-01  4.7639281311612D-01  1.2926525470556D+00
58  5.7000000000000D-01  5.4706311910213D-01  1.2531670484500D+00
59  5.8000000000000D-01  6.1855097554486D-01  1.2118781930341D+00
60  5.9000000000000D-01  6.9054242593591D-01  1.1689318026978D+00
61  6.0000000000000D-01  7.6271311373534D-01  1.1244805131221D+00
62  6.1000000000000D-01  8.3473032604732D-01  1.0786830172679D+00
63  6.2000000000000D-01  9.0625514217875D-01  1.0317032612039D+00
64  6.3000000000000D-01  9.7694467054331D-01  9.8370959786635D-01
65  6.4000000000000D-01  1.0464543563441D+00  9.3487390474211D-01
66  6.5000000000000D-01  1.1144403415849D+00  8.8537067181824D-01
67  6.6000000000000D-01  1.1805618582385D+00  8.3537606643661D-01
68  6.7000000000000D-01  1.2444836348495D+00  7.8506698193348D-01
69  6.8000000000000D-01  1.3058782964675D+00  7.3462007712511D-01
70  6.9000000000000D-01  1.3644287376152D+00  6.8421081382109D-01
71  7.0000000000000D-01  1.4198304479863D+00  6.3401249960429D-01
72  7.1000000000000D-01  1.4717937707458D+00  5.8419534311010D-01
73  7.2000000000000D-01  1.5200460736791D+00  5.3492552896709D-01
74  7.3000000000000D-01  1.5643338139906D+00  4.8636431942645D-01
75  7.4000000000000D-01  1.6044244782993D+00  4.3866718950927D-01
76  7.5000000000000D-01  1.6401083802948D+00  3.9198300224276D-01
77  7.6000000000000D-01  1.6712002996211D+00  3.4645323023524D-01
78  7.7000000000000D-01  1.6975409468108D+00  3.0221122946474D-01
79  7.8000000000000D-01  1.7189982405047D+00  2.5938157072627D-01
80  7.9000000000000D-01  1.7354683847500D+00  2.1807943370262D-01
81  8.0000000000000D-01  1.7468767358475D+00  1.7841006809891D-01
82  8.1000000000000D-01  1.7531784500158D+00  1.4046832571490D-01
83  8.2000000000000D-01  1.7543589050252D+00  1.0433826672859D-01
84  8.3000000000000D-01  1.7504338909228D+00  7.0092842833207D-02
85  8.4000000000000D-01  1.7414495669904D+00  3.7793659215950D-02
86  8.5000000000000D-01  1.7274821841431D+00  7.4908166948344D-03
87  8.6000000000000D-01  1.7086375740528D+00 -2.0777165352251D-02
88  8.7000000000000D-01  1.6850504083607D+00 -4.6983345318990D-02
89  8.8000000000000D-01  1.6568832333945D+00 -7.1112275698919D-02
90  8.9000000000000D-01  1.6243252878173D+00 -9.3159840821785D-02
91  9.0000000000000D-01  1.5875911125747D+00 -1.1313301806740D-01
92  9.1000000000000D-01  1.5469189643671D+00 -1.3104956526250D-01
93  9.2000000000000D-01  1.5025690456254D+00 -1.4693763757250D-01
94  9.3000000000000D-01  1.4548215655941D+00 -1.6083533777217D-01
95  9.4000000000000D-01  1.4039746486162D+00 -1.7279020430933D-01
96  9.5000000000000D-01  1.3503421070370D+00 -1.8285864206065D-01
97  9.6000000000000D-01  1.2942510973062D+00 -1.9110530111145D-01
98  9.7000000000000D-01  1.2360396788225D+00 -1.9760240926905D-01
99  9.8000000000000D-01  1.1760542958421D+00 -2.0242906433782D-01
100  9.9000000000000D-01  1.1146472033386D+00 -2.0567049243963D-01
101  1.0000000000000D+00  1.0521738580536D+00 -2.0741727885090D-01
102  1.0100000000000D+00  9.8899029612429D-01 -2.0776457795683D-01
103  1.0200000000000D+00  9.2545051858020D-01 -2.0681130897264D-01
104  1.0300000000000D+00  8.6190390570347D-01 -2.0465934407032D-01
105  1.0400000000000D+00  7.9869268073207D-01 -2.0141269546935D-01
106  1.0500000000000D+00  7.3614944259755D-01 -1.9717670788621D-01
107  1.0600000000000D+00  6.7459478656196D-01 -1.9205726255133D-01
108  1.0700000000000D+00  6.1433503034837D-01 -1.8615999869209D-01
109  1.0800000000000D+00  5.5566006210717D-01 -1.7958955805865D-01
110  1.0900000000000D+00  4.9884132505836D-01 -1.7244885767526D-01
111  1.1000000000000D+00  4.4412995185060D-01 -1.6483839551198D-01
112  1.1100000000000D+00  3.9175506023918D-01 -1.5685559337861D-01
113  1.1200000000000D+00  3.4192221930045D-01 -1.4859418067713D-01
114  1.1300000000000D+00  2.9481209372841D-01 -1.4014362217495D-01
115  1.1400000000000D+00  2.5057927131879D-01 -1.3158859226292D-01
116  1.1500000000000D+00  2.0935127712839D-01 -1.2300849769653D-01
117  1.1600000000000D+00  1.7122777498055D-01 -1.1447704999922D-01
118  1.1700000000000D+00  1.3627995515150D-01 -1.0606188816453D-01
119  1.1800000000000D+00  1.0455010453687D-01 -9.7824251541545D-02
120  1.1900000000000D+00  7.6051354206731D-02 -8.9818702376259D-02
121  1.2000000000000D+00  5.0767596082083D-02 -8.2092896524711D-02
122  1.2100000000000D+00  2.8653559027828D-02 -7.4687400412016D-02
123  1.2200000000000D+00  9.6350281997953D-03 -6.7635550844130D-02
124  1.2300000000000D+00 -6.3907760737895D-03 -6.0963360492868D-02
125  1.2400000000000D+00 -1.9554806570946D-02 -5.4689438772574D-02
126  1.2500000000000D+00 -3.0015163562366D-02 -4.8825054072772D-02
127  1.2600000000000D+00 -3.7957682057411D-02 -4.3373880683338D-02
128  1.2700000000000D+00 -4.3593267959773D-02 -3.8332410501272D-02
129  1.2800000000000D+00 -4.7149877930158D-02 -3.3691438123363D-02
130  1.2900000000000D+00 -4.8863811139553D-02 -2.9437820578859D-02
131  1.3000000000000D+00 -4.8973063043163D-02 -2.5555884076049D-02
132  1.3100000000000D+00 -4.7716217454903D-02 -2.2027776274145D-02
133  1.3200000000000D+00 -4.5329533206637D-02 -1.8834170391832D-02
134  1.3300000000000D+00 -4.2044445486174D-02 -1.5954893030999D-02
135  1.3400000000000D+00 -3.8085071733626D-02 -1.3369553215627D-02
136  1.3500000000000D+00 -3.3665850223752D-02 -1.1058144707715D-02
137  1.3600000000000D+00 -2.8989283090164D-02 -9.0016249932100D-03
138  1.3700000000000D+00 -2.4243814627123D-02 -7.1824626974142D-03
139  1.3800000000000D+00 -1.9601865309574D-02 -5.5851474045506D-03
140  1.3900000000000D+00 -1.5218041521220D-02 -4.1966560799496D-03
141  1.4000000000000D+00 -1.1227524207538D-02 -3.0068738769017D-03
142  1.4100000000000D+00 -7.7470703341352D-03 -2.0094185293603D-03
143  1.4200000000000D+00 -4.8625000301536D-03 -1.1998027513619D-03
144  1.4300000000000D+00 -2.6281868233631D-03 -5.7704380339703D-04
145  1.4400000000000D+00 -1.1688782313065D-03 -1.5432476147568D-04
146  1.4500000000000D+00 -4.6545310286019D-04  6.3959113065850D-05
147  1.4600000000000D+00 -1.6649296950051D-04  9.3501872628686D-05
148  1.4700000000000D+00 -2.1998142886654D-05  2.0693880272707D-05
149  1.4800000000000D+00  1.3261287079391D-05 -1.5914759537818D-05
150  1.4900000000000D+00  8.4736185817731D-07 -1.2435657342874D-06
151  1.5000000000000D+00 -3.5681818656368D-06  3.2885444340574D-06
152  1.5100000000000D+00  2.5107081192863D-07 -9.1018621175915D-08
153  1.5200000000000D+00  7.0183511380711D-07 -2.5443046868277D-07
154  1.5300000000000D+00  0.0000000000000D+00  0.0000000000000D+00
155  1.5400000000000D+00  0.0000000000000D+00  0.0000000000000D+00
156  1.5500000000000D+00  0.0000000000000D+00  0.0000000000000D+00
157  1.5600000000000D+00  0.0000000000000D+00  0.0000000000000D+00
158  1.5700000000000D+00  0.0000000000000D+00  0.0000000000000D+00
159  1.5800000000000D+00  0.0000000000000D+00  0.0000000000000D+00
160  1.5900000000000D+00  0.0000000000000D+00  0.0000000000000D+00
161  1.6000000000000D+00  0.0000000000000D+00  0.0000000000000D+00
162  1.6100000000000D+00  0.0000000000000D+00  0.0000000000000D+00
163  1.6200000000000D+00  0.0000000000000D+00  0.0000000000000D+00
164  1.6300000000000D+00  0.0000000000000D+00  0.0000000000000D+00
165  1.6400000000000D+00  0.0000000000000D+00  0.0000000000000D+00
166  1.6500000000000D+00  0.0000000000000D+00  0.0000000000000D+00
167  1.6600000000000D+00  0.0000000000000D+00  0.0000000000000D+00
168  1.6700000000000D+00  0.0000000000000D+00  0.0000000000000D+00
169  1.6800000000000D+00  0.0000000000000D+00  0.0000000000000D+00
170  1.6900000000000D+00  0.0000000000000D+00  0.0000000000000D+00
171  1.7000000000000D+00  0.0000000000000D+00  0.0000000000000D+00
172  1.7100000000000D+00  0.0000000000000D+00  0.0000000000000D+00
173  1.7200000000000D+00  0.0000000000000D+00  0.0000000000000D+00
174  1.7300000000000D+00  0.0000000000000D+00  0.0000000000000D+00
175  1.7400000000000D+00  0.0000000000000D+00  0.0000000000000D+00
176  1.7500000000000D+00  0.0000000000000D+00  0.0000000000000D+00
177  1.7600000000000D+00  0.0000000000000D+00  0.0000000000000D+00
178  1.7700000000000D+00  0.0000000000000D+00  0.0000000000000D+00
179  1.7800000000000D+00  0.0000000000000D+00  0.0000000000000D+00
180  1.7900000000000D+00  0.0000000000000D+00  0.0000000000000D+00
181  1.8000000000000D+00  0.0000000000000D+00  0.0000000000000D+00
182  1.8100000000000D+00  0.0000000000000D+00  0.0000000000000D+00
183  1.8200000000000D+00  0.0000000000000D+00  0.0000000000000D+00
184  1.8300000000000D+00  0.0000000000000D+00  0.0000000000000D+00
185  1.8400000000000D+00  0.0000000000000D+00  0.0000000000000D+00
186  1.8500000000000D+00  0.0000000000000D+00  0.0000000000000D+00
187  1.8600000000000D+00  0.0000000000000D+00  0.0000000000000D+00
188  1.8700000000000D+00  0.0000000000000D+00  0.0000000000000D+00
189  1.8800000000000D+00  0.0000000000000D+00  0.0000000000000D+00
190  1.8900000000000D+00  0.0000000000000D+00  0.0000000000000D+00
191  1.9000000000000D+00  0.0000000000000D+00  0.0000000000000D+00
192  1.9100000000000D+00  0.0000000000000D+00  0.0000000000000D+00
193  1.9200000000000D+00  0.0000000000000D+00  0.0000000000000D+00
194  1.9300000000000D+00  0.0000000000000D+00  0.0000000000000D+00
195  1.9400000000000D+00  0.0000000000000D+00  0.0000000000000D+00
196  1.9500000000000D+00  0.0000000000000D+00  0.0000000000000D+00
197  1.9600000000000D+00  0.0000000000000D+00  0.0000000000000D+00
198  1.9700000000000D+00  0.0000000000000D+00  0.0000000000000D+00
199  1.9800000000000D+00  0.0000000000000D+00  0.0000000000000D+00
200  1.9900000000000D+00  0.0000000000000D+00  0.0000000000000D+00
201  2.0000000000000D+00  0.0000000000000D+00  0.0000000000000D+00
202  2.0100000000000D+00  0.0000000000000D+00  0.0000000000000D+00
203  2.0200000000000D+00  0.0000000000000D+00  0.0000000000000D+00
204  2.0300000000000D+00  0.0000000000000D+00  0.0000000000000D+00
205  2.0400000000000D+00  0.0000000000000D+00  0.0000000000000D+00
206  2.0500000000000D+00  0.0000000000000D+00  0.0000000000000D+00
207  2.0600000000000D+00  0.0000000000000D+00  0.0000000000000D+00
208  2.0700000000000D+00  0.0000000000000D+00  0.0000000000000D+00
209  2.0800000000000D+00  0.0000000000000D+00  0.0000000000000D+00
210  2.0900000000000D+00  0.0000000000000D+00  0.0000000000000D+00
211  2.1000000000000D+00  0.0000000000000D+00  0.0000000000000D+00
212  2.1100000000000D+00  0.0000000000000D+00  0.0000000000000D+00
213  2.1200000000000D+00  0.0000000000000D+00  0.0000000000000D+00
214  2.1300000000000D+00  0.0000000000000D+00  0.0000000000000D+00
215  2.1400000000000D+00  0.0000000000000D+00  0.0000000000000D+00
216  2.1500000000000D+00  0.0000000000000D+00  0.0000000000000D+00
217  2.1600000000000D+00  0.0000000000000D+00  0.0000000000000D+00
218  2.1700000000000D+00  0.0000000000000D+00  0.0000000000000D+00
219  2.1800000000000D+00  0.0000000000000D+00  0.0000000000000D+00
220  2.1900000000000D+00  0.0000000000000D+00  0.0000000000000D+00
221  2.2000000000000D+00  0.0000000000000D+00  0.0000000000000D+00
222  2.2100000000000D+00  0.0000000000000D+00  0.0000000000000D+00
223  2.2200000000000D+00  0.0000000000000D+00  0.0000000000000D+00
224  2.2300000000000D+00  0.0000000000000D+00  0.0000000000000D+00
225  2.2400000000000D+00  0.0000000000000D+00  0.0000000000000D+00
226  2.2500000000000D+00  0.0000000000000D+00  0.0000000000000D+00
227  2.2600000000000D+00  0.0000000000000D+00  0.0000000000000D+00
228  2.2700000000000D+00  0.0000000000000D+00  0.0000000000000D+00
229  2.2800000000000D+00  0.0000000000000D+00  0.0000000000000D+00
230  2.2900000000000D+00  0.0000000000000D+00  0.0000000000000D+00
231  2.3000000000000D+00  0.0000000000000D+00  0.0000000000000D+00
232  2.3100000000000D+00  0.0000000000000D+00  0.0000000000000D+00
233  2.3200000000000D+00  0.0000000000000D+00  0.0000000000000D+00
234  2.3300000000000D+00  0.0000000000000D+00  0.0000000000000D+00
235  2.3400000000000D+00  0.0000000000000D+00  0.0000000000000D+00
236  2.3500000000000D+00  0.0000000000000D+00  0.0000000000000D+00
237  2.3600000000000D+00  0.0000000000000D+00  0.0000000000000D+00
238  2.3700000000000D+00  0.0000000000000D+00  0.0000000000000D+00
239  2.3800000000000D+00  0.0000000000000D+00  0.0000000000000D+00
240  2.3900000000000D+00  0.0000000000000D+00  0.0000000000000D+00
241  2.4000000000000D+00  0.0000000000000D+00  0.0000000000000D+00
242  2.4100000000000D+00  0.0000000000000D+00  0.0000000000000D+00
243  2.4200000000000D+00  0.0000000000000D+00  0.0000000000000D+00
244  2.4300000000000D+00  0.0000000000000D+00  0.0000000000000D+00
245  2.4400000000000D+00  0.0000000000000D+00  0.0000000000000D+00
246  2.4500000000000D+00  0.0000000000000D+00  0.0000000000000D+00
247  2.4600000000000D+00  0.0000000000000D+00  0.0000000000000D+00
248  2.4700000000000D+00  0.0000000000000D+00  0.0000000000000D+00
249  2.4800000000000D+00  0.0000000000000D+00  0.0000000000000D+00
250  2.4900000000000D+00  0.0000000000000D+00  0.0000000000000D+00
251  2.5000000000000D+00  0.0000000000000D+00  0.0000000000000D+00
252  2.5100000000000D+00  0.0000000000000D+00  0.0000000000000D+00
253  2.5200000000000D+00  0.0000000000000D+00  0.0000000000000D+00
254  2.5300000000000D+00  0.0000000000000D+00  0.0000000000000D+00
255  2.5400000000000D+00  0.0000000000000D+00  0.0000000000000D+00
256  2.5500000000000D+00  0.0000000000000D+00  0.0000000000000D+00
257  2.5600000000000D+00  0.0000000000000D+00  0.0000000000000D+00
258  2.5700000000000D+00  0.0000000000000D+00  0.0000000000000D+00
259  2.5800000000000D+00  0.0000000000000D+00  0.0000000000000D+00
260  2.5900000000000D+00  0.0000000000000D+00  0.0000000000000D+00
261  2.6000000000000D+00  0.0000000000000D+00  0.0000000000000D+00
262  2.6100000000000D+00  0.0000000000000D+00  0.0000000000000D+00
263  2.6200000000000D+00  0.0000000000000D+00  0.0000000000000D+00
264  2.6300000000000D+00  0.0000000000000D+00  0.0000000000000D+00
265  2.6400000000000D+00  0.0000000000000D+00  0.0000000000000D+00
266  2.6500000000000D+00  0.0000000000000D+00  0.0000000000000D+00
267  2.6600000000000D+00  0.0000000000000D+00  0.0000000000000D+00
268  2.6700000000000D+00  0.0000000000000D+00  0.0000000000000D+00
269  2.6800000000000D+00  0.0000000000000D+00  0.0000000000000D+00
270  2.6900000000000D+00  0.0000000000000D+00  0.0000000000000D+00
271  2.7000000000000D+00  0.0000000000000D+00  0.0000000000000D+00
272  2.7100000000000D+00  0.0000000000000D+00  0.0000000000000D+00
273  2.7200000000000D+00  0.0000000000000D+00  0.0000000000000D+00
274  2.7300000000000D+00  0.0000000000000D+00  0.0000000000000D+00
275  2.7400000000000D+00  0.0000000000000D+00  0.0000000000000D+00
276  2.7500000000000D+00  0.0000000000000D+00  0.0000000000000D+00
277  2.7600000000000D+00  0.0000000000000D+00  0.0000000000000D+00
278  2.7700000000000D+00  0.0000000000000D+00  0.0000000000000D+00
279  2.7800000000000D+00  0.0000000000000D+00  0.0000000000000D+00
280  2.7900000000000D+00  0.0000000000000D+00  0.0000000000000D+00
281  2.8000000000000D+00  0.0000000000000D+00  0.0000000000000D+00
282  2.8100000000000D+00  0.0000000000000D+00  0.0000000000000D+00
283  2.8200000000000D+00  0.0000000000000D+00  0.0000000000000D+00
284  2.8300000000000D+00  0.0000000000000D+00  0.0000000000000D+00
285  2.8400000000000D+00  0.0000000000000D+00  0.0000000000000D+00
286  2.8500000000000D+00  0.0000000000000D+00  0.0000000000000D+00
287  2.8600000000000D+00  0.0000000000000D+00  0.0000000000000D+00
288  2.8700000000000D+00  0.0000000000000D+00  0.0000000000000D+00
289  2.8800000000000D+00  0.0000000000000D+00  0.0000000000000D+00
290  2.8900000000000D+00  0.0000000000000D+00  0.0000000000000D+00
291  2.9000000000000D+00  0.0000000000000D+00  0.0000000000000D+00
292  2.9100000000000D+00  0.0000000000000D+00  0.0000000000000D+00
293  2.9200000000000D+00  0.0000000000000D+00  0.0000000000000D+00
294  2.9300000000000D+00  0.0000000000000D+00  0.0000000000000D+00
295  2.9400000000000D+00  0.0000000000000D+00  0.0000000000000D+00
296  2.9500000000000D+00  0.0000000000000D+00  0.0000000000000D+00
297  2.9600000000000D+00  0.0000000000000D+00  0.0000000000000D+00
298  2.9700000000000D+00  0.0000000000000D+00  0.0000000000000D+00
299  2.9800000000000D+00  0.0000000000000D+00  0.0000000000000D+00
300  2.9900000000000D+00  0.0000000000000D+00  0.0000000000000D+00
301  3.0000000000000D+00  0.0000000000000D+00  0.0000000000000D+00
302  3.0100000000000D+00  0.0000000000000D+00  0.0000000000000D+00
303  3.0200000000000D+00  0.0000000000000D+00  0.0000000000000D+00
304  3.0300000000000D+00  0.0000000000000D+00  0.0000000000000D+00
305  3.0400000000000D+00  0.0000000000000D+00  0.0000000000000D+00
306  3.0500000000000D+00  0.0000000000000D+00  0.0000000000000D+00
307  3.0600000000000D+00  0.0000000000000D+00  0.0000000000000D+00
308  3.0700000000000D+00  0.0000000000000D+00  0.0000000000000D+00
309  3.0800000000000D+00  0.0000000000000D+00  0.0000000000000D+00
310  3.0900000000000D+00  0.0000000000000D+00  0.0000000000000D+00
311  3.1000000000000D+00  0.0000000000000D+00  0.0000000000000D+00
312  3.1100000000000D+00  0.0000000000000D+00  0.0000000000000D+00
313  3.1200000000000D+00  0.0000000000000D+00  0.0000000000000D+00
314  3.1300000000000D+00  0.0000000000000D+00  0.0000000000000D+00
315  3.1400000000000D+00  0.0000000000000D+00  0.0000000000000D+00
316  3.1500000000000D+00  0.0000000000000D+00  0.0000000000000D+00
317  3.1600000000000D+00  0.0000000000000D+00  0.0000000000000D+00
318  3.1700000000000D+00  0.0000000000000D+00  0.0000000000000D+00
319  3.1800000000000D+00  0.0000000000000D+00  0.0000000000000D+00
320  3.1900000000000D+00  0.0000000000000D+00  0.0000000000000D+00
321  3.2000000000000D+00  0.0000000000000D+00  0.0000000000000D+00
322  3.2100000000000D+00  0.0000000000000D+00  0.0000000000000D+00
323  3.2200000000000D+00  0.0000000000000D+00  0.0000000000000D+00
324  3.2300000000000D+00  0.0000000000000D+00  0.0000000000000D+00
325  3.2400000000000D+00  0.0000000000000D+00  0.0000000000000D+00
326  3.2500000000000D+00  0.0000000000000D+00  0.0000000000000D+00
327  3.2600000000000D+00  0.0000000000000D+00  0.0000000000000D+00
328  3.2700000000000D+00  0.0000000000000D+00  0.0000000000000D+00
329  3.2800000000000D+00  0.0000000000000D+00  0.0000000000000D+00
330  3.2900000000000D+00  0.0000000000000D+00  0.0000000000000D+00
331  3.3000000000000D+00  0.0000000000000D+00  0.0000000000000D+00
332  3.3100000000000D+00  0.0000000000000D+00  0.0000000000000D+00
333  3.3200000000000D+00  0.0000000000000D+00  0.0000000000000D+00
334  3.3300000000000D+00  0.0000000000000D+00  0.0000000000000D+00
335  3.3400000000000D+00  0.0000000000000D+00  0.0000000000000D+00
336  3.3500000000000D+00  0.0000000000000D+00  0.0000000000000D+00
337  3.3600000000000D+00  0.0000000000000D+00  0.0000000000000D+00
338  3.3700000000000D+00  0.0000000000000D+00  0.0000000000000D+00
339  3.3800000000000D+00  0.0000000000000D+00  0.0000000000000D+00
340  3.3900000000000D+00  0.0000000000000D+00  0.0000000000000D+00
341  3.4000000000000D+00  0.0000000000000D+00  0.0000000000000D+00
342  3.4100000000000D+00  0.0000000000000D+00  0.0000000000000D+00
343  3.4200000000000D+00  0.0000000000000D+00  0.0000000000000D+00
344  3.4300000000000D+00  0.0000000000000D+00  0.0000000000000D+00
345  3.4400000000000D+00  0.0000000000000D+00  0.0000000000000D+00
346  3.4500000000000D+00  0.0000000000000D+00  0.0000000000000D+00
347  3.4600000000000D+00  0.0000000000000D+00  0.0000000000000D+00
348  3.4700000000000D+00  0.0000000000000D+00  0.0000000000000D+00
349  3.4800000000000D+00  0.0000000000000D+00  0.0000000000000D+00
350  3.4900000000000D+00  0.0000000000000D+00  0.0000000000000D+00
351  3.5000000000000D+00  0.0000000000000D+00  0.0000000000000D+00
352  3.5100000000000D+00  0.0000000000000D+00  0.0000000000000D+00
353  3.5200000000000D+00  0.0000000000000D+00  0.0000000000000D+00
354  3.5300000000000D+00  0.0000000000000D+00  0.0000000000000D+00
355  3.5400000000000D+00  0.0000000000000D+00  0.0000000000000D+00
356  3.5500000000000D+00  0.0000000000000D+00  0.0000000000000D+00
357  3.5600000000000D+00  0.0000000000000D+00  0.0000000000000D+00
358  3.5700000000000D+00  0.0000000000000D+00  0.0000000000000D+00
359  3.5800000000000D+00  0.0000000000000D+00  0.0000000000000D+00
360  3.5900000000000D+00  0.0000000000000D+00  0.0000000000000D+00
361  3.6000000000000D+00  0.0000000000000D+00  0.0000000000000D+00
362  3.6100000000000D+00  0.0000000000000D+00  0.0000000000000D+00
363  3.6200000000000D+00  0.0000000000000D+00  0.0000000000000D+00
364  3.6300000000000D+00  0.0000000000000D+00  0.0000000000000D+00
365  3.6400000000000D+00  0.0000000000000D+00  0.0000000000000D+00
366  3.6500000000000D+00  0.0000000000000D+00  0.0000000000000D+00
367  3.6600000000000D+00  0.0000000000000D+00  0.0000000000000D+00
368  3.6700000000000D+00  0.0000000000000D+00  0.0000000000000D+00
369  3.6800000000000D+00  0.0000000000000D+00  0.0000000000000D+00
370  3.6900000000000D+00  0.0000000000000D+00  0.0000000000000D+00
371  3.7000000000000D+00  0.0000000000000D+00  0.0000000000000D+00
372  3.7100000000000D+00  0.0000000000000D+00  0.0000000000000D+00
373  3.7200000000000D+00  0.0000000000000D+00  0.0000000000000D+00
374  3.7300000000000D+00  0.0000000000000D+00  0.0000000000000D+00
375  3.7400000000000D+00  0.0000000000000D+00  0.0000000000000D+00
376  3.7500000000000D+00  0.0000000000000D+00  0.0000000000000D+00
377  3.7600000000000D+00  0.0000000000000D+00  0.0000000000000D+00
378  3.7700000000000D+00  0.0000000000000D+00  0.0000000000000D+00
379  3.7800000000000D+00  0.0000000000000D+00  0.0000000000000D+00
380  3.7900000000000D+00  0.0000000000000D+00  0.0000000000000D+00
381  3.8000000000000D+00  0.0000000000000D+00  0.0000000000000D+00
382  3.8100000000000D+00  0.0000000000000D+00  0.0000000000000D+00
383  3.8200000000000D+00  0.0000000000000D+00  0.0000000000000D+00
384  3.8300000000000D+00  0.0000000000000D+00  0.0000000000000D+00
385  3.8400000000000D+00  0.0000000000000D+00  0.0000000000000D+00
386  3.8500000000000D+00  0.0000000000000D+00  0.0000000000000D+00
387  3.8600000000000D+00  0.0000000000000D+00  0.0000000000000D+00
388  3.8700000000000D+00  0.0000000000000D+00  0.0000000000000D+00
389  3.8800000000000D+00  0.0000000000000D+00  0.0000000000000D+00
390  3.8900000000000D+00  0.0000000000000D+00  0.0000000000000D+00
391  3.9000000000000D+00  0.0000000000000D+00  0.0000000000000D+00
392  3.9100000000000D+00  0.0000000000000D+00  0.0000000000000D+00
393  3.9200000000000D+00  0.0000000000000D+00  0.0000000000000D+00
394  3.9300000000000D+00  0.0000000000000D+00  0.0000000000000D+00
395  3.9400000000000D+00  0.0000000000000D+00  0.0000000000000D+00
396  3.9500000000000D+00  0.0000000000000D+00  0.0000000000000D+00
397  3.9600000000000D+00  0.0000000000000D+00  0.0000000000000D+00
398  3.9700000000000D+00  0.0000000000000D+00  0.0000000000000D+00
399  3.9800000000000D+00  0.0000000000000D+00  0.0000000000000D+00
400  3.9900000000000D+00  0.0000000000000D+00  0.0000000000000D+00
401  4.0000000000000D+00  0.0000000000000D+00  0.0000000000000D+00
402  4.0100000000000D+00  0.0000000000000D+00  0.0000000000000D+00
403  4.0200000000000D+00  0.0000000000000D+00  0.0000000000000D+00
404  4.0300000000000D+00  0.0000000000000D+00  0.0000000000000D+00
405  4.0400000000000D+00  0.0000000000000D+00  0.0000000000000D+00
406  4.0500000000000D+00  0.0000000000000D+00  0.0000000000000D+00
407  4.0600000000000D+00  0.0000000000000D+00  0.0000000000000D+00
408  4.0700000000000D+00  0.0000000000000D+00  0.0000000000000D+00
409  4.0800000000000D+00  0.0000000000000D+00  0.0000000000000D+00
410  4.0900000000000D+00  0.0000000000000D+00  0.0000000000000D+00
411  4.1000000000000D+00  0.0000000000000D+00  0.0000000000000D+00
412  4.1100000000000D+00  0.0000000000000D+00  0.0000000000000D+00
413  4.1200000000000D+00  0.0000000000000D+00  0.0000000000000D+00
414  4.1300000000000D+00  0.0000000000000D+00  0.0000000000000D+00
415  4.1400000000000D+00  0.0000000000000D+00  0.0000000000000D+00
416  4.1500000000000D+00  0.0000000000000D+00  0.0000000000000D+00
417  4.1600000000000D+00  0.0000000000000D+00  0.0000000000000D+00
418  4.1700000000000D+00  0.0000000000000D+00  0.0000000000000D+00
419  4.1800000000000D+00  0.0000000000000D+00  0.0000000000000D+00
420  4.1900000000000D+00  0.0000000000000D+00  0.0000000000000D+00
421  4.2000000000000D+00  0.0000000000000D+00  0.0000000000000D+00
422  4.2100000000000D+00  0.0000000000000D+00  0.0000000000000D+00
423  4.2200000000000D+00  0.0000000000000D+00  0.0000000000000D+00
424  4.2300000000000D+00  0.0000000000000D+00  0.0000000000000D+00
425  4.2400000000000D+00  0.0000000000000D+00  0.0000000000000D+00
426  4.2500000000000D+00  0.0000000000000D+00  0.0000000000000D+00
427  4.2600000000000D+00  0.0000000000000D+00  0.0000000000000D+00
428  4.2700000000000D+00  0.0000000000000D+00  0.0000000000000D+00
429  4.2800000000000D+00  0.0000000000000D+00  0.0000000000000D+00
430  4.2900000000000D+00  0.0000000000000D+00  0.0000000000000D+00
431  4.3000000000000D+00  0.0000000000000D+00  0.0000000000000D+00
432  4.3100000000000D+00  0.0000000000000D+00  0.0000000000000D+00
433  4.3200000000000D+00  0.0000000000000D+00  0.0000000000000D+00
434  4.3300000000000D+00  0.0000000000000D+00  0.0000000000000D+00
435  4.3400000000000D+00  0.0000000000000D+00  0.0000000000000D+00
436  4.3500000000000D+00  0.0000000000000D+00  0.0000000000000D+00
437  4.3600000000000D+00  0.0000000000000D+00  0.0000000000000D+00
438  4.3700000000000D+00  0.0000000000000D+00  0.0000000000000D+00
439  4.3800000000000D+00  0.0000000000000D+00  0.0000000000000D+00
440  4.3900000000000D+00  0.0000000000000D+00  0.0000000000000D+00
441  4.4000000000000D+00  0.0000000000000D+00  0.0000000000000D+00
442  4.4100000000000D+00  0.0000000000000D+00  0.0000000000000D+00
443  4.4200000000000D+00  0.0000000000000D+00  0.0000000000000D+00