C     ONCVPSP  r_core=  1.31  1.46
6.0000      4.0000      140821    zatom,zion,pspd
8    11     1     4   601     0    pspcod,pspxc,lmax,lloc,mmax,r2well
6.00000000  0.50000000  0.00000000    rchrg fchrg qchrg
2     2     0     0     0    nproj
0                 extension_switch
0                         6.0788209950575D+00  3.7219755636957D-01
1  0.0000000000000D+00 -0.0000000000000D+00 -0.0000000000000D+00
2  1.0000000000000D-02 -6.8904206564130D-02 -7.9249453961002D-03
3  2.0000000000000D-02 -1.3768676254154D-01 -1.5936289426523D-02
4  3.0000000000000D-02 -2.0622613390662D-01 -2.4118559534665D-02
5  4.0000000000000D-02 -2.7440102148600D-01 -3.2552564045443D-02
6  5.0000000000000D-02 -3.4209048268297D-01 -4.1313590501739D-02
7  6.0000000000000D-02 -4.0917405828493D-01 -5.0469672743837D-02
8  7.0000000000000D-02 -4.7553190592518D-01 -6.0079948431518D-02
9  8.0000000000000D-02 -5.4104494166540D-01 -7.0193127691850D-02
10  9.0000000000000D-02 -6.0559499103773D-01 -8.0846092317152D-02
11  1.0000000000000D-01 -6.6906495073670D-01 -9.2062643450969D-02
12  1.1000000000000D-01 -7.3133896197706D-01 -1.0385241405109D-01
13  1.2000000000000D-01 -7.9230259634990D-01 -1.1620996050623D-01
14  1.3000000000000D-01 -8.5184305479784D-01 -1.2911404580199D-01
15  1.4000000000000D-01 -9.0984938011916D-01 -1.4252712441371D-01
16  1.5000000000000D-01 -9.6621268317006D-01 -1.5639503685639D-01
17  1.6000000000000D-01 -1.0208263827065D+00 -1.7064691941137D-01
18  1.7000000000000D-01 -1.0735864585365D+00 -1.8519533210476D-01
19  1.8000000000000D-01 -1.1243917174359D+00 -1.9993660547874D-01
20  1.9000000000000D-01 -1.1731440711566D+00 -2.1475140442162D-01
21  2.0000000000000D-01 -1.2197488250104D+00 -2.2950550421846D-01
22  2.1000000000000D-01 -1.2641149766055D+00 -2.4405077289106D-01
23  2.2000000000000D-01 -1.3061555221218D+00 -2.5822634921654D-01
24  2.3000000000000D-01 -1.3457877694527D+00 -2.7186000669508D-01
25  2.4000000000000D-01 -1.3829336552352D+00 -2.8476968732695D-01
26  2.5000000000000D-01 -1.4175200649515D+00 -2.9676519363985D-01
27  2.6000000000000D-01 -1.4494791520892D+00 -3.0765001559466D-01
28  2.7000000000000D-01 -1.4787486561710D+00 -3.1722328197710D-01
29  2.8000000000000D-01 -1.5052722140857D+00 -3.2528180271281D-01
30  2.9000000000000D-01 -1.5289996652392D+00 -3.3162219456060D-01
31  3.0000000000000D-01 -1.5498873459080D+00 -3.3604305931076D-01
32  3.1000000000000D-01 -1.5678983704762D+00 -3.3834719292004D-01
33  3.2000000000000D-01 -1.5830028958699D+00 -3.3834379541427D-01
34  3.3000000000000D-01 -1.5951783679820D+00 -3.3585066633778D-01
35  3.4000000000000D-01 -1.6044097508109D+00 -3.3069639046550D-01
36  3.5000000000000D-01 -1.6106897184470D+00 -3.2272236067582D-01
37  3.6000000000000D-01 -1.6140188420355D+00 -3.1178487492374D-01
38  3.7000000000000D-01 -1.6144057247038D+00 -2.9775694581235D-01
39  3.8000000000000D-01 -1.6118671189093D+00 -2.8053008000999D-01
40  3.9000000000000D-01 -1.6064280124844D+00 -2.6001593400665D-01
41  4.0000000000000D-01 -1.5981216682247D+00 -2.3614769421095D-01
42  4.1000000000000D-01 -1.5869896354123D+00 -2.0888134787138D-01
43  4.2000000000000D-01 -1.5730817209773D+00 -1.7819673313469D-01
44  4.3000000000000D-01 -1.5564559213660D+00 -1.4409837416561D-01
45  4.4000000000000D-01 -1.5371783143669D+00 -1.0661609145805D-01
46  4.5000000000000D-01 -1.5153229103879D+00 -6.5805379398258D-02
47  4.6000000000000D-01 -1.4909714629562D+00 -2.1747545135196D-02
48  4.7000000000000D-01 -1.4642132385926D+00  2.5450394863061D-02
49  4.8000000000000D-01 -1.4351447484412D+00  7.5656073594204D-02
50  4.9000000000000D-01 -1.4038694387363D+00  1.2871232336772D-01
51  5.0000000000000D-01 -1.3704973376443D+00  1.8443800005480D-01
52  5.1000000000000D-01 -1.3351446762676D+00  2.4262906858504D-01
53  5.2000000000000D-01 -1.2979334830549D+00  3.0305983891656D-01
54  5.3000000000000D-01 -1.2589910873594D+00  3.6548443371564D-01
55  5.4000000000000D-01 -1.2184496931358D+00  4.2963847281751D-01
56  5.5000000000000D-01 -1.1764458237999D+00  4.9524090778007D-01
57  5.6000000000000D-01 -1.1331197980453D+00  5.6199604877707D-01
58  5.7000000000000D-01 -1.0886151887017D+00  6.2959564823945D-01
59  5.8000000000000D-01 -1.0430782027679D+00  6.9772126919210D-01
60  5.9000000000000D-01 -9.9665712396631D-01  7.6604655219217D-01
61  6.0000000000000D-01 -9.4950170696439D-01  8.3423964664620D-01
62  6.1000000000000D-01 -9.0176247200657D-01  9.0196595864675D-01
63  6.2000000000000D-01 -8.5359030311355D-01  9.6889000253216D-01
64  6.3000000000000D-01 -8.0513550223263D-01  1.0346789216478D+00
65  6.4000000000000D-01 -7.5654741361588D-01  1.0990042242764D+00
66  6.5000000000000D-01 -7.0797386413457D-01  1.1615440233684D+00
67  6.6000000000000D-01 -6.5956021119191D-01  1.2219865995679D+00
68  6.7000000000000D-01 -6.1144907038541D-01  1.2800316187991D+00
69  6.8000000000000D-01 -5.6377969259580D-01  1.3353924672230D+00
70  6.9000000000000D-01 -5.1668735913903D-01  1.3877984764659D+00
71  7.0000000000000D-01 -4.7030272023967D-01  1.4369972801043D+00
72  7.1000000000000D-01 -4.2475149628237D-01  1.4827558253658D+00
73  7.2000000000000D-01 -3.8015392808484D-01  1.5248621820311D+00
74  7.3000000000000D-01 -3.3662434650373D-01  1.5631268537659D+00
75  7.4000000000000D-01 -2.9427078599425D-01  1.5973838563828D+00
76  7.5000000000000D-01 -2.5319441210743D-01  1.6274923158690D+00
77  7.6000000000000D-01 -2.1348942084575D-01  1.6533363904576D+00
78  7.7000000000000D-01 -1.7524265934038D-01  1.6748260456824D+00
79  7.8000000000000D-01 -1.3853336734045D-01  1.6918973313082D+00
80  7.9000000000000D-01 -1.0343296019425D-01  1.7045124341168D+00
81  8.0000000000000D-01 -7.0004853822768D-02  1.7126595103114D+00
82  8.1000000000000D-01 -3.8304331868553D-02  1.7163523036807D+00
83  8.2000000000000D-01 -8.3784548972730D-03  1.7156295578955D+00
84  8.3000000000000D-01  1.9733988759943D-02  1.7105542333953D+00
85  8.4000000000000D-01  4.6002491207833D-02  1.7012125412284D+00
86  8.5000000000000D-01  7.0404793170434D-02  1.6877128079354D+00
87  8.6000000000000D-01  9.2926813330934D-02  1.6701841871096D+00
88  8.7000000000000D-01  1.1356254022009D-01  1.6487752346172D+00
89  8.8000000000000D-01  1.3231388824715D-01  1.6236523656326D+00
90  8.9000000000000D-01  1.4919051965348D-01  1.5949982126258D+00
91  9.0000000000000D-01  1.6420963434282D-01  1.5630099042322D+00
92  9.1000000000000D-01  1.7739572970330D-01  1.5278972855404D+00
93  9.2000000000000D-01  1.8878033268701D-01  1.4898811007180D+00
94  9.3000000000000D-01  1.9840170655258D-01  1.4491911590568D+00
95  9.4000000000000D-01  2.0630453480386D-01  1.4060645054071D+00
96  9.5000000000000D-01  2.1253958497144D-01  1.3607436155561D+00
97  9.6000000000000D-01  2.1716335410847D-01  1.3134746769181D+00
98  9.7000000000000D-01  2.2023771453180D-01  1.2645061898092D+00
99  9.8000000000000D-01  2.2182953234736D-01  1.2140863057017D+00
100  9.9000000000000D-01  2.2201023542818D-01  1.1624622234731D+00
101  1.0000000000000D+00  2.2085543193029D-01  1.1098784942505D+00
102  1.0100000000000D+00  2.1844450409966D-01  1.0565757212657D+00
103  1.0200000000000D+00  2.1486020032060D-01  1.0027893932672D+00
104  1.0300000000000D+00  2.1018832853930D-01  9.4874949584486D-01
105  1.0400000000000D+00  2.0451715060315D-01  8.9467807666521D-01
106  1.0500000000000D+00  1.9793697202598D-01  8.4078898156269D-01
107  1.0600000000000D+00  1.9053986113430D-01  7.8728797429552D-01
108  1.0700000000000D+00  1.8241920653767D-01  7.3437193085375D-01
109  1.0800000000000D+00  1.7366957227589D-01  6.8222940798881D-01
110  1.0900000000000D+00  1.6438576190998D-01  6.3103811546023D-01
111  1.1000000000000D+00  1.5466257201724D-01  5.8096593561875D-01
112  1.1100000000000D+00  1.4459469428274D-01  5.3217189491538D-01
113  1.1200000000000D+00  1.3427647338957D-01  4.8480637678133D-01
114  1.1300000000000D+00  1.2380129975487D-01  4.3901041630718D-01
115  1.1400000000000D+00  1.1326054781470D-01  3.9491484698435D-01
116  1.1500000000000D+00  1.0274430830849D-01  3.5264335275419D-01
117  1.1600000000000D+00  9.2341229086986D-02  3.1231266050244D-01
118  1.1700000000000D+00  8.2137122194547D-02  2.7403101992586D-01
119  1.1800000000000D+00  7.2214639578010D-02  2.3789942031430D-01
120  1.1900000000000D+00  6.2653982925456D-02  2.0401343711313D-01
121  1.2000000000000D+00  5.3533274537802D-02  1.7246381769439D-01
122  1.2100000000000D+00  4.4924711665714D-02  1.4333354825291D-01
123  1.2200000000000D+00  3.6897704740987D-02  1.1670200393385D-01
124  1.2300000000000D+00  2.9518806483692D-02  9.2644735770982D-02
125  1.2400000000000D+00  2.2848258261039D-02  7.1231413889154D-02
126  1.2500000000000D+00  1.6941789274591D-02  5.2527696622306D-02
127  1.2600000000000D+00  1.1851922748924D-02  3.6596031033816D-02
128  1.2700000000000D+00  7.6242033753966D-03  2.3493311525488D-02
129  1.2800000000000D+00  4.2983591872584D-03  1.3271327722717D-02
130  1.2900000000000D+00  1.9107483951652D-03  5.9784391589430D-03
131  1.3000000000000D+00  5.5862898780834D-04  1.8726404018524D-03
132  1.3100000000000D+00  3.3413315441703D-05  2.6321353945372D-04
133  1.3200000000000D+00 -4.3906298923464D-05 -8.1704128164005D-05
134  1.3300000000000D+00 -3.3563644670233D-06 -2.0808398105589D-05
135  1.3400000000000D+00 -5.2446682148432D-07 -3.2515284087420D-06
136  1.3500000000000D+00  0.0000000000000D+00  0.0000000000000D+00
137  1.3600000000000D+00  0.0000000000000D+00  0.0000000000000D+00
138  1.3700000000000D+00  0.0000000000000D+00  0.0000000000000D+00
139  1.3800000000000D+00  0.0000000000000D+00  0.0000000000000D+00
140  1.3900000000000D+00  0.0000000000000D+00  0.0000000000000D+00
141  1.4000000000000D+00  0.0000000000000D+00  0.0000000000000D+00
142  1.4100000000000D+00  0.0000000000000D+00  0.0000000000000D+00
143  1.4200000000000D+00  0.0000000000000D+00  0.0000000000000D+00
144  1.4300000000000D+00  0.0000000000000D+00  0.0000000000000D+00
145  1.4400000000000D+00  0.0000000000000D+00  0.0000000000000D+00
146  1.4500000000000D+00  0.0000000000000D+00  0.0000000000000D+00
147  1.4600000000000D+00  0.0000000000000D+00  0.0000000000000D+00
148  1.4700000000000D+00  0.0000000000000D+00  0.0000000000000D+00
149  1.4800000000000D+00  0.0000000000000D+00  0.0000000000000D+00
150  1.4900000000000D+00  0.0000000000000D+00  0.0000000000000D+00
151  1.5000000000000D+00  0.0000000000000D+00  0.0000000000000D+00
152  1.5100000000000D+00  0.0000000000000D+00  0.0000000000000D+00
153  1.5200000000000D+00  0.0000000000000D+00  0.0000000000000D+00
154  1.5300000000000D+00  0.0000000000000D+00  0.0000000000000D+00
155  1.5400000000000D+00  0.0000000000000D+00  0.0000000000000D+00
156  1.5500000000000D+00  0.0000000000000D+00  0.0000000000000D+00
157  1.5600000000000D+00  0.0000000000000D+00  0.0000000000000D+00
158  1.5700000000000D+00  0.0000000000000D+00  0.0000000000000D+00
159  1.5800000000000D+00  0.0000000000000D+00  0.0000000000000D+00
160  1.5900000000000D+00  0.0000000000000D+00  0.0000000000000D+00
161  1.6000000000000D+00  0.0000000000000D+00  0.0000000000000D+00
162  1.6100000000000D+00  0.0000000000000D+00  0.0000000000000D+00
163  1.6200000000000D+00  0.0000000000000D+00  0.0000000000000D+00
164  1.6300000000000D+00  0.0000000000000D+00  0.0000000000000D+00
165  1.6400000000000D+00  0.0000000000000D+00  0.0000000000000D+00
166  1.6500000000000D+00  0.0000000000000D+00  0.0000000000000D+00
167  1.6600000000000D+00  0.0000000000000D+00  0.0000000000000D+00
168  1.6700000000000D+00  0.0000000000000D+00  0.0000000000000D+00
169  1.6800000000000D+00  0.0000000000000D+00  0.0000000000000D+00
170  1.6900000000000D+00  0.0000000000000D+00  0.0000000000000D+00
171  1.7000000000000D+00  0.0000000000000D+00  0.0000000000000D+00
172  1.7100000000000D+00  0.0000000000000D+00  0.0000000000000D+00
173  1.7200000000000D+00  0.0000000000000D+00  0.0000000000000D+00
174  1.7300000000000D+00  0.0000000000000D+00  0.0000000000000D+00
175  1.7400000000000D+00  0.0000000000000D+00  0.0000000000000D+00
176  1.7500000000000D+00  0.0000000000000D+00  0.0000000000000D+00
177  1.7600000000000D+00  0.0000000000000D+00  0.0000000000000D+00
178  1.7700000000000D+00  0.0000000000000D+00  0.0000000000000D+00
179  1.7800000000000D+00  0.0000000000000D+00  0.0000000000000D+00
180  1.7900000000000D+00  0.0000000000000D+00  0.0000000000000D+00
181  1.8000000000000D+00  0.0000000000000D+00  0.0000000000000D+00
182  1.8100000000000D+00  0.0000000000000D+00  0.0000000000000D+00
183  1.8200000000000D+00  0.0000000000000D+00  0.0000000000000D+00
184  1.8300000000000D+00  0.0000000000000D+00  0.0000000000000D+00
185  1.8400000000000D+00  0.0000000000000D+00  0.0000000000000D+00
186  1.8500000000000D+00  0.0000000000000D+00  0.0000000000000D+00
187  1.8600000000000D+00  0.0000000000000D+00  0.0000000000000D+00
188  1.8700000000000D+00  0.0000000000000D+00  0.0000000000000D+00
189  1.8800000000000D+00  0.0000000000000D+00  0.0000000000000D+00
190  1.8900000000000D+00  0.0000000000000D+00  0.0000000000000D+00
191  1.9000000000000D+00  0.0000000000000D+00  0.0000000000000D+00
192  1.9100000000000D+00  0.0000000000000D+00  0.0000000000000D+00
193  1.9200000000000D+00  0.0000000000000D+00  0.0000000000000D+00
194  1.9300000000000D+00  0.0000000000000D+00  0.0000000000000D+00
195  1.9400000000000D+00  0.0000000000000D+00  0.0000000000000D+00
196  1.9500000000000D+00  0.0000000000000D+00  0.0000000000000D+00
197  1.9600000000000D+00  0.0000000000000D+00  0.0000000000000D+00
198  1.9700000000000D+00  0.0000000000000D+00  0.0000000000000D+00
199  1.9800000000000D+00  0.0000000000000D+00  0.0000000000000D+00
200  1.9900000000000D+00  0.0000000000000D+00  0.0000000000000D+00
201  2.0000000000000D+00  0.0000000000000D+00  0.0000000000000D+00
202  2.0100000000000D+00  0.0000000000000D+00  0.0000000000000D+00
203  2.0200000000000D+00  0.0000000000000D+00  0.0000000000000D+00
204  2.0300000000000D+00  0.0000000000000D+00  0.0000000000000D+00
205  2.0400000000000D+00  0.0000000000000D+00  0.0000000000000D+00
206  2.0500000000000D+00  0.0000000000000D+00  0.0000000000000D+00
207  2.0600000000000D+00  0.0000000000000D+00  0.0000000000000D+00
208  2.0700000000000D+00  0.0000000000000D+00  0.0000000000000D+00
209  2.0800000000000D+00  0.0000000000000D+00  0.0000000000000D+00
210  2.0900000000000D+00  0.0000000000000D+00  0.0000000000000D+00
211  2.1000000000000D+00  0.0000000000000D+00  0.0000000000000D+00
212  2.1100000000000D+00  0.0000000000000D+00  0.0000000000000D+00
213  2.1200000000000D+00  0.0000000000000D+00  0.0000000000000D+00
214  2.1300000000000D+00  0.0000000000000D+00  0.0000000000000D+00
215  2.1400000000000D+00  0.0000000000000D+00  0.0000000000000D+00
216  2.1500000000000D+00  0.0000000000000D+00  0.0000000000000D+00
217  2.1600000000000D+00  0.0000000000000D+00  0.0000000000000D+00
218  2.1700000000000D+00  0.0000000000000D+00  0.0000000000000D+00
219  2.1800000000000D+00  0.0000000000000D+00  0.0000000000000D+00
220  2.1900000000000D+00  0.0000000000000D+00  0.0000000000000D+00
221  2.2000000000000D+00  0.0000000000000D+00  0.0000000000000D+00
222  2.2100000000000D+00  0.0000000000000D+00  0.0000000000000D+00
223  2.2200000000000D+00  0.0000000000000D+00  0.0000000000000D+00
224  2.2300000000000D+00  0.0000000000000D+00  0.0000000000000D+00
225  2.2400000000000D+00  0.0000000000000D+00  0.0000000000000D+00
226  2.2500000000000D+00  0.0000000000000D+00  0.0000000000000D+00
227  2.2600000000000D+00  0.0000000000000D+00  0.0000000000000D+00
228  2.2700000000000D+00  0.0000000000000D+00  0.0000000000000D+00
229  2.2800000000000D+00  0.0000000000000D+00  0.0000000000000D+00
230  2.2900000000000D+00  0.0000000000000D+00  0.0000000000000D+00
231  2.3000000000000D+00  0.0000000000000D+00  0.0000000000000D+00
232  2.3100000000000D+00  0.0000000000000D+00  0.0000000000000D+00
233  2.3200000000000D+00  0.0000000000000D+00  0.0000000000000D+00
234  2.3300000000000D+00  0.0000000000000D+00  0.0000000000000D+00
235  2.3400000000000D+00  0.0000000000000D+00  0.0000000000000D+00
236  2.3500000000000D+00  0.0000000000000D+00  0.0000000000000D+00
237  2.3600000000000D+00  0.0000000000000D+00  0.0000000000000D+00
238  2.3700000000000D+00  0.0000000000000D+00  0.0000000000000D+00
239  2.3800000000000D+00  0.0000000000000D+00  0.0000000000000D+00
240  2.3900000000000D+00  0.0000000000000D+00  0.0000000000000D+00
241  2.4000000000000D+00  0.0000000000000D+00  0.0000000000000D+00
242  2.4100000000000D+00  0.0000000000000D+00  0.0000000000000D+00
243  2.4200000000000D+00  0.0000000000000D+00  0.0000000000000D+00
244  2.4300000000000D+00  0.0000000000000D+00  0.0000000000000D+00
245  2.4400000000000D+00  0.0000000000000D+00  0.0000000000000D+00
246  2.4500000000000D+00  0.0000000000000D+00  0.0000000000000D+00
247  2.4600000000000D+00  0.0000000000000D+00  0.0000000000000D+00
248  2.4700000000000D+00  0.0000000000000D+00  0.0000000000000D+00
249  2.4800000000000D+00  0.0000000000000D+00  0.0000000000000D+00
250  2.4900000000000D+00  0.0000000000000D+00  0.0000000000000D+00
251  2.5000000000000D+00  0.0000000000000D+00  0.0000000000000D+00
252  2.5100000000000D+00  0.0000000000000D+00  0.0000000000000D+00
253  2.5200000000000D+00  0.0000000000000D+00  0.0000000000000D+00
254  2.5300000000000D+00  0.0000000000000D+00  0.0000000000000D+00
255  2.5400000000000D+00  0.0000000000000D+00  0.0000000000000D+00
256  2.5500000000000D+00  0.0000000000000D+00  0.0000000000000D+00
257  2.5600000000000D+00  0.0000000000000D+00  0.0000000000000D+00
258  2.5700000000000D+00  0.0000000000000D+00  0.0000000000000D+00
259  2.5800000000000D+00  0.0000000000000D+00  0.0000000000000D+00
260  2.5900000000000D+00  0.0000000000000D+00  0.0000000000000D+00
261  2.6000000000000D+00  0.0000000000000D+00  0.0000000000000D+00
262  2.6100000000000D+00  0.0000000000000D+00  0.0000000000000D+00
263  2.6200000000000D+00  0.0000000000000D+00  0.0000000000000D+00
264  2.6300000000000D+00  0.0000000000000D+00  0.0000000000000D+00
265  2.6400000000000D+00  0.0000000000000D+00  0.0000000000000D+00
266  2.6500000000000D+00  0.0000000000000D+00  0.0000000000000D+00
267  2.6600000000000D+00  0.0000000000000D+00  0.0000000000000D+00
268  2.6700000000000D+00  0.0000000000000D+00  0.0000000000000D+00
269  2.6800000000000D+00  0.0000000000000D+00  0.0000000000000D+00
270  2.6900000000000D+00  0.0000000000000D+00  0.0000000000000D+00
271  2.7000000000000D+00  0.0000000000000D+00  0.0000000000000D+00
272  2.7100000000000D+00  0.0000000000000D+00  0.0000000000000D+00
273  2.7200000000000D+00  0.0000000000000D+00  0.0000000000000D+00
274  2.7300000000000D+00  0.0000000000000D+00  0.0000000000000D+00
275  2.7400000000000D+00  0.0000000000000D+00  0.0000000000000D+00
276  2.7500000000000D+00  0.0000000000000D+00  0.0000000000000D+00
277  2.7600000000000D+00  0.0000000000000D+00  0.0000000000000D+00
278  2.7700000000000D+00  0.0000000000000D+00  0.0000000000000D+00
279  2.7800000000000D+00  0.0000000000000D+00  0.0000000000000D+00
280  2.7900000000000D+00  0.0000000000000D+00  0.0000000000000D+00
281  2.8000000000000D+00  0.0000000000000D+00  0.0000000000000D+00
282  2.8100000000000D+00  0.0000000000000D+00  0.0000000000000D+00
283  2.8200000000000D+00  0.0000000000000D+00  0.0000000000000D+00
284  2.8300000000000D+00  0.0000000000000D+00  0.0000000000000D+00
285  2.8400000000000D+00  0.0000000000000D+00  0.0000000000000D+00
286  2.8500000000000D+00  0.0000000000000D+00  0.0000000000000D+00
287  2.8600000000000D+00  0.0000000000000D+00  0.0000000000000D+00
288  2.8700000000000D+00  0.0000000000000D+00  0.0000000000000D+00
289  2.8800000000000D+00  0.0000000000000D+00  0.0000000000000D+00
290  2.8900000000000D+00  0.0000000000000D+00  0.0000000000000D+00
291  2.9000000000000D+00  0.0000000000000D+00  0.0000000000000D+00
292  2.9100000000000D+00  0.0000000000000D+00  0.0000000000000D+00
293  2.9200000000000D+00  0.0000000000000D+00  0.0000000000000D+00
294  2.9300000000000D+00  0.0000000000000D+00  0.0000000000000D+00
295  2.9400000000000D+00  0.0000000000000D+00  0.0000000000000D+00
296  2.9500000000000D+00  0.0000000000000D+00  0.0000000000000D+00
297  2.9600000000000D+00  0.0000000000000D+00  0.0000000000000D+00
298  2.9700000000000D+00  0.0000000000000D+00  0.0000000000000D+00
299  2.9800000000000D+00  0.0000000000000D+00  0.0000000000000D+00
300  2.9900000000000D+00  0.0000000000000D+00  0.0000000000000D+00
301  3.0000000000000D+00  0.0000000000000D+00  0.0000000000000D+00
302  3.0100000000000D+00  0.0000000000000D+00  0.0000000000000D+00
303  3.0200000000000D+00  0.0000000000000D+00  0.0000000000000D+00
304  3.0300000000000D+00  0.0000000000000D+00  0.0000000000000D+00
305  3.0400000000000D+00  0.0000000000000D+00  0.0000000000000D+00
306  3.0500000000000D+00  0.0000000000000D+00  0.0000000000000D+00
307  3.0600000000000D+00  0.0000000000000D+00  0.0000000000000D+00
308  3.0700000000000D+00  0.0000000000000D+00  0.0000000000000D+00
309  3.0800000000000D+00  0.0000000000000D+00  0.0000000000000D+00
310  3.0900000000000D+00  0.0000000000000D+00  0.0000000000000D+00
311  3.1000000000000D+00  0.0000000000000D+00  0.0000000000000D+00
312  3.1100000000000D+00  0.0000000000000D+00  0.0000000000000D+00
313  3.1200000000000D+00  0.0000000000000D+00  0.0000000000000D+00
314  3.1300000000000D+00  0.0000000000000D+00  0.0000000000000D+00
315  3.1400000000000D+00  0.0000000000000D+00  0.0000000000000D+00
316  3.1500000000000D+00  0.0000000000000D+00  0.0000000000000D+00
317  3.1600000000000D+00  0.0000000000000D+00  0.0000000000000D+00
318  3.1700000000000D+00  0.0000000000000D+00  0.0000000000000D+00
319  3.1800000000000D+00  0.0000000000000D+00  0.0000000000000D+00
320  3.1900000000000D+00  0.0000000000000D+00  0.0000000000000D+00
321  3.2000000000000D+00  0.0000000000000D+00  0.0000000000000D+00
322  3.2100000000000D+00  0.0000000000000D+00  0.0000000000000D+00
323  3.2200000000000D+00  0.0000000000000D+00  0.0000000000000D+00
324  3.2300000000000D+00  0.0000000000000D+00  0.0000000000000D+00
325  3.2400000000000D+00  0.0000000000000D+00  0.0000000000000D+00
326  3.2500000000000D+00  0.0000000000000D+00  0.0000000000000D+00
327  3.2600000000000D+00  0.0000000000000D+00  0.0000000000000D+00
328  3.2700000000000D+00  0.0000000000000D+00  0.0000000000000D+00
329  3.2800000000000D+00  0.0000000000000D+00  0.0000000000000D+00
330  3.2900000000000D+00  0.0000000000000D+00  0.0000000000000D+00
331  3.3000000000000D+00  0.0000000000000D+00  0.0000000000000D+00
332  3.3100000000000D+00  0.0000000000000D+00  0.0000000000000D+00
333  3.3200000000000D+00  0.0000000000000D+00  0.0000000000000D+00
334  3.3300000000000D+00  0.0000000000000D+00  0.0000000000000D+00
335  3.3400000000000D+00  0.0000000000000D+00  0.0000000000000D+00
336  3.3500000000000D+00  0.0000000000000D+00  0.0000000000000D+00
337  3.3600000000000D+00  0.0000000000000D+00  0.0000000000000D+00
338  3.3700000000000D+00  0.0000000000000D+00  0.0000000000000D+00
339  3.3800000000000D+00  0.0000000000000D+00  0.0000000000000D+00
340  3.3900000000000D+00  0.0000000000000D+00  0.0000000000000D+00
341  3.4000000000000D+00  0.0000000000000D+00  0.0000000000000D+00
342  3.4100000000000D+00  0.0000000000000D+00  0.0000000000000D+00
343  3.4200000000000D+00  0.0000000000000D+00  0.0000000000000D+00
344  3.4300000000000D+00  0.0000000000000D+00  0.0000000000000D+00
345  3.4400000000000D+00  0.0000000000000D+00  0.0000000000000D+00
346  3.4500000000000D+00  0.0000000000000D+00  0.0000000000000D+00
347  3.4600000000000D+00  0.0000000000000D+00  0.0000000000000D+00
348  3.4700000000000D+00  0.0000000000000D+00  0.0000000000000D+00
349  3.4800000000000D+00  0.0000000000000D+00  0.0000000000000D+00
350  3.4900000000000D+00  0.0000000000000D+00  0.0000000000000D+00
351  3.5000000000000D+00  0.0000000000000D+00  0.0000000000000D+00
352  3.5100000000000D+00  0.0000000000000D+00  0.0000000000000D+00
353  3.5200000000000D+00  0.0000000000000D+00  0.0000000000000D+00
354  3.5300000000000D+00  0.0000000000000D+00  0.0000000000000D+00
355  3.5400000000000D+00  0.0000000000000D+00  0.0000000000000D+00
356  3.5500000000000D+00  0.0000000000000D+00  0.0000000000000D+00
357  3.5600000000000D+00  0.0000000000000D+00  0.0000000000000D+00
358  3.5700000000000D+00  0.0000000000000D+00  0.0000000000000D+00
359  3.5800000000000D+00  0.0000000000000D+00  0.0000000000000D+00
360  3.5900000000000D+00  0.0000000000000D+00  0.0000000000000D+00
361  3.6000000000000D+00  0.0000000000000D+00  0.0000000000000D+00
362  3.6100000000000D+00  0.0000000000000D+00  0.0000000000000D+00
363  3.6200000000000D+00  0.0000000000000D+00  0.0000000000000D+00
364  3.6300000000000D+00  0.0000000000000D+00  0.0000000000000D+00
365  3.6400000000000D+00  0.0000000000000D+00  0.0000000000000D+00
366  3.6500000000000D+00  0.0000000000000D+00  0.0000000000000D+00
367  3.6600000000000D+00  0.0000000000000D+00  0.0000000000000D+00
368  3.6700000000000D+00  0.0000000000000D+00  0.0000000000000D+00
369  3.6800000000000D+00  0.0000000000000D+00  0.0000000000000D+00
370  3.6900000000000D+00  0.0000000000000D+00  0.0000000000000D+00
371  3.7000000000000D+00  0.0000000000000D+00  0.0000000000000D+00
372  3.7100000000000D+00  0.0000000000000D+00  0.0000000000000D+00
373  3.7200000000000D+00  0.0000000000000D+00  0.0000000000000D+00
374  3.7300000000000D+00  0.0000000000000D+00  0.0000000000000D+00
375  3.7400000000000D+00  0.0000000000000D+00  0.0000000000000D+00
376  3.7500000000000D+00  0.0000000000000D+00  0.0000000000000D+00
377  3.7600000000000D+00  0.0000000000000D+00  0.0000000000000D+00
378  3.7700000000000D+00  0.0000000000000D+00  0.0000000000000D+00
379  3.7800000000000D+00  0.0000000000000D+00  0.0000000000000D+00
380  3.7900000000000D+00  0.0000000000000D+00  0.0000000000000D+00
381  3.8000000000000D+00  0.0000000000000D+00  0.0000000000000D+00
382  3.8100000000000D+00  0.0000000000000D+00  0.0000000000000D+00
383  3.8200000000000D+00  0.0000000000000D+00  0.0000000000000D+00
384  3.8300000000000D+00  0.0000000000000D+00  0.0000000000000D+00
385  3.8400000000000D+00  0.0000000000000D+00  0.0000000000000D+00
386  3.8500000000000D+00  0.0000000000000D+00  0.0000000000000D+00
387  3.8600000000000D+00  0.0000000000000D+00  0.0000000000000D+00
388  3.8700000000000D+00  0.0000000000000D+00  0.0000000000000D+00
389  3.8800000000000D+00  0.0000000000000D+00  0.0000000000000D+00
390  3.8900000000000D+00  0.0000000000000D+00  0.0000000000000D+00
391  3.9000000000000D+00  0.0000000000000D+00  0.0000000000000D+00
392  3.9100000000000D+00  0.0000000000000D+00  0.0000000000000D+00
393  3.9200000000000D+00  0.0000000000000D+00  0.0000000000000D+00
394  3.9300000000000D+00  0.0000000000000D+00  0.0000000000000D+00
395  3.9400000000000D+00  0.0000000000000D+00  0.0000000000000D+00
396  3.9500000000000D+00  0.0000000000000D+00  0.0000000000000D+00
397  3.9600000000000D+00  0.0000000000000D+00  0.0000000000000D+00
398  3.9700000000000D+00  0.0000000000000D+00  0.0000000000000D+00
399  3.9800000000000D+00  0.0000000000000D+00  0.0000000000000D+00
400  3.9900000000000D+00  0.0000000000000D+00  0.0000000000000D+00
401  4.0000000000000D+00  0.0000000000000D+00  0.0000000000000D+00
402  4.0100000000000D+00  0.0000000000000D+00  0.0000000000000D+00
403  4.0200000000000D+00  0.0000000000000D+00  0.0000000000000D+00
404  4.0300000000000D+00  0.0000000000000D+00  0.0000000000000D+00
405  4.0400000000000D+00  0.0000000000000D+00  0.0000000000000D+00
406  4.0500000000000D+00  0.0000000000000D+00  0.0000000000000D+00
407  4.0600000000000D+00  0.0000000000000D+00  0.0000000000000D+00
408  4.0700000000000D+00  0.0000000000000D+00  0.0000000000000D+00
409  4.0800000000000D+00  0.0000000000000D+00  0.0000000000000D+00
410  4.0900000000000D+00  0.0000000000000D+00  0.0000000000000D+00
411  4.1000000000000D+00  0.0000000000000D+00  0.0000000000000D+00
412  4.1100000000000D+00  0.0000000000000D+00  0.0000000000000D+00
413  4.1200000000000D+00  0.0000000000000D+00  0.0000000000000D+00
414  4.1300000000000D+00  0.0000000000000D+00  0.0000000000000D+00
415  4.1400000000000D+00  0.0000000000000D+00  0.0000000000000D+00
416  4.1500000000000D+00  0.0000000000000D+00  0.0000000000000D+00
417  4.1600000000000D+00  0.0000000000000D+00  0.0000000000000D+00
418  4.1700000000000D+00  0.0000000000000D+00  0.0000000000000D+00
419  4.1800000000000D+00  0.0000000000000D+00  0.0000000000000D+00
420  4.1900000000000D+00  0.0000000000000D+00  0.0000000000000D+00
421  4.2000000000000D+00  0.0000000000000D+00  0.0000000000000D+00
422  4.2100000000000D+00  0.0000000000000D+00  0.0000000000000D+00
423  4.2200000000000D+00  0.0000000000000D+00  0.0000000000000D+00
424  4.2300000000000D+00  0.0000000000000D+00  0.0000000000000D+00
425  4.2400000000000D+00  0.0000000000000D+00  0.0000000000000D+00
426  4.2500000000000D+00  0.0000000000000D+00  0.0000000000000D+00
427  4.2600000000000D+00  0.0000000000000D+00  0.0000000000000D+00
428  4.2700000000000D+00  0.0000000000000D+00  0.0000000000000D+00
429  4.2800000000000D+00  0.0000000000000D+00  0.0000000000000D+00
430  4.2900000000000D+00  0.0000000000000D+00  0.0000000000000D+00
431  4.3000000000000D+00  0.0000000000000D+00  0.0000000000000D+00
432  4.3100000000000D+00  0.0000000000000D+00  0.0000000000000D+00
433  4.3200000000000D+00  0.0000000000000D+00  0.0000000000000D+00
434  4.3300000000000D+00  0.0000000000000D+00  0.0000000000000D+00
435  4.3400000000000D+00  0.0000000000000D+00  0.0000000000000D+00
436  4.3500000000000D+00  0.0000000000000D+00  0.0000000000000D+00
437  4.3600000000000D+00  0.0000000000000D+00  0.0000000000000D+00
438  4.3700000000000D+00  0.0000000000000D+00  0.0000000000000D+00
439  4.3800000000000D+00  0.0000000000000D+00  0.0000000000000D+00
440  4.3900000000000D+00  0.0000000000000D+00  0.0000000000000D+00
441  4.4000000000000D+00  0.0000000000000D+00  0.0000000000000D+00
442  4.4100000000000D+00  0.0000000000000D+00  0.0000000000000D+00
443  4.4200000000000D+00  0.0000000000000D+00  0.0000000000000D+00
444  4.4300000000000D+00  0.0000000000000D+00  0.0000000000000D+00