<?xml version="1.0" encoding="UTF-8" ?>
<psml version="1.0" energy_unit="hartree" length_unit="bohr"
 uuid="f56645b0-2455-11e7-55db-7c647d3f07b1">
<provenance creator="ONCVPSP-3.2.3+psml-51" date="2017-04-18">
<input-file name="oncvpsp-input">
<![CDATA[# atsym z nc nv iexc psfile
C 6 1 2 4 psp8
# n l f
1 0 2.0
2 0 2.0
2 1 2.0
# lmax
1
# l rc ep ncon nbas qcut
0 1.2 0.0 4 7 9.0
1 1.25 0.0 4 8 9.4
# lloc lpopt rc5 dvloc0
4 5 1.2 0.0
# l nproj debl
0 2 2.0
1 2 1.5
# icmod fcfact
3 4 1.55
# epsh1 epsh2 depsh
-12.0 12.0 0.02
# rlmax drl
6.0 0.01
 0
]]>
</input-file>
</provenance>
<header atomic-label="C" atomic-number="6" z-pseudo="4"
 flavor="Hamann&apos;s oncvpsp" relativity="scalar" polarized="no"
 core-corrections="yes">
<exchange-correlation>
<annotation oncvpsp-xc-code="4" oncvpsp-xc-type="GGA -- Perdew-Burke-Ernzerhof" />
<libxc-info number-of-functionals="2">
<functional name="Perdew, Burke &amp; Ernzerhof (GGA)" type="exchange" id="101" />
<functional name="Perdew, Burke &amp; Ernzerhof (GGA)" type="correlation"
 id="130" />
</libxc-info>
</exchange-correlation>
<valence-configuration total-valence-charge="4">
<shell n="2" l="s" occupation="2" />
<shell n="2" l="p" occupation="2" />
</valence-configuration>
</header>
<grid npts="600">
<annotation type="linear with r=0" oncvpsp-nrl="600"
 oncvpsp-drl="0.100000000000E-01" />
<grid-data>
  0.000000000000E+00  1.000000000000E-02  2.000000000000E-02  3.000000000000E-02
  4.000000000000E-02  5.000000000000E-02  6.000000000000E-02  7.000000000000E-02
  8.000000000000E-02  9.000000000000E-02  1.000000000000E-01  1.100000000000E-01
  1.200000000000E-01  1.300000000000E-01  1.400000000000E-01  1.500000000000E-01
  1.600000000000E-01  1.700000000000E-01  1.800000000000E-01  1.900000000000E-01
  2.000000000000E-01  2.100000000000E-01  2.200000000000E-01  2.300000000000E-01
  2.400000000000E-01  2.500000000000E-01  2.600000000000E-01  2.700000000000E-01
  2.800000000000E-01  2.900000000000E-01  3.000000000000E-01  3.100000000000E-01
  3.200000000000E-01  3.300000000000E-01  3.400000000000E-01  3.500000000000E-01
  3.600000000000E-01  3.700000000000E-01  3.800000000000E-01  3.900000000000E-01
  4.000000000000E-01  4.100000000000E-01  4.200000000000E-01  4.300000000000E-01
  4.400000000000E-01  4.500000000000E-01  4.600000000000E-01  4.700000000000E-01
  4.800000000000E-01  4.900000000000E-01  5.000000000000E-01  5.100000000000E-01
  5.200000000000E-01  5.300000000000E-01  5.400000000000E-01  5.500000000000E-01
  5.600000000000E-01  5.700000000000E-01  5.800000000000E-01  5.900000000000E-01
  6.000000000000E-01  6.100000000000E-01  6.200000000000E-01  6.300000000000E-01
  6.400000000000E-01  6.500000000000E-01  6.600000000000E-01  6.700000000000E-01
  6.800000000000E-01  6.900000000000E-01  7.000000000000E-01  7.100000000000E-01
  7.200000000000E-01  7.300000000000E-01  7.400000000000E-01  7.500000000000E-01
  7.600000000000E-01  7.700000000000E-01  7.800000000000E-01  7.900000000000E-01
  8.000000000000E-01  8.100000000000E-01  8.200000000000E-01  8.300000000000E-01
  8.400000000000E-01  8.500000000000E-01  8.600000000000E-01  8.700000000000E-01
  8.800000000000E-01  8.900000000000E-01  9.000000000000E-01  9.100000000000E-01
  9.200000000000E-01  9.300000000000E-01  9.400000000000E-01  9.500000000000E-01
  9.600000000000E-01  9.700000000000E-01  9.800000000000E-01  9.900000000000E-01
  1.000000000000E+00  1.010000000000E+00  1.020000000000E+00  1.030000000000E+00
  1.040000000000E+00  1.050000000000E+00  1.060000000000E+00  1.070000000000E+00
  1.080000000000E+00  1.090000000000E+00  1.100000000000E+00  1.110000000000E+00
  1.120000000000E+00  1.130000000000E+00  1.140000000000E+00  1.150000000000E+00
  1.160000000000E+00  1.170000000000E+00  1.180000000000E+00  1.190000000000E+00
  1.200000000000E+00  1.210000000000E+00  1.220000000000E+00  1.230000000000E+00
  1.240000000000E+00  1.250000000000E+00  1.260000000000E+00  1.270000000000E+00
  1.280000000000E+00  1.290000000000E+00  1.300000000000E+00  1.310000000000E+00
  1.320000000000E+00  1.330000000000E+00  1.340000000000E+00  1.350000000000E+00
  1.360000000000E+00  1.370000000000E+00  1.380000000000E+00  1.390000000000E+00
  1.400000000000E+00  1.410000000000E+00  1.420000000000E+00  1.430000000000E+00
  1.440000000000E+00  1.450000000000E+00  1.460000000000E+00  1.470000000000E+00
  1.480000000000E+00  1.490000000000E+00  1.500000000000E+00  1.510000000000E+00
  1.520000000000E+00  1.530000000000E+00  1.540000000000E+00  1.550000000000E+00
  1.560000000000E+00  1.570000000000E+00  1.580000000000E+00  1.590000000000E+00
  1.600000000000E+00  1.610000000000E+00  1.620000000000E+00  1.630000000000E+00
  1.640000000000E+00  1.650000000000E+00  1.660000000000E+00  1.670000000000E+00
  1.680000000000E+00  1.690000000000E+00  1.700000000000E+00  1.710000000000E+00
  1.720000000000E+00  1.730000000000E+00  1.740000000000E+00  1.750000000000E+00
  1.760000000000E+00  1.770000000000E+00  1.780000000000E+00  1.790000000000E+00
  1.800000000000E+00  1.810000000000E+00  1.820000000000E+00  1.830000000000E+00
  1.840000000000E+00  1.850000000000E+00  1.860000000000E+00  1.870000000000E+00
  1.880000000000E+00  1.890000000000E+00  1.900000000000E+00  1.910000000000E+00
  1.920000000000E+00  1.930000000000E+00  1.940000000000E+00  1.950000000000E+00
  1.960000000000E+00  1.970000000000E+00  1.980000000000E+00  1.990000000000E+00
  2.000000000000E+00  2.010000000000E+00  2.020000000000E+00  2.030000000000E+00
  2.040000000000E+00  2.050000000000E+00  2.060000000000E+00  2.070000000000E+00
  2.080000000000E+00  2.090000000000E+00  2.100000000000E+00  2.110000000000E+00
  2.120000000000E+00  2.130000000000E+00  2.140000000000E+00  2.150000000000E+00
  2.160000000000E+00  2.170000000000E+00  2.180000000000E+00  2.190000000000E+00
  2.200000000000E+00  2.210000000000E+00  2.220000000000E+00  2.230000000000E+00
  2.240000000000E+00  2.250000000000E+00  2.260000000000E+00  2.270000000000E+00
  2.280000000000E+00  2.290000000000E+00  2.300000000000E+00  2.310000000000E+00
  2.320000000000E+00  2.330000000000E+00  2.340000000000E+00  2.350000000000E+00
  2.360000000000E+00  2.370000000000E+00  2.380000000000E+00  2.390000000000E+00
  2.400000000000E+00  2.410000000000E+00  2.420000000000E+00  2.430000000000E+00
  2.440000000000E+00  2.450000000000E+00  2.460000000000E+00  2.470000000000E+00
  2.480000000000E+00  2.490000000000E+00  2.500000000000E+00  2.510000000000E+00
  2.520000000000E+00  2.530000000000E+00  2.540000000000E+00  2.550000000000E+00
  2.560000000000E+00  2.570000000000E+00  2.580000000000E+00  2.590000000000E+00
  2.600000000000E+00  2.610000000000E+00  2.620000000000E+00  2.630000000000E+00
  2.640000000000E+00  2.650000000000E+00  2.660000000000E+00  2.670000000000E+00
  2.680000000000E+00  2.690000000000E+00  2.700000000000E+00  2.710000000000E+00
  2.720000000000E+00  2.730000000000E+00  2.740000000000E+00  2.750000000000E+00
  2.760000000000E+00  2.770000000000E+00  2.780000000000E+00  2.790000000000E+00
  2.800000000000E+00  2.810000000000E+00  2.820000000000E+00  2.830000000000E+00
  2.840000000000E+00  2.850000000000E+00  2.860000000000E+00  2.870000000000E+00
  2.880000000000E+00  2.890000000000E+00  2.900000000000E+00  2.910000000000E+00
  2.920000000000E+00  2.930000000000E+00  2.940000000000E+00  2.950000000000E+00
  2.960000000000E+00  2.970000000000E+00  2.980000000000E+00  2.990000000000E+00
  3.000000000000E+00  3.010000000000E+00  3.020000000000E+00  3.030000000000E+00
  3.040000000000E+00  3.050000000000E+00  3.060000000000E+00  3.070000000000E+00
  3.080000000000E+00  3.090000000000E+00  3.100000000000E+00  3.110000000000E+00
  3.120000000000E+00  3.130000000000E+00  3.140000000000E+00  3.150000000000E+00
  3.160000000000E+00  3.170000000000E+00  3.180000000000E+00  3.190000000000E+00
  3.200000000000E+00  3.210000000000E+00  3.220000000000E+00  3.230000000000E+00
  3.240000000000E+00  3.250000000000E+00  3.260000000000E+00  3.270000000000E+00
  3.280000000000E+00  3.290000000000E+00  3.300000000000E+00  3.310000000000E+00
  3.320000000000E+00  3.330000000000E+00  3.340000000000E+00  3.350000000000E+00
  3.360000000000E+00  3.370000000000E+00  3.380000000000E+00  3.390000000000E+00
  3.400000000000E+00  3.410000000000E+00  3.420000000000E+00  3.430000000000E+00
  3.440000000000E+00  3.450000000000E+00  3.460000000000E+00  3.470000000000E+00
  3.480000000000E+00  3.490000000000E+00  3.500000000000E+00  3.510000000000E+00
  3.520000000000E+00  3.530000000000E+00  3.540000000000E+00  3.550000000000E+00
  3.560000000000E+00  3.570000000000E+00  3.580000000000E+00  3.590000000000E+00
  3.600000000000E+00  3.610000000000E+00  3.620000000000E+00  3.630000000000E+00
  3.640000000000E+00  3.650000000000E+00  3.660000000000E+00  3.670000000000E+00
  3.680000000000E+00  3.690000000000E+00  3.700000000000E+00  3.710000000000E+00
  3.720000000000E+00  3.730000000000E+00  3.740000000000E+00  3.750000000000E+00
  3.760000000000E+00  3.770000000000E+00  3.780000000000E+00  3.790000000000E+00
  3.800000000000E+00  3.810000000000E+00  3.820000000000E+00  3.830000000000E+00
  3.840000000000E+00  3.850000000000E+00  3.860000000000E+00  3.870000000000E+00
  3.880000000000E+00  3.890000000000E+00  3.900000000000E+00  3.910000000000E+00
  3.920000000000E+00  3.930000000000E+00  3.940000000000E+00  3.950000000000E+00
  3.960000000000E+00  3.970000000000E+00  3.980000000000E+00  3.990000000000E+00
  4.000000000000E+00  4.010000000000E+00  4.020000000000E+00  4.030000000000E+00
  4.040000000000E+00  4.050000000000E+00  4.060000000000E+00  4.070000000000E+00
  4.080000000000E+00  4.090000000000E+00  4.100000000000E+00  4.110000000000E+00
  4.120000000000E+00  4.130000000000E+00  4.140000000000E+00  4.150000000000E+00
  4.160000000000E+00  4.170000000000E+00  4.180000000000E+00  4.190000000000E+00
  4.200000000000E+00  4.210000000000E+00  4.220000000000E+00  4.230000000000E+00
  4.240000000000E+00  4.250000000000E+00  4.260000000000E+00  4.270000000000E+00
  4.280000000000E+00  4.290000000000E+00  4.300000000000E+00  4.310000000000E+00
  4.320000000000E+00  4.330000000000E+00  4.340000000000E+00  4.350000000000E+00
  4.360000000000E+00  4.370000000000E+00  4.380000000000E+00  4.390000000000E+00
  4.400000000000E+00  4.410000000000E+00  4.420000000000E+00  4.430000000000E+00
  4.440000000000E+00  4.450000000000E+00  4.460000000000E+00  4.470000000000E+00
  4.480000000000E+00  4.490000000000E+00  4.500000000000E+00  4.510000000000E+00
  4.520000000000E+00  4.530000000000E+00  4.540000000000E+00  4.550000000000E+00
  4.560000000000E+00  4.570000000000E+00  4.580000000000E+00  4.590000000000E+00
  4.600000000000E+00  4.610000000000E+00  4.620000000000E+00  4.630000000000E+00
  4.640000000000E+00  4.650000000000E+00  4.660000000000E+00  4.670000000000E+00
  4.680000000000E+00  4.690000000000E+00  4.700000000000E+00  4.710000000000E+00
  4.720000000000E+00  4.730000000000E+00  4.740000000000E+00  4.750000000000E+00
  4.760000000000E+00  4.770000000000E+00  4.780000000000E+00  4.790000000000E+00
  4.800000000000E+00  4.810000000000E+00  4.820000000000E+00  4.830000000000E+00
  4.840000000000E+00  4.850000000000E+00  4.860000000000E+00  4.870000000000E+00
  4.880000000000E+00  4.890000000000E+00  4.900000000000E+00  4.910000000000E+00
  4.920000000000E+00  4.930000000000E+00  4.940000000000E+00  4.950000000000E+00
  4.960000000000E+00  4.970000000000E+00  4.980000000000E+00  4.990000000000E+00
  5.000000000000E+00  5.010000000000E+00  5.020000000000E+00  5.030000000000E+00
  5.040000000000E+00  5.050000000000E+00  5.060000000000E+00  5.070000000000E+00
  5.080000000000E+00  5.090000000000E+00  5.100000000000E+00  5.110000000000E+00
  5.120000000000E+00  5.130000000000E+00  5.140000000000E+00  5.150000000000E+00
  5.160000000000E+00  5.170000000000E+00  5.180000000000E+00  5.190000000000E+00
  5.200000000000E+00  5.210000000000E+00  5.220000000000E+00  5.230000000000E+00
  5.240000000000E+00  5.250000000000E+00  5.260000000000E+00  5.270000000000E+00
  5.280000000000E+00  5.290000000000E+00  5.300000000000E+00  5.310000000000E+00
  5.320000000000E+00  5.330000000000E+00  5.340000000000E+00  5.350000000000E+00
  5.360000000000E+00  5.370000000000E+00  5.380000000000E+00  5.390000000000E+00
  5.400000000000E+00  5.410000000000E+00  5.420000000000E+00  5.430000000000E+00
  5.440000000000E+00  5.450000000000E+00  5.460000000000E+00  5.470000000000E+00
  5.480000000000E+00  5.490000000000E+00  5.500000000000E+00  5.510000000000E+00
  5.520000000000E+00  5.530000000000E+00  5.540000000000E+00  5.550000000000E+00
  5.560000000000E+00  5.570000000000E+00  5.580000000000E+00  5.590000000000E+00
  5.600000000000E+00  5.610000000000E+00  5.620000000000E+00  5.630000000000E+00
  5.640000000000E+00  5.650000000000E+00  5.660000000000E+00  5.670000000000E+00
  5.680000000000E+00  5.690000000000E+00  5.700000000000E+00  5.710000000000E+00
  5.720000000000E+00  5.730000000000E+00  5.740000000000E+00  5.750000000000E+00
  5.760000000000E+00  5.770000000000E+00  5.780000000000E+00  5.790000000000E+00
  5.800000000000E+00  5.810000000000E+00  5.820000000000E+00  5.830000000000E+00
  5.840000000000E+00  5.850000000000E+00  5.860000000000E+00  5.870000000000E+00
  5.880000000000E+00  5.890000000000E+00  5.900000000000E+00  5.910000000000E+00
  5.920000000000E+00  5.930000000000E+00  5.940000000000E+00  5.950000000000E+00
  5.960000000000E+00  5.970000000000E+00  5.980000000000E+00  5.990000000000E+00
</grid-data>
</grid>
<semilocal-potentials set="scalar_relativistic">
<slps n="2" l="s" rc="1.20439874552" flavor="Hamann&apos;s oncvpsp">
<radfunc>
<data>
  1.447953583958E+01  1.446001908483E+01  1.440164484115E+01  1.430493900442E+01
  1.417076519111E+01  1.400030653372E+01  1.379504098064E+01  1.355671121036E+01
  1.328729026981E+01  1.298894415006E+01  1.266399254988E+01  1.231486905203E+01
  1.194408185643E+01  1.155417608795E+01  1.114769853745E+01  1.072716551648E+01
  1.029503431934E+01  9.853678604566E+00  9.405367837860E+00  8.952250789050E+00
  8.496342949024E+00  8.039517632520E+00  7.583500458154E+00  7.129866847216E+00
  6.680042155047E+00  6.235304039951E+00  5.796786681185E+00  5.365486476094E+00
  4.942268873632E+00  4.527876034291E+00  4.122935042455E+00  3.727966434167E+00
  3.343392839790E+00  2.969547575705E+00  2.606683051362E+00  2.254978887014E+00
  1.914549663194E+00  1.585452245298E+00  1.267692645636E+00  9.612324012642E-01
  6.659944588555E-01  3.818685684287E-01  1.087161959514E-01 -1.536250289680E-01
 -4.053373093767E-01 -6.466190970321E-01 -8.776819024219E-01 -1.098747470947E+00
 -1.310045297895E+00 -1.511810454522E+00 -1.704281698363E+00 -1.887699841820E+00
 -2.062306354271E+00 -2.228342174319E+00 -2.386046710313E+00 -2.535657008772E+00
 -2.677407071934E+00 -2.811527307277E+00 -2.938244093305E+00 -3.057779447546E+00
 -3.170350784005E+00 -3.276170748870E+00 -3.375447124406E+00 -3.468382792320E+00
 -3.555175748877E+00 -3.636019165072E+00 -3.711101485998E+00 -3.780606564268E+00
 -3.844713822865E+00 -3.903598443301E+00 -3.957431575137E+00 -4.006380563152E+00
 -4.050609188431E+00 -4.090277919592E+00 -4.125544170262E+00 -4.156562558763E+00
 -4.183485165795E+00 -4.206461785857E+00 -4.225640168069E+00 -4.241166242195E+00
 -4.253184325839E+00 -4.261837309198E+00 -4.267266814177E+00 -4.269613325372E+00
 -4.269016291090E+00 -4.265614193411E+00 -4.259544587068E+00 -4.250944107752E+00
 -4.239948451167E+00 -4.226692324756E+00 -4.211309374548E+00 -4.193932089852E+00
 -4.174691688731E+00 -4.153717987134E+00 -4.131139254440E+00 -4.107082057905E+00
 -4.081671098105E+00 -4.055029037073E+00 -4.027276320405E+00 -3.998530994174E+00
 -3.968908517123E+00 -3.938521568309E+00 -3.907479850134E+00 -3.875889886566E+00
 -3.843854816326E+00 -3.811474180798E+00 -3.778843706609E+00 -3.746055082954E+00
 -3.713195734010E+00 -3.680348587050E+00 -3.647591837185E+00 -3.614998709973E+00
 -3.582637223494E+00 -3.550569951799E+00 -3.518853791970E+00 -3.487539736726E+00
 -3.456672657665E+00 -3.426291276519E+00 -3.396426336936E+00 -3.367105870278E+00
 -3.338349689549E+00 -3.310144131718E+00 -3.282453297536E+00 -3.255243088176E+00
 -3.228511487519E+00 -3.202254506077E+00 -3.176460197541E+00 -3.151114060336E+00
 -3.126196022153E+00 -3.101687026146E+00 -3.077577023029E+00 -3.053859191032E+00
 -3.030526630405E+00 -3.007568685153E+00 -2.984975433389E+00 -2.962738672546E+00
 -2.940849545960E+00 -2.919299236908E+00 -2.898079217413E+00 -2.877181095688E+00
 -2.856596648020E+00 -2.836317843547E+00 -2.816336852440E+00 -2.796646056415E+00
 -2.777238057391E+00 -2.758105684462E+00 -2.739241999269E+00 -2.720640299719E+00
 -2.702294122170E+00 -2.684197242078E+00 -2.666343673233E+00 -2.648727665628E+00
 -2.631343702074E+00 -2.614186493673E+00 -2.597250974223E+00 -2.580532293709E+00
 -2.564025810945E+00 -2.547727085529E+00 -2.531631869186E+00 -2.515736096629E+00
 -2.500035876058E+00 -2.484527479374E+00 -2.469207332247E+00 -2.454072004117E+00
 -2.439118198217E+00 -2.424342741734E+00 -2.409742576151E+00 -2.395314747895E+00
 -2.381056399301E+00 -2.366964760020E+00 -2.353037138853E+00 -2.339270916133E+00
 -2.325663536618E+00 -2.312212502989E+00 -2.298915369923E+00 -2.285769738795E+00
 -2.272773252978E+00 -2.259923593775E+00 -2.247218476934E+00 -2.234655649764E+00
 -2.222232888808E+00 -2.209947998042E+00 -2.197798807588E+00 -2.185783172870E+00
 -2.173898974202E+00 -2.162144116733E+00 -2.150516530729E+00 -2.139014172126E+00
 -2.127635023297E+00 -2.116377094023E+00 -2.105238422564E+00 -2.094217076826E+00
 -2.083311155571E+00 -2.072518789613E+00 -2.061838143013E+00 -2.051267414116E+00
 -2.040804836549E+00 -2.030448680063E+00 -2.020197251303E+00 -2.010048894329E+00
 -2.000001990934E+00 -1.990054960824E+00 -1.980206261586E+00 -1.970454388543E+00
 -1.960797874320E+00 -1.951235288283E+00 -1.941765235811E+00 -1.932386357395E+00
 -1.923097327638E+00 -1.913896854095E+00 -1.904783676042E+00 -1.895756563154E+00
 -1.886814314129E+00 -1.877955755258E+00 -1.869179739010E+00 -1.860485142595E+00
 -1.851870866547E+00 -1.843335833376E+00 -1.834878986197E+00 -1.826499287528E+00
 -1.818195718117E+00 -1.809967275843E+00 -1.801812974778E+00 -1.793731844265E+00
 -1.785722928171E+00 -1.777785284248E+00 -1.769917983534E+00 -1.762120109951E+00
 -1.754390759936E+00 -1.746729042175E+00 -1.739134077456E+00 -1.731604998552E+00
 -1.724140950202E+00 -1.716741089131E+00 -1.709404584125E+00 -1.702130616126E+00
 -1.694918378351E+00 -1.687767076447E+00 -1.680675928600E+00 -1.673644165670E+00
 -1.666671031317E+00 -1.659755782054E+00 -1.652897687317E+00 -1.646096029496E+00
 -1.639350103873E+00 -1.632659218593E+00 -1.626022694547E+00 -1.619439865192E+00
 -1.612910076390E+00 -1.606432686159E+00 -1.600007064464E+00 -1.593632592675E+00
 -1.587308663412E+00 -1.581034679441E+00 -1.574810056204E+00 -1.568634219315E+00
 -1.562506606490E+00 -1.556426654579E+00 -1.550393807497E+00 -1.544407515729E+00
 -1.538467262018E+00 -1.532572550256E+00 -1.526722891810E+00 -1.520917779837E+00
 -1.515156684842E+00 -1.509439083889E+00 -1.503764466286E+00 -1.498132352603E+00
 -1.492542267409E+00 -1.486993746161E+00 -1.481486324346E+00 -1.476019547488E+00
 -1.470592967983E+00 -1.465206144103E+00 -1.459858640519E+00 -1.454550027918E+00
 -1.449279883599E+00 -1.444047791021E+00 -1.438853339568E+00 -1.433696124504E+00
 -1.428575746861E+00 -1.423491813360E+00 -1.418443936298E+00 -1.413431733452E+00
 -1.408454827983E+00 -1.403512848342E+00 -1.398605428175E+00 -1.393732206235E+00
 -1.388892826292E+00 -1.384086937046E+00 -1.379314192044E+00 -1.374574249594E+00
 -1.369866772686E+00 -1.365191428910E+00 -1.360547890378E+00 -1.355935833649E+00
 -1.351354939653E+00 -1.346804893616E+00 -1.342285384991E+00 -1.337796107385E+00
 -1.333336758488E+00 -1.328907040010E+00 -1.324506657612E+00 -1.320135320839E+00
 -1.315792743059E+00 -1.311478641398E+00 -1.307192736680E+00 -1.302934753368E+00
 -1.298704419502E+00 -1.294501466642E+00 -1.290325629813E+00 -1.286176647447E+00
 -1.282054261331E+00 -1.277958216549E+00 -1.273888261435E+00 -1.269844147518E+00
 -1.265825629471E+00 -1.261832465065E+00 -1.257864415114E+00 -1.253921243435E+00
 -1.250002716796E+00 -1.246108604870E+00 -1.242238680193E+00 -1.238392718116E+00
 -1.234570496765E+00 -1.230771796996E+00 -1.226996402354E+00 -1.223244099032E+00
 -1.219514675829E+00 -1.215807924114E+00 -1.212123637782E+00 -1.208461613220E+00
 -1.204821649270E+00 -1.201203547188E+00 -1.197607110610E+00 -1.194032145516E+00
 -1.190478460198E+00 -1.186945865219E+00 -1.183434173391E+00 -1.179943199735E+00
 -1.176472761444E+00 -1.173022677867E+00 -1.169592770431E+00 -1.166182862658E+00
 -1.162792780125E+00 -1.159422350406E+00 -1.156071403150E+00 -1.152739769948E+00
 -1.149427284324E+00 -1.146133781744E+00 -1.142859099448E+00 -1.139603076533E+00
 -1.136365553934E+00 -1.133146374357E+00 -1.129945382360E+00 -1.126762424288E+00
 -1.123597348195E+00 -1.120450003858E+00 -1.117320242711E+00 -1.114207917791E+00
 -1.111112883785E+00 -1.108034996987E+00 -1.104974115264E+00 -1.101930098093E+00
 -1.098902806482E+00 -1.095892102959E+00 -1.092897851564E+00 -1.089919917807E+00
 -1.086958168662E+00 -1.084012472544E+00 -1.081082699292E+00 -1.078168720149E+00
 -1.075270407741E+00 -1.072387636061E+00 -1.069520280450E+00 -1.066668217577E+00
 -1.063831325424E+00 -1.061009483268E+00 -1.058202571664E+00 -1.055410472425E+00
 -1.052633068610E+00 -1.049870244507E+00 -1.047121885612E+00 -1.044387878620E+00
 -1.041668111404E+00 -1.038962473004E+00 -1.036270853609E+00 -1.033593144543E+00
 -1.030929238249E+00 -1.028279028278E+00 -1.025642409271E+00 -1.023019276950E+00
 -1.020409528096E+00 -1.017813060546E+00 -1.015229773169E+00 -1.012659565863E+00
 -1.010102339533E+00 -1.007557996085E+00 -1.005026438410E+00 -1.002507570373E+00
 -1.000001296799E+00 -9.975075234640E-01 -9.950261570805E-01 -9.925571052873E-01
 -9.901002766378E-01 -9.876555805883E-01 -9.852229274874E-01 -9.828022285645E-01
 -9.803933959196E-01 -9.779963425122E-01 -9.756109821510E-01 -9.732372294835E-01
 -9.708749999859E-01 -9.685242099532E-01 -9.661847764889E-01 -9.638566174956E-01
 -9.615396516655E-01 -9.592337984703E-01 -9.569389781527E-01 -9.546551117167E-01
 -9.523821209186E-01 -9.501199282581E-01 -9.478684569697E-01 -9.456276310136E-01
 -9.433973750674E-01 -9.411776145177E-01 -9.389682754518E-01 -9.367692846492E-01
 -9.345805695737E-01 -9.324020583657E-01 -9.302336798338E-01 -9.280753634476E-01
 -9.259270393294E-01 -9.237886382473E-01 -9.216600916075E-01 -9.195413314468E-01
 -9.174322904258E-01 -9.153329018211E-01 -9.132430995190E-01 -9.111628180081E-01
 -9.090919923725E-01 -9.070305582853E-01 -9.049784520015E-01 -9.029356103519E-01
 -9.009019707363E-01 -8.988774711174E-01 -8.968620500140E-01 -8.948556464953E-01
 -8.928582001744E-01 -8.908696512026E-01 -8.888899402630E-01 -8.869190085649E-01
 -8.849567978379E-01 -8.830032503259E-01 -8.810583087821E-01 -8.791219164627E-01
 -8.771940171218E-01 -8.752745550056E-01 -8.733634748476E-01 -8.714607218625E-01
 -8.695662417419E-01 -8.676799806483E-01 -8.658018852104E-01 -8.639319025180E-01
 -8.620699801172E-01 -8.602160660052E-01 -8.583701086255E-01 -8.565320568633E-01
 -8.547018600409E-01 -8.528794679124E-01 -8.510648306599E-01 -8.492578988885E-01
 -8.474586236218E-01 -8.456669562978E-01 -8.438828487640E-01 -8.421062532739E-01
 -8.403371224816E-01 -8.385754094389E-01 -8.368210675901E-01 -8.350740507683E-01
 -8.333343131915E-01 -8.316018094583E-01 -8.298764945441E-01 -8.281583237973E-01
 -8.264472529352E-01 -8.247432380404E-01 -8.230462355570E-01 -8.213562022868E-01
 -8.196730953857E-01 -8.179968723601E-01 -8.163274910633E-01 -8.146649096920E-01
 -8.130090867827E-01 -8.113599812083E-01 -8.097175521748E-01 -8.080817592180E-01
 -8.064525621997E-01 -8.048299213050E-01 -8.032137970389E-01 -8.016041502226E-01
 -8.000009419911E-01 -7.984041337896E-01 -7.968136873706E-01 -7.952295647906E-01
 -7.936517284074E-01 -7.920801408768E-01 -7.905147651501E-01 -7.889555644705E-01
 -7.874025023710E-01 -7.858555426711E-01 -7.843146494739E-01 -7.827797871637E-01
 -7.812509204030E-01 -7.797280141298E-01 -7.782110335551E-01 -7.766999441598E-01
 -7.751947116928E-01 -7.736953021678E-01 -7.722016818608E-01 -7.707138173081E-01
 -7.692316753030E-01 -7.677552228942E-01 -7.662844273825E-01 -7.648192563190E-01
 -7.633596775026E-01 -7.619056589772E-01 -7.604571690301E-01 -7.590141761892E-01
 -7.575766492206E-01 -7.561445571270E-01 -7.547178691446E-01 -7.532965547417E-01
 -7.518805836160E-01 -7.504699256926E-01 -7.490645511220E-01 -7.476644302777E-01
 -7.462695337546E-01 -7.448798323662E-01 -7.434952971435E-01 -7.421158993321E-01
 -7.407416103908E-01 -7.393724019894E-01 -7.380082460067E-01 -7.366491145286E-01
 -7.352949798466E-01 -7.339458144553E-01 -7.326015910507E-01 -7.312622825287E-01
 -7.299278619831E-01 -7.285983027034E-01 -7.272735781736E-01 -7.259536620703E-01
 -7.246385282606E-01 -7.233281508008E-01 -7.220225039345E-01 -7.207215620908E-01
 -7.194252998829E-01 -7.181336921064E-01 -7.168467137374E-01 -7.155643399311E-01
 -7.142865460202E-01 -7.130133075134E-01 -7.117446000934E-01 -7.104803996161E-01
 -7.092206821082E-01 -7.079654237665E-01 -7.067146009557E-01 -7.054681902076E-01
 -7.042261682190E-01 -7.029885118505E-01 -7.017551981252E-01 -7.005262042272E-01
 -6.993015075001E-01 -6.980810854457E-01 -6.968649157224E-01 -6.956529761442E-01
 -6.944452446792E-01 -6.932416994482E-01 -6.920423187232E-01 -6.908470809267E-01
 -6.896559646297E-01 -6.884689485509E-01 -6.872860115551E-01 -6.861071326523E-01
 -6.849322909961E-01 -6.837614658829E-01 -6.825946367500E-01 -6.814317831753E-01
 -6.802728848753E-01 -6.791179217043E-01 -6.779668736532E-01 -6.768197208485E-01
 -6.756764435508E-01 -6.745370221538E-01 -6.734014371834E-01 -6.722696692963E-01
 -6.711416992790E-01 -6.700175080469E-01 -6.688970766429E-01 -6.677803862366E-01
</data>
</radfunc>
</slps>
<slps n="2" l="p" rc="1.26325883560" flavor="Hamann&apos;s oncvpsp">
<radfunc>
<data>
 -1.175128711759E+01 -1.175021577103E+01 -1.174699892031E+01 -1.174162817253E+01
 -1.173408965821E+01 -1.172436420754E+01 -1.171242759546E+01 -1.169825085253E+01
 -1.168180063890E+01 -1.166303967759E+01 -1.164192724309E+01 -1.161841970040E+01
 -1.159247108909E+01 -1.156403374683E+01 -1.153305896587E+01 -1.149949767589E+01
 -1.146330114633E+01 -1.142442170082E+01 -1.138281343648E+01 -1.133843294043E+01
 -1.129123999615E+01 -1.124119827228E+01 -1.118827598650E+01 -1.113244653778E+01
 -1.107368910010E+01 -1.101198917160E+01 -1.094733907333E+01 -1.087973839245E+01
 -1.080919436518E+01 -1.073572219558E+01 -1.065934530674E+01 -1.058009552173E+01
 -1.049801317237E+01 -1.041314713462E+01 -1.032555478985E+01 -1.023530191248E+01
 -1.014246248474E+01 -1.004711844026E+01 -9.949359338956E+00 -9.849281976282E+00
 -9.746989930771E+00 -9.642593054425E+00 -9.536206911219E+00 -9.427952169718E+00
 -9.317953956361E+00 -9.206341176466E+00 -9.093245811065E+00 -8.978802197266E+00
 -8.863146301092E+00 -8.746414991526E+00 -8.628745324903E+00 -8.510273848788E+00
 -8.391135934487E+00 -8.271465147102E+00 -8.151392661806E+00 -8.031046734455E+00
 -7.910552234109E+00 -7.790030244258E+00 -7.669597738617E+00 -7.549367336358E+00
 -7.429447140383E+00 -7.309940661033E+00 -7.190946826087E+00 -7.072560076454E+00
 -6.954870545308E+00 -6.837964316706E+00 -6.721923758017E+00 -6.606827918727E+00
 -6.492752986407E+00 -6.379772788976E+00 -6.267959330708E+00 -6.157383348023E+00
 -6.048114869740E+00 -5.940223765433E+00 -5.833780264749E+00 -5.728855430172E+00
 -5.625521565578E+00 -5.523852543526E+00 -5.423924034971E+00 -5.325813626629E+00
 -5.229600813066E+00 -5.135366853108E+00 -5.043194482946E+00 -4.953167481734E+00
 -4.865370089017E+00 -4.779886277244E+00 -4.696798886588E+00 -4.616188633282E+00
 -4.538133006564E+00 -4.462705072906E+00 -4.389972209499E+00 -4.319994791719E+00
 -4.252824861558E+00 -4.188504805612E+00 -4.127066072170E+00 -4.068527957229E+00
 -4.012896488798E+00 -3.960163437772E+00 -3.910305481861E+00 -3.863283546773E+00
 -3.819042345833E+00 -3.777510135930E+00 -3.738598703838E+00 -3.702203592934E+00
 -3.668204575845E+00 -3.636466374371E+00 -3.606839623313E+00 -3.579162070448E+00
 -3.553260000637E+00 -3.528949867894E+00 -3.506040115709E+00 -3.484333162322E+00
 -3.463627524731E+00 -3.443720052852E+00 -3.424408243393E+00 -3.405492600895E+00
 -3.386779015379E+00 -3.368081120625E+00 -3.349222595187E+00 -3.330039372143E+00
 -3.310381858256E+00 -3.290117162559E+00 -3.269130155560E+00 -3.247326020007E+00
 -3.224656345463E+00 -3.200982514412E+00 -3.176327509522E+00 -3.151197868981E+00
 -3.126185630869E+00 -3.101670804359E+00 -3.077581670808E+00 -3.053859187112E+00
 -3.030526611768E+00 -3.007568685153E+00 -2.984975433389E+00 -2.962738672546E+00
 -2.940849545960E+00 -2.919299236908E+00 -2.898079217413E+00 -2.877181095688E+00
 -2.856596648020E+00 -2.836317843547E+00 -2.816336852440E+00 -2.796646056415E+00
 -2.777238057391E+00 -2.758105684462E+00 -2.739241999269E+00 -2.720640299719E+00
 -2.702294122170E+00 -2.684197242078E+00 -2.666343673233E+00 -2.648727665628E+00
 -2.631343702074E+00 -2.614186493673E+00 -2.597250974223E+00 -2.580532293709E+00
 -2.564025810945E+00 -2.547727085529E+00 -2.531631869186E+00 -2.515736096629E+00
 -2.500035876058E+00 -2.484527479374E+00 -2.469207332247E+00 -2.454072004117E+00
 -2.439118198217E+00 -2.424342741734E+00 -2.409742576151E+00 -2.395314747895E+00
 -2.381056399301E+00 -2.366964760020E+00 -2.353037138853E+00 -2.339270916133E+00
 -2.325663536618E+00 -2.312212502989E+00 -2.298915369923E+00 -2.285769738795E+00
 -2.272773252978E+00 -2.259923593775E+00 -2.247218476934E+00 -2.234655649764E+00
 -2.222232888808E+00 -2.209947998042E+00 -2.197798807588E+00 -2.185783172870E+00
 -2.173898974202E+00 -2.162144116733E+00 -2.150516530729E+00 -2.139014172126E+00
 -2.127635023297E+00 -2.116377094023E+00 -2.105238422564E+00 -2.094217076826E+00
 -2.083311155571E+00 -2.072518789613E+00 -2.061838143013E+00 -2.051267414116E+00
 -2.040804836549E+00 -2.030448680063E+00 -2.020197251303E+00 -2.010048894329E+00