Zr    ONCVPSP  r_core=  1.57  1.57  1.51
40.0000     12.0000      151029    zatom,zion,pspd
8   -1013   2     4   600     0    pspcod,pspxc,lmax,lloc,mmax,r2well
5.99000000  5.00000000  0.00000000    rchrg fchrg qchrg
2     2     2     0     0    nproj
1                 extension_switch
0                         1.0592163186693D+01  8.9178652316506D-01
1  0.0000000000000D+00 -2.0786383725380D-10  1.0248849269257D-09
2  1.0000000000000D-02  5.6337260245576D-02 -3.2151532500789D-02
3  2.0000000000000D-02  1.1258057312728D-01 -6.4116107642780D-02
4  3.0000000000000D-02  1.6863637616015D-01 -9.5708440847424D-02
5  4.0000000000000D-02  2.2441187253262D-01 -1.2674657241234D-01
6  5.0000000000000D-02  2.7981540378561D-01 -1.5705347850283D-01
7  6.0000000000000D-02  3.3475681045219D-01 -1.8645862114425D-01
8  7.0000000000000D-02  3.8914777689174D-01 -2.1479941810025D-01
9  8.0000000000000D-02  4.4290215676048D-01 -2.4192261454683D-01
10  9.0000000000000D-02  4.9593627581524D-01 -2.6768553970924D-01
11  1.0000000000000D-01  5.4816920904557D-01 -2.9195723310268D-01
12  1.1000000000000D-01  5.9952302946821D-01 -3.1461942669058D-01
13  1.2000000000000D-01  6.4992302629176D-01 -3.3556737112462D-01
14  1.3000000000000D-01  6.9929789056465D-01 -3.5471049623647D-01
15  1.4000000000000D-01  7.4757986684992D-01 -3.7197289808708D-01
16  1.5000000000000D-01  7.9470486992142D-01 -3.8729364711860D-01
17  1.6000000000000D-01  8.4061256594089D-01 -4.0062691426942D-01
18  1.7000000000000D-01  8.8524641804913D-01 -4.1194191427438D-01
19  1.8000000000000D-01  9.2855369677961D-01 -4.2122266775143D-01
20  1.9000000000000D-01  9.7048545617505D-01 -4.2846758604180D-01
21  2.0000000000000D-01  1.0109964769481D+00 -4.3368888509423D-01
22  2.1000000000000D-01  1.0500451784729D+00 -4.3691183693437D-01
23  2.2000000000000D-01  1.0875935018162D+00 -4.3817386941044D-01
24  2.3000000000000D-01  1.1236067664121D+00 -4.3752352692652D-01
25  2.4000000000000D-01  1.1580535033455D+00 -4.3501930674103D-01
26  2.5000000000000D-01  1.1909052685323D+00 -4.3072838709313D-01
27  2.6000000000000D-01  1.2221364393641D+00 -4.2472526490425D-01
28  2.7000000000000D-01  1.2517239986194D+00 -4.1709032206322D-01
29  2.8000000000000D-01  1.2796473096255D+00 -4.0790834032588D-01
30  2.9000000000000D-01  1.3058878867833D+00 -3.9726698562742D-01
31  3.0000000000000D-01  1.3304291656452D+00 -3.8525528310874D-01
32  3.1000000000000D-01  1.3532562767474D+00 -3.7196210438551D-01
33  3.2000000000000D-01  1.3743558273645D+00 -3.5747468853830D-01
34  3.3000000000000D-01  1.3937156952476D+00 -3.4187721797053D-01
35  3.4000000000000D-01  1.4113248382578D+00 -3.2524946967106D-01
36  3.5000000000000D-01  1.4271731235917D+00 -3.0766556153484D-01
37  3.6000000000000D-01  1.4412511800301D+00 -2.8919281224749D-01
38  3.7000000000000D-01  1.4535502763252D+00 -2.6989073184008D-01
39  3.8000000000000D-01  1.4640622284783D+00 -2.4981015838322D-01
40  3.9000000000000D-01  1.4727793382502D+00 -2.2899255443588D-01
41  4.0000000000000D-01  1.4796943648025D+00 -2.0746947481258D-01
42  4.1000000000000D-01  1.4848005308892D+00 -1.8526221500904D-01
43  4.2000000000000D-01  1.4880915645091D+00 -1.6238164725698D-01
44  4.3000000000000D-01  1.4895617764034D+00 -1.3882824869141D-01
45  4.4000000000000D-01  1.4892061732401D+00 -1.1459232354085D-01
46  4.5000000000000D-01  1.4870206057749D+00 -8.9654418620606D-02
47  4.6000000000000D-01  1.4830019507294D+00 -6.3985928759882D-02
48  4.7000000000000D-01  1.4771483245792D+00 -3.7549886151965D-02
49  4.8000000000000D-01  1.4694593269177D+00 -1.0301925023240D-02
50  4.9000000000000D-01  1.4599363105454D+00  1.7808589500602D-02
51  5.0000000000000D-01  1.4485826749560D+00  4.6837281856883D-02
52  5.1000000000000D-01  1.4354041794392D+00  7.6843351623991D-02
53  5.2000000000000D-01  1.4204092716132D+00  1.0788804209008D-01
54  5.3000000000000D-01  1.4036094268375D+00  1.4003301157156D-01
55  5.4000000000000D-01  1.3850194936503D+00  1.7333862889571D-01
56  5.5000000000000D-01  1.3646580401183D+00  2.0786221586431D-01
57  5.6000000000000D-01  1.3425476958003D+00  2.4365626064194D-01
58  5.7000000000000D-01  1.3187154838982D+00  2.8076662684843D-01
59  5.8000000000000D-01  1.2931931381107D+00  3.1923078366282D-01
60  5.9000000000000D-01  1.2660173987179D+00  3.5907608245617D-01
61  6.0000000000000D-01  1.2372302825072D+00  4.0031810535693D-01
62  6.1000000000000D-01  1.2068793213037D+00  4.4295911070874D-01
63  6.2000000000000D-01  1.1750177640943D+00  4.8698659961316D-01
64  6.3000000000000D-01  1.1417047380280D+00  5.3237202665409D-01
65  6.4000000000000D-01  1.1070053639323D+00  5.7906967650422D-01
66  6.5000000000000D-01  1.0709908224140D+00  6.2701572640186D-01
67  6.6000000000000D-01  1.0337383670935D+00  6.7612751250386D-01
68  6.7000000000000D-01  9.9533128205661D-01  7.2630301587922D-01
69  6.8000000000000D-01  9.5585878120074D-01  7.7742058141286D-01
70  6.9000000000000D-01  9.1541584777580D-01  8.2933888020179D-01
71  7.0000000000000D-01  8.7410301308780D-01  8.8189712315520D-01
72  7.1000000000000D-01  8.3202607402428D-01  9.3491553049178D-01
73  7.2000000000000D-01  7.8929574977499D-01  9.8819605869767D-01
74  7.3000000000000D-01  7.4602727884430D-01  1.0415233833150D+00
75  7.4000000000000D-01  7.0233995818001D-01  1.0946661326956D+00
76  7.5000000000000D-01  6.5835662696420D-01  1.1473783646337D+00
77  7.6000000000000D-01  6.1420309831844D-01  1.1994012746127D+00
78  7.7000000000000D-01  5.7000754286017D-01  1.2504651213069D+00
79  7.8000000000000D-01  5.2589982869667D-01  1.3002913520200D+00
80  7.9000000000000D-01  4.8201082305378D-01  1.3485949079445D+00
81  8.0000000000000D-01  4.3847166129796D-01  1.3950866865275D+00
82  8.1000000000000D-01  3.9541298961522D-01  1.4394761358757D+00
83  8.2000000000000D-01  3.5296418805214D-01  1.4814739540410D+00
84  8.3000000000000D-01  3.1125258099590D-01  1.5207948642439D+00
85  8.4000000000000D-01  2.7040264246700D-01  1.5571604356285D+00
86  8.5000000000000D-01  2.3053520381433D-01  1.5903019180328D+00
87  8.6000000000000D-01  1.9176667153526D-01  1.6199630585101D+00
88  8.7000000000000D-01  1.5420826298859D-01  1.6459028669740D+00
89  8.8000000000000D-01  1.1796526772569D-01  1.6678982983667D+00
90  8.9000000000000D-01  8.3136342032541D-02  1.6857468191717D+00
91  9.0000000000000D-01  4.9812844054046D-02  1.6992688269087D+00
92  9.1000000000000D-01  1.8078216562808D-02  1.7083098924598D+00
93  9.2000000000000D-01 -1.1992575959943D-02  1.7127427966608D+00
94  9.3000000000000D-01 -4.0333549739653D-02  1.7124693345503D+00
95  9.4000000000000D-01 -6.6888137981617D-02  1.7074218629694D+00
96  9.5000000000000D-01 -9.1609555988464D-02  1.6975645698265D+00
97  9.6000000000000D-01 -1.1446109079807D-01  1.6828944462640D+00
98  9.7000000000000D-01 -1.3541631176336D-01  1.6634419461319D+00
99  9.8000000000000D-01 -1.5445919930389D-01  1.6392713206310D+00
100  9.9000000000000D-01 -1.7158418987034D-01  1.6104806194682D+00
101  1.0000000000000D+00 -1.8679613605966D-01  1.5772013537292D+00
102  1.0100000000000D+00 -2.0011018169323D-01  1.5395978194459D+00
103  1.0200000000000D+00 -2.1155155257185D-01  1.4978660847371D+00
104  1.0300000000000D+00 -2.2115526452116D-01  1.4522326473034D+00
105  1.0400000000000D+00 -2.2896575124006D-01  1.4029527729543D+00
106  1.0500000000000D+00 -2.3503641531964D-01  1.3503085295676D+00
107  1.0600000000000D+00 -2.3942910662813D-01  1.2946065344789D+00
108  1.0700000000000D+00 -2.4221353308990D-01  1.2361754369253D+00
109  1.0800000000000D+00 -2.4346660958804D-01  1.1753631602242D+00
110  1.0900000000000D+00 -2.4327175143204D-01  1.1125339314651D+00
111  1.1000000000000D+00 -2.4171811941297D-01  1.0480651290251D+00
112  1.1100000000000D+00 -2.3889982401739D-01  9.8234398060220D-01
113  1.1200000000000D+00 -2.3491509684071D-01  9.1576414650063D-01
114  1.1300000000000D+00 -2.2986543756911D-01  8.4872222431739D-01
115  1.1400000000000D+00 -2.2385474516405D-01  7.8161421231642D-01
116  1.1500000000000D+00 -2.1698844205861D-01  7.1483196952081D-01
117  1.1600000000000D+00 -2.0937260024748D-01  6.4875971083066D-01
118  1.1700000000000D+00 -2.0111307807274D-01  5.8377057509219D-01
119  1.1800000000000D+00 -1.9231467636861D-01  5.2022330339129D-01
120  1.1900000000000D+00 -1.8308032245011D-01  4.5845906402112D-01
121  1.2000000000000D+00 -1.7351028999369D-01  3.9879845859687D-01
122  1.2100000000000D+00 -1.6370146233845D-01  3.4153874144927D-01
123  1.2200000000000D+00 -1.5374664651243D-01  2.8695128341547D-01
124  1.2300000000000D+00 -1.4373394432238D-01  2.3527930680563D-01
125  1.2400000000000D+00 -1.3374618618373D-01  1.8673591535863D-01
126  1.2500000000000D+00 -1.2386043286942D-01  1.4150244076812D-01
127  1.2600000000000D+00 -1.1414754932459D-01  9.9727122737100D-02
128  1.2700000000000D+00 -1.0467185356592D-01  6.1524134475619D-02
129  1.2800000000000D+00 -9.5490843268889D-02  2.6972963699446D-02
130  1.2900000000000D+00 -8.6655001486136D-02 -3.8818460026751D-03
131  1.3000000000000D+00 -7.8207681459237D-02 -3.1030595170924D-02
132  1.3100000000000D+00 -7.0185070423440D-02 -5.4497971864791D-02
133  1.3200000000000D+00 -6.2616230772368D-02 -7.4342247302956D-02
134  1.3300000000000D+00 -5.5523215527259D-02 -9.0654138940005D-02
135  1.3400000000000D+00 -4.8921255474497D-02 -1.0355535430627D-01
136  1.3500000000000D+00 -4.2819013087353D-02 -1.1319683894532D-01
137  1.3600000000000D+00 -3.7218897772575D-02 -1.1975675430844D-01
138  1.3700000000000D+00 -3.2117437413284D-02 -1.2343820958548D-01
139  1.3800000000000D+00 -2.7505698387689D-02 -1.2446678379993D-01
140  1.3900000000000D+00 -2.3369747423996D-02 -1.2308786924553D-01
141  1.4000000000000D+00 -1.9691147328939D-02 -1.1956387323412D-01
142  1.4100000000000D+00 -1.6447476511792D-02 -1.1417132556265D-01
143  1.4200000000000D+00 -1.3612872519439D-02 -1.0719788495220D-01
144  1.4300000000000D+00 -1.1158556344932D-02 -9.8939465594658D-02
145  1.4400000000000D+00 -9.0534481794127D-03 -8.9696903358254D-02
146  1.4500000000000D+00 -7.2646161466746D-03 -7.9773485058390D-02
147  1.4600000000000D+00 -5.7576308660132D-03 -6.9473030725700D-02
148  1.4700000000000D+00 -4.4979353720447D-03 -5.9092488546972D-02
149  1.4800000000000D+00 -3.4520876410151D-03 -4.8915350824185D-02
150  1.4900000000000D+00 -2.5892571910565D-03 -3.9203989593606D-02
151  1.5000000000000D+00 -1.8821441840065D-03 -3.0195075623518D-02
152  1.5100000000000D+00 -1.3073046983098D-03 -2.2098241345886D-02
153  1.5200000000000D+00 -8.4596074380451D-04 -1.5099331031109D-02
154  1.5300000000000D+00 -4.8304021872256D-04 -9.3180486683813D-03
155  1.5400000000000D+00 -2.1010230752857D-04 -4.8802694631115D-03
156  1.5500000000000D+00 -2.4631280863297D-05 -2.0042368520665D-03
157  1.5600000000000D+00  7.1388860102876D-05 -5.8576302637710D-04
158  1.5700000000000D+00  7.2876003538936D-05 -7.9702057083834D-05
159  1.5800000000000D+00  1.9573446578002D-05  8.5413214257481D-06
160  1.5900000000000D+00 -1.1011517371091D-05 -1.0769522704462D-05
161  1.6000000000000D+00 -4.3785997196958D-06 -5.9445387552800D-06
162  1.6100000000000D+00  2.4009719608147D-06  9.5663380816872D-07
163  1.6200000000000D+00  7.5830173700445D-07  4.3459120097533D-07
164  1.6300000000000D+00 -2.3560951575285D-07  7.1456827299389D-07
165  1.6400000000000D+00 -5.6368814078708D-08  1.7095814656819D-07
166  1.6500000000000D+00  0.0000000000000D+00  0.0000000000000D+00
167  1.6600000000000D+00  0.0000000000000D+00  0.0000000000000D+00
168  1.6700000000000D+00  0.0000000000000D+00  0.0000000000000D+00
169  1.6800000000000D+00  0.0000000000000D+00  0.0000000000000D+00
170  1.6900000000000D+00  0.0000000000000D+00  0.0000000000000D+00
171  1.7000000000000D+00  0.0000000000000D+00  0.0000000000000D+00
172  1.7100000000000D+00  0.0000000000000D+00  0.0000000000000D+00
173  1.7200000000000D+00  0.0000000000000D+00  0.0000000000000D+00
174  1.7300000000000D+00  0.0000000000000D+00  0.0000000000000D+00
175  1.7400000000000D+00  0.0000000000000D+00  0.0000000000000D+00
176  1.7500000000000D+00  0.0000000000000D+00  0.0000000000000D+00
177  1.7600000000000D+00  0.0000000000000D+00  0.0000000000000D+00
178  1.7700000000000D+00  0.0000000000000D+00  0.0000000000000D+00
179  1.7800000000000D+00  0.0000000000000D+00  0.0000000000000D+00
180  1.7900000000000D+00  0.0000000000000D+00  0.0000000000000D+00
181  1.8000000000000D+00  0.0000000000000D+00  0.0000000000000D+00
182  1.8100000000000D+00  0.0000000000000D+00  0.0000000000000D+00
183  1.8200000000000D+00  0.0000000000000D+00  0.0000000000000D+00
184  1.8300000000000D+00  0.0000000000000D+00  0.0000000000000D+00
185  1.8400000000000D+00  0.0000000000000D+00  0.0000000000000D+00
186  1.8500000000000D+00  0.0000000000000D+00  0.0000000000000D+00
187  1.8600000000000D+00  0.0000000000000D+00  0.0000000000000D+00
188  1.8700000000000D+00  0.0000000000000D+00  0.0000000000000D+00
189  1.8800000000000D+00  0.0000000000000D+00  0.0000000000000D+00
190  1.8900000000000D+00  0.0000000000000D+00  0.0000000000000D+00
191  1.9000000000000D+00  0.0000000000000D+00  0.0000000000000D+00
192  1.9100000000000D+00  0.0000000000000D+00  0.0000000000000D+00
193  1.9200000000000D+00  0.0000000000000D+00  0.0000000000000D+00
194  1.9300000000000D+00  0.0000000000000D+00  0.0000000000000D+00
195  1.9400000000000D+00  0.0000000000000D+00  0.0000000000000D+00
196  1.9500000000000D+00  0.0000000000000D+00  0.0000000000000D+00
197  1.9600000000000D+00  0.0000000000000D+00  0.0000000000000D+00
198  1.9700000000000D+00  0.0000000000000D+00  0.0000000000000D+00
199  1.9800000000000D+00  0.0000000000000D+00  0.0000000000000D+00
200  1.9900000000000D+00  0.0000000000000D+00  0.0000000000000D+00
201  2.0000000000000D+00  0.0000000000000D+00  0.0000000000000D+00
202  2.0100000000000D+00  0.0000000000000D+00  0.0000000000000D+00
203  2.0200000000000D+00  0.0000000000000D+00  0.0000000000000D+00
204  2.0300000000000D+00  0.0000000000000D+00  0.0000000000000D+00
205  2.0400000000000D+00  0.0000000000000D+00  0.0000000000000D+00
206  2.0500000000000D+00  0.0000000000000D+00  0.0000000000000D+00
207  2.0600000000000D+00  0.0000000000000D+00  0.0000000000000D+00
208  2.0700000000000D+00  0.0000000000000D+00  0.0000000000000D+00
209  2.0800000000000D+00  0.0000000000000D+00  0.0000000000000D+00
210  2.0900000000000D+00  0.0000000000000D+00  0.0000000000000D+00
211  2.1000000000000D+00  0.0000000000000D+00  0.0000000000000D+00
212  2.1100000000000D+00  0.0000000000000D+00  0.0000000000000D+00
213  2.1200000000000D+00  0.0000000000000D+00  0.0000000000000D+00
214  2.1300000000000D+00  0.0000000000000D+00  0.0000000000000D+00
215  2.1400000000000D+00  0.0000000000000D+00  0.0000000000000D+00
216  2.1500000000000D+00  0.0000000000000D+00  0.0000000000000D+00
217  2.1600000000000D+00  0.0000000000000D+00  0.0000000000000D+00
218  2.1700000000000D+00  0.0000000000000D+00  0.0000000000000D+00
219  2.1800000000000D+00  0.0000000000000D+00  0.0000000000000D+00
220  2.1900000000000D+00  0.0000000000000D+00  0.0000000000000D+00
221  2.2000000000000D+00  0.0000000000000D+00  0.0000000000000D+00
222  2.2100000000000D+00  0.0000000000000D+00  0.0000000000000D+00
223  2.2200000000000D+00  0.0000000000000D+00  0.0000000000000D+00
224  2.2300000000000D+00  0.0000000000000D+00  0.0000000000000D+00
225  2.2400000000000D+00  0.0000000000000D+00  0.0000000000000D+00
226  2.2500000000000D+00  0.0000000000000D+00  0.0000000000000D+00
227  2.2600000000000D+00  0.0000000000000D+00  0.0000000000000D+00
228  2.2700000000000D+00  0.0000000000000D+00  0.0000000000000D+00
229  2.2800000000000D+00  0.0000000000000D+00  0.0000000000000D+00
230  2.2900000000000D+00  0.0000000000000D+00  0.0000000000000D+00
231  2.3000000000000D+00  0.0000000000000D+00  0.0000000000000D+00
232  2.3100000000000D+00  0.0000000000000D+00  0.0000000000000D+00
233  2.3200000000000D+00  0.0000000000000D+00  0.0000000000000D+00
234  2.3300000000000D+00  0.0000000000000D+00  0.0000000000000D+00
235  2.3400000000000D+00  0.0000000000000D+00  0.0000000000000D+00
236  2.3500000000000D+00  0.0000000000000D+00  0.0000000000000D+00
237  2.3600000000000D+00  0.0000000000000D+00  0.0000000000000D+00
238  2.3700000000000D+00  0.0000000000000D+00  0.0000000000000D+00
239  2.3800000000000D+00  0.0000000000000D+00  0.0000000000000D+00
240  2.3900000000000D+00  0.0000000000000D+00  0.0000000000000D+00
241  2.4000000000000D+00  0.0000000000000D+00  0.0000000000000D+00
242  2.4100000000000D+00  0.0000000000000D+00  0.0000000000000D+00
243  2.4200000000000D+00  0.0000000000000D+00  0.0000000000000D+00
244  2.4300000000000D+00  0.0000000000000D+00  0.0000000000000D+00
245  2.4400000000000D+00  0.0000000000000D+00  0.0000000000000D+00
246  2.4500000000000D+00  0.0000000000000D+00  0.0000000000000D+00
247  2.4600000000000D+00  0.0000000000000D+00  0.0000000000000D+00
248  2.4700000000000D+00  0.0000000000000D+00  0.0000000000000D+00
249  2.4800000000000D+00  0.0000000000000D+00  0.0000000000000D+00
250  2.4900000000000D+00  0.0000000000000D+00  0.0000000000000D+00
251  2.5000000000000D+00  0.0000000000000D+00  0.0000000000000D+00
252  2.5100000000000D+00  0.0000000000000D+00  0.0000000000000D+00
253  2.5200000000000D+00  0.0000000000000D+00  0.0000000000000D+00
254  2.5300000000000D+00  0.0000000000000D+00  0.0000000000000D+00
255  2.5400000000000D+00  0.0000000000000D+00  0.0000000000000D+00
256  2.5500000000000D+00  0.0000000000000D+00  0.0000000000000D+00
257  2.5600000000000D+00  0.0000000000000D+00  0.0000000000000D+00
258  2.5700000000000D+00  0.0000000000000D+00  0.0000000000000D+00
259  2.5800000000000D+00  0.0000000000000D+00  0.0000000000000D+00
260  2.5900000000000D+00  0.0000000000000D+00  0.0000000000000D+00
261  2.6000000000000D+00  0.0000000000000D+00  0.0000000000000D+00
262  2.6100000000000D+00  0.0000000000000D+00  0.0000000000000D+00
263  2.6200000000000D+00  0.0000000000000D+00  0.0000000000000D+00
264  2.6300000000000D+00  0.0000000000000D+00  0.0000000000000D+00
265  2.6400000000000D+00  0.0000000000000D+00  0.0000000000000D+00
266  2.6500000000000D+00  0.0000000000000D+00  0.0000000000000D+00
267  2.6600000000000D+00  0.0000000000000D+00  0.0000000000000D+00
268  2.6700000000000D+00  0.0000000000000D+00  0.0000000000000D+00
269  2.6800000000000D+00  0.0000000000000D+00  0.0000000000000D+00
270  2.6900000000000D+00  0.0000000000000D+00  0.0000000000000D+00
271  2.7000000000000D+00  0.0000000000000D+00  0.0000000000000D+00
272  2.7100000000000D+00  0.0000000000000D+00  0.0000000000000D+00
273  2.7200000000000D+00  0.0000000000000D+00  0.0000000000000D+00
274  2.7300000000000D+00  0.0000000000000D+00  0.0000000000000D+00
275  2.7400000000000D+00  0.0000000000000D+00  0.0000000000000D+00
276  2.7500000000000D+00  0.0000000000000D+00  0.0000000000000D+00
277  2.7600000000000D+00  0.0000000000000D+00  0.0000000000000D+00
278  2.7700000000000D+00  0.0000000000000D+00  0.0000000000000D+00
279  2.7800000000000D+00  0.0000000000000D+00  0.0000000000000D+00
280  2.7900000000000D+00  0.0000000000000D+00  0.0000000000000D+00
281  2.8000000000000D+00  0.0000000000000D+00  0.0000000000000D+00
282  2.8100000000000D+00  0.0000000000000D+00  0.0000000000000D+00
283  2.8200000000000D+00  0.0000000000000D+00  0.0000000000000D+00
284  2.8300000000000D+00  0.0000000000000D+00  0.0000000000000D+00
285  2.8400000000000D+00  0.0000000000000D+00  0.0000000000000D+00
286  2.8500000000000D+00  0.0000000000000D+00  0.0000000000000D+00
287  2.8600000000000D+00  0.0000000000000D+00  0.0000000000000D+00
288  2.8700000000000D+00  0.0000000000000D+00  0.0000000000000D+00
289  2.8800000000000D+00  0.0000000000000D+00  0.0000000000000D+00
290  2.8900000000000D+00  0.0000000000000D+00  0.0000000000000D+00
291  2.9000000000000D+00  0.0000000000000D+00  0.0000000000000D+00
292  2.9100000000000D+00  0.0000000000000D+00  0.0000000000000D+00
293  2.9200000000000D+00  0.0000000000000D+00  0.0000000000000D+00
294  2.9300000000000D+00  0.0000000000000D+00  0.0000000000000D+00
295  2.9400000000000D+00  0.0000000000000D+00  0.0000000000000D+00
296  2.9500000000000D+00  0.0000000000000D+00  0.0000000000000D+00
297  2.9600000000000D+00  0.0000000000000D+00  0.0000000000000D+00
298  2.9700000000000D+00  0.0000000000000D+00  0.0000000000000D+00
299  2.9800000000000D+00  0.0000000000000D+00  0.0000000000000D+00
300  2.9900000000000D+00  0.0000000000000D+00  0.0000000000000D+00
301  3.0000000000000D+00  0.0000000000000D+00  0.0000000000000D+00
302  3.0100000000000D+00  0.0000000000000D+00  0.0000000000000D+00
303  3.0200000000000D+00  0.0000000000000D+00  0.0000000000000D+00
304  3.0300000000000D+00  0.0000000000000D+00  0.0000000000000D+00
305  3.0400000000000D+00  0.0000000000000D+00  0.0000000000000D+00
306  3.0500000000000D+00  0.0000000000000D+00  0.0000000000000D+00
307  3.0600000000000D+00  0.0000000000000D+00  0.0000000000000D+00
308  3.0700000000000D+00  0.0000000000000D+00  0.0000000000000D+00
309  3.0800000000000D+00  0.0000000000000D+00  0.0000000000000D+00
310  3.0900000000000D+00  0.0000000000000D+00  0.0000000000000D+00
311  3.1000000000000D+00  0.0000000000000D+00  0.0000000000000D+00
312  3.1100000000000D+00  0.0000000000000D+00  0.0000000000000D+00
313  3.1200000000000D+00  0.0000000000000D+00  0.0000000000000D+00
314  3.1300000000000D+00  0.0000000000000D+00  0.0000000000000D+00
315  3.1400000000000D+00  0.0000000000000D+00  0.0000000000000D+00
316  3.1500000000000D+00  0.0000000000000D+00  0.0000000000000D+00
317  3.1600000000000D+00  0.0000000000000D+00  0.0000000000000D+00
318  3.1700000000000D+00  0.0000000000000D+00  0.0000000000000D+00
319  3.1800000000000D+00  0.0000000000000D+00  0.0000000000000D+00
320  3.1900000000000D+00  0.0000000000000D+00  0.0000000000000D+00
321  3.2000000000000D+00  0.0000000000000D+00  0.0000000000000D+00
322  3.2100000000000D+00  0.0000000000000D+00  0.0000000000000D+00
323  3.2200000000000D+00  0.0000000000000D+00  0.0000000000000D+00
324  3.2300000000000D+00  0.0000000000000D+00  0.0000000000000D+00
325  3.2400000000000D+00  0.0000000000000D+00  0.0000000000000D+00
326  3.2500000000000D+00  0.0000000000000D+00  0.0000000000000D+00
327  3.2600000000000D+00  0.0000000000000D+00  0.0000000000000D+00
328  3.2700000000000D+00  0.0000000000000D+00  0.0000000000000D+00
329  3.2800000000000D+00  0.0000000000000D+00  0.0000000000000D+00
330  3.2900000000000D+00  0.0000000000000D+00  0.0000000000000D+00
331  3.3000000000000D+00  0.0000000000000D+00  0.0000000000000D+00
332  3.3100000000000D+00  0.0000000000000D+00  0.0000000000000D+00
333  3.3200000000000D+00  0.0000000000000D+00  0.0000000000000D+00
334  3.3300000000000D+00  0.0000000000000D+00  0.0000000000000D+00
335  3.3400000000000D+00  0.0000000000000D+00  0.0000000000000D+00
336  3.3500000000000D+00  0.0000000000000D+00  0.0000000000000D+00
337  3.3600000000000D+00  0.0000000000000D+00  0.0000000000000D+00
338  3.3700000000000D+00  0.0000000000000D+00  0.0000000000000D+00
339  3.3800000000000D+00  0.0000000000000D+00  0.0000000000000D+00
340  3.3900000000000D+00  0.0000000000000D+00  0.0000000000000D+00
341  3.4000000000000D+00  0.0000000000000D+00  0.0000000000000D+00
342  3.4100000000000D+00  0.0000000000000D+00  0.0000000000000D+00
343  3.4200000000000D+00  0.0000000000000D+00  0.0000000000000D+00
344  3.4300000000000D+00  0.0000000000000D+00  0.0000000000000D+00
345  3.4400000000000D+00  0.0000000000000D+00  0.0000000000000D+00
346  3.4500000000000D+00  0.0000000000000D+00  0.0000000000000D+00
347  3.4600000000000D+00  0.0000000000000D+00  0.0000000000000D+00
348  3.4700000000000D+00  0.0000000000000D+00  0.0000000000000D+00
349  3.4800000000000D+00  0.0000000000000D+00  0.0000000000000D+00
350  3.4900000000000D+00  0.0000000000000D+00  0.0000000000000D+00
351  3.5000000000000D+00  0.0000000000000D+00  0.0000000000000D+00
352  3.5100000000000D+00  0.0000000000000D+00  0.0000000000000D+00
353  3.5200000000000D+00  0.0000000000000D+00  0.0000000000000D+00
354  3.5300000000000D+00  0.0000000000000D+00  0.0000000000000D+00
355  3.5400000000000D+00  0.0000000000000D+00  0.0000000000000D+00
356  3.5500000000000D+00  0.0000000000000D+00  0.0000000000000D+00
357  3.5600000000000D+00  0.0000000000000D+00  0.0000000000000D+00
358  3.5700000000000D+00  0.0000000000000D+00  0.0000000000000D+00
359  3.5800000000000D+00  0.0000000000000D+00  0.0000000000000D+00
360  3.5900000000000D+00  0.0000000000000D+00  0.0000000000000D+00
361  3.6000000000000D+00  0.0000000000000D+00  0.0000000000000D+00
362  3.6100000000000D+00  0.0000000000000D+00  0.0000000000000D+00
363  3.6200000000000D+00  0.0000000000000D+00  0.0000000000000D+00
364  3.6300000000000D+00  0.0000000000000D+00  0.0000000000000D+00
365  3.6400000000000D+00  0.0000000000000D+00  0.0000000000000D+00
366  3.6500000000000D+00  0.0000000000000D+00  0.0000000000000D+00
367  3.6600000000000D+00  0.0000000000000D+00  0.0000000000000D+00
368  3.6700000000000D+00  0.0000000000000D+00  0.0000000000000D+00
369  3.6800000000000D+00  0.0000000000000D+00  0.0000000000000D+00
370  3.6900000000000D+00  0.0000000000000D+00  0.0000000000000D+00
371  3.7000000000000D+00  0.0000000000000D+00  0.0000000000000D+00
372  3.7100000000000D+00  0.0000000000000D+00  0.0000000000000D+00
373  3.7200000000000D+00  0.0000000000000D+00  0.0000000000000D+00
374  3.7300000000000D+00  0.0000000000000D+00  0.0000000000000D+00
375  3.7400000000000D+00  0.0000000000000D+00  0.0000000000000D+00
376  3.7500000000000D+00  0.0000000000000D+00  0.0000000000000D+00
377  3.7600000000000D+00  0.0000000000000D+00  0.0000000000000D+00
378  3.7700000000000D+00  0.0000000000000D+00  0.0000000000000D+00
379  3.7800000000000D+00  0.0000000000000D+00  0.0000000000000D+00
380  3.7900000000000D+00  0.0000000000000D+00  0.0000000000000D+00
381  3.8000000000000D+00  0.0000000000000D+00  0.0000000000000D+00
382  3.8100000000000D+00  0.0000000000000D+00  0.0000000000000D+00
383  3.8200000000000D+00  0.0000000000000D+00  0.0000000000000D+00
384  3.8300000000000D+00  0.0000000000000D+00  0.0000000000000D+00
385  3.8400000000000D+00  0.0000000000000D+00  0.0000000000000D+00
386  3.8500000000000D+00  0.0000000000000D+00  0.0000000000000D+00
387  3.8600000000000D+00  0.0000000000000D+00  0.0000000000000D+00
388  3.8700000000000D+00  0.0000000000000D+00  0.0000000000000D+00
389  3.8800000000000D+00  0.0000000000000D+00  0.0000000000000D+00
390  3.8900000000000D+00  0.0000000000000D+00  0.0000000000000D+00
391  3.9000000000000D+00  0.0000000000000D+00  0.0000000000000D+00
392  3.9100000000000D+00  0.0000000000000D+00  0.0000000000000D+00
393  3.9200000000000D+00  0.0000000000000D+00  0.0000000000000D+00
394  3.9300000000000D+00  0.0000000000000D+00  0.0000000000000D+00
395  3.9400000000000D+00  0.0000000000000D+00  0.0000000000000D+00
396  3.9500000000000D+00  0.0000000000000D+00  0.0000000000000D+00
397  3.9600000000000D+00  0.0000000000000D+00  0.0000000000000D+00
398  3.9700000000000D+00  0.0000000000000D+00  0.0000000000000D+00
399  3.9800000000000D+00  0.0000000000000D+00  0.0000000000000D+00
400  3.9900000000000D+00  0.0000000000000D+00  0.0000000000000D+00
401  4.0000000000000D+00  0.0000000000000D+00  0.0000000000000D+00
402  4.0100000000000D+00  0.0000000000000D+00  0.0000000000000D+00
403  4.0200000000000D+00  0.0000000000000D+00  0.0000000000000D+00
404  4.0300000000000D+00  0.0000000000000D+00  0.0000000000000D+00
405  4.0400000000000D+00  0.0000000000000D+00  0.0000000000000D+00
406  4.0500000000000D+00  0.0000000000000D+00  0.0000000000000D+00
407  4.0600000000000D+00  0.0000000000000D+00  0.0000000000000D+00
408  4.0700000000000D+00  0.0000000000000D+00  0.0000000000000D+00
409  4.0800000000000D+00  0.0000000000000D+00  0.0000000000000D+00
410  4.0900000000000D+00  0.0000000000000D+00  0.0000000000000D+00
411  4.1000000000000D+00  0.0000000000000D+00  0.0000000000000D+00
412  4.1100000000000D+00  0.0000000000000D+00  0.0000000000000D+00
413  4.1200000000000D+00  0.0000000000000D+00  0.0000000000000D+00
414  4.1300000000000D+00  0.0000000000000D+00  0.0000000000000D+00
415  4.1400000000000D+00  0.0000000000000D+00  0.0000000000000D+00
416  4.1500000000000D+00  0.0000000000000D+00  0.0000000000000D+00
417  4.1600000000000D+00  0.0000000000000D+00  0.0000000000000D+00
418  4.1700000000000D+00  0.0000000000000D+00  0.0000000000000D+00
419  4.1800000000000D+00  0.0000000000000D+00  0.0000000000000D+00
420  4.1900000000000D+00  0.0000000000000D+00  0.0000000000000D+00
421  4.2000000000000D+00  0.0000000000000D+00  0.0000000000000D+00
422  4.2100000000000D+00  0.0000000000000D+00  0.0000000000000D+00
423  4.2200000000000D+00  0.0000000000000D+00  0.0000000000000D+00
424  4.2300000000000D+00  0.0000000000000D+00  0.0000000000000D+00
425  4.2400000000000D+00  0.0000000000000D+00  0.0000000000000D+00
426  4.2500000000000D+00  0.0000000000000D+00  0.0000000000000D+00
427  4.2600000000000D+00  0.0000000000000D+00  0.0000000000000D+00
428  4.2700000000000D+00  0.0000000000000D+00  0.0000000000000D+00
429  4.2800000000000D+00  0.0000000000000D+00  0.0000000000000D+00
430  4.2900000000000D+00  0.0000000000000D+00  0.0000000000000D+00
431  4.3000000000000D+00  0.0000000000000D+00  0.0000000000000D+00
432  4.3100000000000D+00  0.0000000000000D+00  0.0000000000000D+00
433  4.3200000000000D+00  0.0000000000000D+00  0.0000000000000D+00
434  4.3300000000000D+00  0.0000000000000D+00  0.0000000000000D+00
435  4.3400000000000D+00  0.0000000000000D+00  0.0000000000000D+00
436  4.3500000000000D+00  0.0000000000000D+00  0.0000000000000D+00
437  4.3600000000000D+00  0.0000000000000D+00  0.0000000000000D+00
438  4.3700000000000D+00  0.0000000000000D+00  0.0000000000000D+00
439  4.3800000000000D+00  0.0000000000000D+00  0.0000000000000D+00
440  4.3900000000000D+00  0.0000000000000D+00  0.0000000000000D+00
441  4.4000000000000D+00  0.0000000000000D+00  0.0000000000000D+00
442  4.4100000000000D+00  0.0000000000000D+00  0.0000000000000D+00
443  4.4200000000000D+00  0.0000000000000D+00  0.0000000000000D+00
444  4.4300000000000D+00  0.0000000000000D+00  0.0000000000000D+00