Cr    ONCVPSP  r_core=  1.20  1.16  1.51
24.0000     14.0000      160325    zatom,zion,pspd
8   -1013   2     4   600     0    pspcod,pspxc,lmax,lloc,mmax,r2well
5.99000000  0.06000000  0.00000000    rchrg fchrg qchrg
2     2     2     0     0    nproj
0                 extension_switch
0                         1.1417691427484D+01  1.0666896611722D+00
1  0.0000000000000D+00  3.3803219112727D-09 -1.5064877623150D-08
2  1.0000000000000D-02  8.5647713612317D-02 -1.2946915641295D-02
3  2.0000000000000D-02  1.7113115475635D-01 -2.6045341092651D-02
4  3.0000000000000D-02  2.5628500019156D-01 -3.9439616098740D-02
5  4.0000000000000D-02  3.4094186383228D-01 -5.3259918113214D-02
6  5.0000000000000D-02  4.2493136118166D-01 -6.7615621776136D-02
7  6.0000000000000D-02  5.0807928631462D-01 -8.2589176089976D-02
8  7.0000000000000D-02  5.9020693485170D-01 -9.8230653699254D-02
9  8.0000000000000D-02  6.7113060298531D-01 -1.1455311161409D-01
10  9.0000000000000D-02  7.5066128853209D-01 -1.3152888450253D-01
11  1.0000000000000D-01  8.2860461527710D-01 -1.4908691070098D-01
12  1.1000000000000D-01  9.0476099664847D-01 -1.6711116780935D-01
13  1.2000000000000D-01  9.7892604912701D-01 -1.8544026964731D-01
14  1.3000000000000D-01  1.0508912598759D+00 -2.0386824999512D-01
15  1.4000000000000D-01  1.1204449069983D+00 -2.2214653149558D-01
16  1.5000000000000D-01  1.1873732247261D+00 -2.3998705094185D-01
17  1.6000000000000D-01  1.2514617998499D+00 -2.5706648551177D-01
18  1.7000000000000D-01  1.3124971799362D+00 -2.7303149891671D-01
19  1.8000000000000D-01  1.3702686684894D+00 -2.8750490247694D-01
20  1.9000000000000D-01  1.4245702773035D+00 -3.0009260434769D-01
21  2.0000000000000D-01  1.4752028019334D+00 -3.1039120098913D-01
22  2.1000000000000D-01  1.5219759825952D+00 -3.1799604893291D-01
23  2.2000000000000D-01  1.5647107099560D+00 -3.2250964231926D-01
24  2.3000000000000D-01  1.6032412332749D+00 -3.2355011285835D-01
25  2.4000000000000D-01  1.6374173272473D+00 -3.2075966403004D-01
26  2.5000000000000D-01  1.6671063737279D+00 -3.1381275060969D-01
27  2.6000000000000D-01  1.6921953152628D+00 -3.0242381804621D-01
28  2.7000000000000D-01  1.7125924390580D+00 -2.8635442377720D-01
29  2.8000000000000D-01  1.7282289525993D+00 -2.6541957411939D-01
30  2.9000000000000D-01  1.7390603156002D+00 -2.3949312569991D-01
31  3.0000000000000D-01  1.7450672971907D+00 -2.0851211919807D-01
32  3.1000000000000D-01  1.7462567322227D+00 -1.7247993507039D-01
33  3.2000000000000D-01  1.7426619561278D+00 -1.3146818548500D-01
34  3.3000000000000D-01  1.7343429038309D+00 -8.5617283389651D-02
35  3.4000000000000D-01  1.7213858646600D+00 -3.5135657916752D-02
36  3.5000000000000D-01  1.7039028918757D+00  1.9702385407068D-02
37  3.6000000000000D-01  1.6820308722250D+00  7.8560131558198D-02
38  3.7000000000000D-01  1.6559302676650D+00  1.4104319259531D-01
39  3.8000000000000D-01  1.6257835479643D+00  2.0670542808411D-01
40  3.9000000000000D-01  1.5917933391154D+00  2.7505593667621D-01
41  4.0000000000000D-01  1.5541803182694D+00  3.4556698145162D-01
42  4.1000000000000D-01  1.5131808910832D+00  4.1768268965696D-01
43  4.2000000000000D-01  1.4690446918499D+00  4.9082834872661D-01
44  4.3000000000000D-01  1.4220319504593D+00  5.6442010540713D-01
45  4.4000000000000D-01  1.3724107730118D+00  6.3787486379439D-01
46  4.5000000000000D-01  1.3204543847359D+00  7.1062017142421D-01
47  4.6000000000000D-01  1.2664383846668D+00  7.8210388043716D-01
48  4.7000000000000D-01  1.2106380613270D+00  8.5180337336910D-01
49  4.8000000000000D-01  1.1533258173787D+00  9.1923415030858D-01
50  4.9000000000000D-01  1.0947687489372D+00  9.8395758591939D-01
51  5.0000000000000D-01  1.0352264219517D+00  1.0455876809568D+00
52  5.1000000000000D-01  9.7494888386626D-01  1.1037966531161D+00
53  5.2000000000000D-01  9.1417494372489D-01  1.1583192359677D+00
54  5.3000000000000D-01  8.5313074809351D-01  1.2089555818855D+00
55  5.4000000000000D-01  7.9202867375314D-01  1.2555726947125D+00
56  5.5000000000000D-01  7.3106655120383D-01  1.2981043498200D+00
57  5.6000000000000D-01  6.7042722574056D-01  1.3365494925987D+00
58  5.7000000000000D-01  6.1027845540986D-01  1.3709691404018D+00
59  5.8000000000000D-01  5.5077313762042D-01  1.4014818471194D+00
60  5.9000000000000D-01  4.9204984882405D-01  1.4282578227161D+00
61  6.0000000000000D-01  4.3423367454355D-01  1.4515118320263D+00
62  6.1000000000000D-01  3.7743730039577D-01  1.4714950265500D+00
63  6.2000000000000D-01  3.2176232865492D-01  1.4884858898494D+00
64  6.3000000000000D-01  2.6730077958153D-01  1.5027805002755D+00
65  6.4000000000000D-01  2.1413673224939D-01  1.5146823339356D+00
66  6.5000000000000D-01  1.6234805608160D-01  1.5244918454228D+00
67  6.6000000000000D-01  1.1200818185161D-01  1.5324960734450D+00
68  6.7000000000000D-01  6.3187859556922D-02  1.5389585229388D+00
69  6.8000000000000D-01  1.5956850407102D-02  1.5441095742167D+00
70  6.9000000000000D-01 -2.9614498812219D-02  1.5481376631707D+00
71  7.0000000000000D-01 -7.3453848546452D-02  1.5511814646378D+00
72  7.1000000000000D-01 -1.1548567262483D-01  1.5533232936817D+00
73  7.2000000000000D-01 -1.5563031948933D-01  1.5545839173051D+00
74  7.3000000000000D-01 -1.9380336474416D-01  1.5549189421148D+00
75  7.4000000000000D-01 -2.2991528489037D-01  1.5542169124324D+00
76  7.5000000000000D-01 -2.6387147492097D-01  1.5522992186642D+00
77  7.6000000000000D-01 -2.9557262460626D-01  1.5489218781497D+00
78  7.7000000000000D-01 -3.2491545998550D-01  1.5437792110714D+00
79  7.8000000000000D-01 -3.5179384792738D-01  1.5365093929247D+00
80  7.9000000000000D-01 -3.7610025283483D-01  1.5267018234916D+00
81  8.0000000000000D-01 -3.9772752582972D-01  1.5139062110521D+00
82  8.1000000000000D-01 -4.1657099824666D-01  1.4976432305828D+00
83  8.2000000000000D-01 -4.3253084317985D-01  1.4774165767959D+00
84  8.3000000000000D-01 -4.4551466134195D-01  1.4527261978825D+00
85  8.4000000000000D-01 -4.5544024077817D-01  1.4230824645252D+00
86  8.5000000000000D-01 -4.6223843419127D-01  1.3880210018680D+00
87  8.6000000000000D-01 -4.6585609290536D-01  1.3471178902663D+00
88  8.7000000000000D-01 -4.6625899295364D-01  1.3000049243736D+00
89  8.8000000000000D-01 -4.6343468651256D-01  1.2463846098635D+00
90  8.9000000000000D-01 -4.5739521098066D-01  1.1860445731186D+00
91  9.0000000000000D-01 -4.4817958847266D-01  1.1188710617808D+00
92  9.1000000000000D-01 -4.3585605036930D-01  1.0448612231519D+00
93  9.2000000000000D-01 -4.2052392482136D-01  9.6413386300659D-01
94  9.3000000000000D-01 -4.0231512970632D-01  8.7693840919986D-01
95  9.4000000000000D-01 -3.8139521940446D-01  7.8366183217486D-01
96  9.5000000000000D-01 -3.5796394079822D-01  6.8483330762385D-01
97  9.6000000000000D-01 -3.3225526197742D-01  5.8112644453814D-01
98  9.7000000000000D-01 -3.0453684610556D-01  4.7335894399799D-01
99  9.8000000000000D-01 -2.7510895258001D-01  3.6248959942632D-01
100  9.9000000000000D-01 -2.4430275793900D-01  2.4961259736671D-01
101  1.0000000000000D+00 -2.1247809940115D-01  1.3594912667108D-01
102  1.0100000000000D+00 -1.8002065464270D-01  2.2836354117651D-02
103  1.0200000000000D+00 -1.4733858220155D-01 -8.8286125110127D-02
104  1.0300000000000D+00 -1.1485865700851D-01 -1.9589220640842D-01
105  1.0400000000000D+00 -8.3021945427109D-02 -2.9838736236713D-01
106  1.0500000000000D+00 -5.2279073370745D-02 -3.9412865226929D-01
107  1.0600000000000D+00 -2.3085149022865D-02 -4.8144637256425D-01
108  1.0700000000000D+00  4.1055910663664D-03 -5.5866703254581D-01
109  1.0800000000000D+00  2.8845337681113D-02 -6.2413731117075D-01
110  1.0900000000000D+00  5.0698387334853D-02 -6.7624863092849D-01
111  1.1000000000000D+00  6.9246861100333D-02 -7.1346196985153D-01
112  1.1100000000000D+00  8.4096380130521D-02 -7.3433252572572D-01
113  1.1200000000000D+00  9.4881614806956D-02 -7.3753385008001D-01
114  1.1300000000000D+00  1.0127162016933D-01 -7.2188104602945D-01
115  1.1400000000000D+00  1.0297490644121D-01 -6.8635280802722D-01
116  1.1500000000000D+00  9.9743983620141D-02 -6.3011100366625D-01
117  1.1600000000000D+00  9.1358441120545D-02 -5.5240819941220D-01
118  1.1700000000000D+00  7.7657331761723D-02 -4.5275363184799D-01
119  1.1800000000000D+00  5.9613950918605D-02 -3.3656576408063D-01
120  1.1900000000000D+00  3.2361491649525D-02 -1.7839757504459D-01
121  1.2000000000000D+00  2.7226115858427D-03 -1.4502642161523D-02
122  1.2100000000000D+00 -3.1761083063066D-03  1.7502106204913D-02
123  1.2200000000000D+00  7.8329530798089D-04 -4.3448050577176D-03
124  1.2300000000000D+00  5.1371219697079D-05 -2.8431851433455D-04
125  1.2400000000000D+00 -9.7947971903746D-05  5.5103457592025D-04
126  1.2500000000000D+00 -3.6242690467694D-07  1.0753732558402D-06
127  1.2600000000000D+00 -2.8993064252066D-10  8.6026631850965D-10
128  1.2700000000000D+00  0.0000000000000D+00  0.0000000000000D+00
129  1.2800000000000D+00  0.0000000000000D+00  0.0000000000000D+00
130  1.2900000000000D+00  0.0000000000000D+00  0.0000000000000D+00
131  1.3000000000000D+00  0.0000000000000D+00  0.0000000000000D+00
132  1.3100000000000D+00  0.0000000000000D+00  0.0000000000000D+00
133  1.3200000000000D+00  0.0000000000000D+00  0.0000000000000D+00
134  1.3300000000000D+00  0.0000000000000D+00  0.0000000000000D+00
135  1.3400000000000D+00  0.0000000000000D+00  0.0000000000000D+00
136  1.3500000000000D+00  0.0000000000000D+00  0.0000000000000D+00
137  1.3600000000000D+00  0.0000000000000D+00  0.0000000000000D+00
138  1.3700000000000D+00  0.0000000000000D+00  0.0000000000000D+00
139  1.3800000000000D+00  0.0000000000000D+00  0.0000000000000D+00
140  1.3900000000000D+00  0.0000000000000D+00  0.0000000000000D+00
141  1.4000000000000D+00  0.0000000000000D+00  0.0000000000000D+00
142  1.4100000000000D+00  0.0000000000000D+00  0.0000000000000D+00
143  1.4200000000000D+00  0.0000000000000D+00  0.0000000000000D+00
144  1.4300000000000D+00  0.0000000000000D+00  0.0000000000000D+00
145  1.4400000000000D+00  0.0000000000000D+00  0.0000000000000D+00
146  1.4500000000000D+00  0.0000000000000D+00  0.0000000000000D+00
147  1.4600000000000D+00  0.0000000000000D+00  0.0000000000000D+00
148  1.4700000000000D+00  0.0000000000000D+00  0.0000000000000D+00
149  1.4800000000000D+00  0.0000000000000D+00  0.0000000000000D+00
150  1.4900000000000D+00  0.0000000000000D+00  0.0000000000000D+00
151  1.5000000000000D+00  0.0000000000000D+00  0.0000000000000D+00
152  1.5100000000000D+00  0.0000000000000D+00  0.0000000000000D+00
153  1.5200000000000D+00  0.0000000000000D+00  0.0000000000000D+00
154  1.5300000000000D+00  0.0000000000000D+00  0.0000000000000D+00
155  1.5400000000000D+00  0.0000000000000D+00  0.0000000000000D+00
156  1.5500000000000D+00  0.0000000000000D+00  0.0000000000000D+00
157  1.5600000000000D+00  0.0000000000000D+00  0.0000000000000D+00
158  1.5700000000000D+00  0.0000000000000D+00  0.0000000000000D+00
159  1.5800000000000D+00  0.0000000000000D+00  0.0000000000000D+00
160  1.5900000000000D+00  0.0000000000000D+00  0.0000000000000D+00
161  1.6000000000000D+00  0.0000000000000D+00  0.0000000000000D+00
162  1.6100000000000D+00  0.0000000000000D+00  0.0000000000000D+00
163  1.6200000000000D+00  0.0000000000000D+00  0.0000000000000D+00
164  1.6300000000000D+00  0.0000000000000D+00  0.0000000000000D+00
165  1.6400000000000D+00  0.0000000000000D+00  0.0000000000000D+00
166  1.6500000000000D+00  0.0000000000000D+00  0.0000000000000D+00
167  1.6600000000000D+00  0.0000000000000D+00  0.0000000000000D+00
168  1.6700000000000D+00  0.0000000000000D+00  0.0000000000000D+00
169  1.6800000000000D+00  0.0000000000000D+00  0.0000000000000D+00
170  1.6900000000000D+00  0.0000000000000D+00  0.0000000000000D+00
171  1.7000000000000D+00  0.0000000000000D+00  0.0000000000000D+00
172  1.7100000000000D+00  0.0000000000000D+00  0.0000000000000D+00
173  1.7200000000000D+00  0.0000000000000D+00  0.0000000000000D+00
174  1.7300000000000D+00  0.0000000000000D+00  0.0000000000000D+00
175  1.7400000000000D+00  0.0000000000000D+00  0.0000000000000D+00
176  1.7500000000000D+00  0.0000000000000D+00  0.0000000000000D+00
177  1.7600000000000D+00  0.0000000000000D+00  0.0000000000000D+00
178  1.7700000000000D+00  0.0000000000000D+00  0.0000000000000D+00
179  1.7800000000000D+00  0.0000000000000D+00  0.0000000000000D+00
180  1.7900000000000D+00  0.0000000000000D+00  0.0000000000000D+00
181  1.8000000000000D+00  0.0000000000000D+00  0.0000000000000D+00
182  1.8100000000000D+00  0.0000000000000D+00  0.0000000000000D+00
183  1.8200000000000D+00  0.0000000000000D+00  0.0000000000000D+00
184  1.8300000000000D+00  0.0000000000000D+00  0.0000000000000D+00
185  1.8400000000000D+00  0.0000000000000D+00  0.0000000000000D+00
186  1.8500000000000D+00  0.0000000000000D+00  0.0000000000000D+00
187  1.8600000000000D+00  0.0000000000000D+00  0.0000000000000D+00
188  1.8700000000000D+00  0.0000000000000D+00  0.0000000000000D+00
189  1.8800000000000D+00  0.0000000000000D+00  0.0000000000000D+00
190  1.8900000000000D+00  0.0000000000000D+00  0.0000000000000D+00
191  1.9000000000000D+00  0.0000000000000D+00  0.0000000000000D+00
192  1.9100000000000D+00  0.0000000000000D+00  0.0000000000000D+00
193  1.9200000000000D+00  0.0000000000000D+00  0.0000000000000D+00
194  1.9300000000000D+00  0.0000000000000D+00  0.0000000000000D+00
195  1.9400000000000D+00  0.0000000000000D+00  0.0000000000000D+00
196  1.9500000000000D+00  0.0000000000000D+00  0.0000000000000D+00
197  1.9600000000000D+00  0.0000000000000D+00  0.0000000000000D+00
198  1.9700000000000D+00  0.0000000000000D+00  0.0000000000000D+00
199  1.9800000000000D+00  0.0000000000000D+00  0.0000000000000D+00
200  1.9900000000000D+00  0.0000000000000D+00  0.0000000000000D+00
201  2.0000000000000D+00  0.0000000000000D+00  0.0000000000000D+00
202  2.0100000000000D+00  0.0000000000000D+00  0.0000000000000D+00
203  2.0200000000000D+00  0.0000000000000D+00  0.0000000000000D+00
204  2.0300000000000D+00  0.0000000000000D+00  0.0000000000000D+00
205  2.0400000000000D+00  0.0000000000000D+00  0.0000000000000D+00
206  2.0500000000000D+00  0.0000000000000D+00  0.0000000000000D+00
207  2.0600000000000D+00  0.0000000000000D+00  0.0000000000000D+00
208  2.0700000000000D+00  0.0000000000000D+00  0.0000000000000D+00
209  2.0800000000000D+00  0.0000000000000D+00  0.0000000000000D+00
210  2.0900000000000D+00  0.0000000000000D+00  0.0000000000000D+00
211  2.1000000000000D+00  0.0000000000000D+00  0.0000000000000D+00
212  2.1100000000000D+00  0.0000000000000D+00  0.0000000000000D+00
213  2.1200000000000D+00  0.0000000000000D+00  0.0000000000000D+00
214  2.1300000000000D+00  0.0000000000000D+00  0.0000000000000D+00
215  2.1400000000000D+00  0.0000000000000D+00  0.0000000000000D+00
216  2.1500000000000D+00  0.0000000000000D+00  0.0000000000000D+00
217  2.1600000000000D+00  0.0000000000000D+00  0.0000000000000D+00
218  2.1700000000000D+00  0.0000000000000D+00  0.0000000000000D+00
219  2.1800000000000D+00  0.0000000000000D+00  0.0000000000000D+00
220  2.1900000000000D+00  0.0000000000000D+00  0.0000000000000D+00
221  2.2000000000000D+00  0.0000000000000D+00  0.0000000000000D+00
222  2.2100000000000D+00  0.0000000000000D+00  0.0000000000000D+00
223  2.2200000000000D+00  0.0000000000000D+00  0.0000000000000D+00
224  2.2300000000000D+00  0.0000000000000D+00  0.0000000000000D+00
225  2.2400000000000D+00  0.0000000000000D+00  0.0000000000000D+00
226  2.2500000000000D+00  0.0000000000000D+00  0.0000000000000D+00
227  2.2600000000000D+00  0.0000000000000D+00  0.0000000000000D+00
228  2.2700000000000D+00  0.0000000000000D+00  0.0000000000000D+00
229  2.2800000000000D+00  0.0000000000000D+00  0.0000000000000D+00
230  2.2900000000000D+00  0.0000000000000D+00  0.0000000000000D+00
231  2.3000000000000D+00  0.0000000000000D+00  0.0000000000000D+00
232  2.3100000000000D+00  0.0000000000000D+00  0.0000000000000D+00
233  2.3200000000000D+00  0.0000000000000D+00  0.0000000000000D+00
234  2.3300000000000D+00  0.0000000000000D+00  0.0000000000000D+00
235  2.3400000000000D+00  0.0000000000000D+00  0.0000000000000D+00
236  2.3500000000000D+00  0.0000000000000D+00  0.0000000000000D+00
237  2.3600000000000D+00  0.0000000000000D+00  0.0000000000000D+00
238  2.3700000000000D+00  0.0000000000000D+00  0.0000000000000D+00
239  2.3800000000000D+00  0.0000000000000D+00  0.0000000000000D+00
240  2.3900000000000D+00  0.0000000000000D+00  0.0000000000000D+00
241  2.4000000000000D+00  0.0000000000000D+00  0.0000000000000D+00
242  2.4100000000000D+00  0.0000000000000D+00  0.0000000000000D+00
243  2.4200000000000D+00  0.0000000000000D+00  0.0000000000000D+00
244  2.4300000000000D+00  0.0000000000000D+00  0.0000000000000D+00
245  2.4400000000000D+00  0.0000000000000D+00  0.0000000000000D+00
246  2.4500000000000D+00  0.0000000000000D+00  0.0000000000000D+00
247  2.4600000000000D+00  0.0000000000000D+00  0.0000000000000D+00
248  2.4700000000000D+00  0.0000000000000D+00  0.0000000000000D+00
249  2.4800000000000D+00  0.0000000000000D+00  0.0000000000000D+00
250  2.4900000000000D+00  0.0000000000000D+00  0.0000000000000D+00
251  2.5000000000000D+00  0.0000000000000D+00  0.0000000000000D+00
252  2.5100000000000D+00  0.0000000000000D+00  0.0000000000000D+00
253  2.5200000000000D+00  0.0000000000000D+00  0.0000000000000D+00
254  2.5300000000000D+00  0.0000000000000D+00  0.0000000000000D+00
255  2.5400000000000D+00  0.0000000000000D+00  0.0000000000000D+00
256  2.5500000000000D+00  0.0000000000000D+00  0.0000000000000D+00
257  2.5600000000000D+00  0.0000000000000D+00  0.0000000000000D+00
258  2.5700000000000D+00  0.0000000000000D+00  0.0000000000000D+00
259  2.5800000000000D+00  0.0000000000000D+00  0.0000000000000D+00
260  2.5900000000000D+00  0.0000000000000D+00  0.0000000000000D+00
261  2.6000000000000D+00  0.0000000000000D+00  0.0000000000000D+00
262  2.6100000000000D+00  0.0000000000000D+00  0.0000000000000D+00
263  2.6200000000000D+00  0.0000000000000D+00  0.0000000000000D+00
264  2.6300000000000D+00  0.0000000000000D+00  0.0000000000000D+00
265  2.6400000000000D+00  0.0000000000000D+00  0.0000000000000D+00
266  2.6500000000000D+00  0.0000000000000D+00  0.0000000000000D+00
267  2.6600000000000D+00  0.0000000000000D+00  0.0000000000000D+00
268  2.6700000000000D+00  0.0000000000000D+00  0.0000000000000D+00
269  2.6800000000000D+00  0.0000000000000D+00  0.0000000000000D+00
270  2.6900000000000D+00  0.0000000000000D+00  0.0000000000000D+00
271  2.7000000000000D+00  0.0000000000000D+00  0.0000000000000D+00
272  2.7100000000000D+00  0.0000000000000D+00  0.0000000000000D+00
273  2.7200000000000D+00  0.0000000000000D+00  0.0000000000000D+00
274  2.7300000000000D+00  0.0000000000000D+00  0.0000000000000D+00
275  2.7400000000000D+00  0.0000000000000D+00  0.0000000000000D+00
276  2.7500000000000D+00  0.0000000000000D+00  0.0000000000000D+00
277  2.7600000000000D+00  0.0000000000000D+00  0.0000000000000D+00
278  2.7700000000000D+00  0.0000000000000D+00  0.0000000000000D+00
279  2.7800000000000D+00  0.0000000000000D+00  0.0000000000000D+00
280  2.7900000000000D+00  0.0000000000000D+00  0.0000000000000D+00
281  2.8000000000000D+00  0.0000000000000D+00  0.0000000000000D+00
282  2.8100000000000D+00  0.0000000000000D+00  0.0000000000000D+00
283  2.8200000000000D+00  0.0000000000000D+00  0.0000000000000D+00
284  2.8300000000000D+00  0.0000000000000D+00  0.0000000000000D+00
285  2.8400000000000D+00  0.0000000000000D+00  0.0000000000000D+00
286  2.8500000000000D+00  0.0000000000000D+00  0.0000000000000D+00
287  2.8600000000000D+00  0.0000000000000D+00  0.0000000000000D+00
288  2.8700000000000D+00  0.0000000000000D+00  0.0000000000000D+00
289  2.8800000000000D+00  0.0000000000000D+00  0.0000000000000D+00
290  2.8900000000000D+00  0.0000000000000D+00  0.0000000000000D+00
291  2.9000000000000D+00  0.0000000000000D+00  0.0000000000000D+00
292  2.9100000000000D+00  0.0000000000000D+00  0.0000000000000D+00
293  2.9200000000000D+00  0.0000000000000D+00  0.0000000000000D+00
294  2.9300000000000D+00  0.0000000000000D+00  0.0000000000000D+00
295  2.9400000000000D+00  0.0000000000000D+00  0.0000000000000D+00
296  2.9500000000000D+00  0.0000000000000D+00  0.0000000000000D+00
297  2.9600000000000D+00  0.0000000000000D+00  0.0000000000000D+00
298  2.9700000000000D+00  0.0000000000000D+00  0.0000000000000D+00
299  2.9800000000000D+00  0.0000000000000D+00  0.0000000000000D+00
300  2.9900000000000D+00  0.0000000000000D+00  0.0000000000000D+00
301  3.0000000000000D+00  0.0000000000000D+00  0.0000000000000D+00
302  3.0100000000000D+00  0.0000000000000D+00  0.0000000000000D+00
303  3.0200000000000D+00  0.0000000000000D+00  0.0000000000000D+00
304  3.0300000000000D+00  0.0000000000000D+00  0.0000000000000D+00
305  3.0400000000000D+00  0.0000000000000D+00  0.0000000000000D+00
306  3.0500000000000D+00  0.0000000000000D+00  0.0000000000000D+00
307  3.0600000000000D+00  0.0000000000000D+00  0.0000000000000D+00
308  3.0700000000000D+00  0.0000000000000D+00  0.0000000000000D+00
309  3.0800000000000D+00  0.0000000000000D+00  0.0000000000000D+00
310  3.0900000000000D+00  0.0000000000000D+00  0.0000000000000D+00
311  3.1000000000000D+00  0.0000000000000D+00  0.0000000000000D+00
312  3.1100000000000D+00  0.0000000000000D+00  0.0000000000000D+00
313  3.1200000000000D+00  0.0000000000000D+00  0.0000000000000D+00
314  3.1300000000000D+00  0.0000000000000D+00  0.0000000000000D+00
315  3.1400000000000D+00  0.0000000000000D+00  0.0000000000000D+00
316  3.1500000000000D+00  0.0000000000000D+00  0.0000000000000D+00
317  3.1600000000000D+00  0.0000000000000D+00  0.0000000000000D+00
318  3.1700000000000D+00  0.0000000000000D+00  0.0000000000000D+00
319  3.1800000000000D+00  0.0000000000000D+00  0.0000000000000D+00
320  3.1900000000000D+00  0.0000000000000D+00  0.0000000000000D+00
321  3.2000000000000D+00  0.0000000000000D+00  0.0000000000000D+00
322  3.2100000000000D+00  0.0000000000000D+00  0.0000000000000D+00
323  3.2200000000000D+00  0.0000000000000D+00  0.0000000000000D+00
324  3.2300000000000D+00  0.0000000000000D+00  0.0000000000000D+00
325  3.2400000000000D+00  0.0000000000000D+00  0.0000000000000D+00
326  3.2500000000000D+00  0.0000000000000D+00  0.0000000000000D+00
327  3.2600000000000D+00  0.0000000000000D+00  0.0000000000000D+00
328  3.2700000000000D+00  0.0000000000000D+00  0.0000000000000D+00
329  3.2800000000000D+00  0.0000000000000D+00  0.0000000000000D+00
330  3.2900000000000D+00  0.0000000000000D+00  0.0000000000000D+00
331  3.3000000000000D+00  0.0000000000000D+00  0.0000000000000D+00
332  3.3100000000000D+00  0.0000000000000D+00  0.0000000000000D+00
333  3.3200000000000D+00  0.0000000000000D+00  0.0000000000000D+00
334  3.3300000000000D+00  0.0000000000000D+00  0.0000000000000D+00
335  3.3400000000000D+00  0.0000000000000D+00  0.0000000000000D+00
336  3.3500000000000D+00  0.0000000000000D+00  0.0000000000000D+00
337  3.3600000000000D+00  0.0000000000000D+00  0.0000000000000D+00
338  3.3700000000000D+00  0.0000000000000D+00  0.0000000000000D+00
339  3.3800000000000D+00  0.0000000000000D+00  0.0000000000000D+00
340  3.3900000000000D+00  0.0000000000000D+00  0.0000000000000D+00
341  3.4000000000000D+00  0.0000000000000D+00  0.0000000000000D+00
342  3.4100000000000D+00  0.0000000000000D+00  0.0000000000000D+00
343  3.4200000000000D+00  0.0000000000000D+00  0.0000000000000D+00
344  3.4300000000000D+00  0.0000000000000D+00  0.0000000000000D+00
345  3.4400000000000D+00  0.0000000000000D+00  0.0000000000000D+00
346  3.4500000000000D+00  0.0000000000000D+00  0.0000000000000D+00
347  3.4600000000000D+00  0.0000000000000D+00  0.0000000000000D+00
348  3.4700000000000D+00  0.0000000000000D+00  0.0000000000000D+00
349  3.4800000000000D+00  0.0000000000000D+00  0.0000000000000D+00
350  3.4900000000000D+00  0.0000000000000D+00  0.0000000000000D+00
351  3.5000000000000D+00  0.0000000000000D+00  0.0000000000000D+00
352  3.5100000000000D+00  0.0000000000000D+00  0.0000000000000D+00
353  3.5200000000000D+00  0.0000000000000D+00  0.0000000000000D+00
354  3.5300000000000D+00  0.0000000000000D+00  0.0000000000000D+00
355  3.5400000000000D+00  0.0000000000000D+00  0.0000000000000D+00
356  3.5500000000000D+00  0.0000000000000D+00  0.0000000000000D+00
357  3.5600000000000D+00  0.0000000000000D+00  0.0000000000000D+00
358  3.5700000000000D+00  0.0000000000000D+00  0.0000000000000D+00
359  3.5800000000000D+00  0.0000000000000D+00  0.0000000000000D+00
360  3.5900000000000D+00  0.0000000000000D+00  0.0000000000000D+00
361  3.6000000000000D+00  0.0000000000000D+00  0.0000000000000D+00
362  3.6100000000000D+00  0.0000000000000D+00  0.0000000000000D+00
363  3.6200000000000D+00  0.0000000000000D+00  0.0000000000000D+00
364  3.6300000000000D+00  0.0000000000000D+00  0.0000000000000D+00
365  3.6400000000000D+00  0.0000000000000D+00  0.0000000000000D+00
366  3.6500000000000D+00  0.0000000000000D+00  0.0000000000000D+00
367  3.6600000000000D+00  0.0000000000000D+00  0.0000000000000D+00
368  3.6700000000000D+00  0.0000000000000D+00  0.0000000000000D+00
369  3.6800000000000D+00  0.0000000000000D+00  0.0000000000000D+00
370  3.6900000000000D+00  0.0000000000000D+00  0.0000000000000D+00
371  3.7000000000000D+00  0.0000000000000D+00  0.0000000000000D+00
372  3.7100000000000D+00  0.0000000000000D+00  0.0000000000000D+00
373  3.7200000000000D+00  0.0000000000000D+00  0.0000000000000D+00
374  3.7300000000000D+00  0.0000000000000D+00  0.0000000000000D+00
375  3.7400000000000D+00  0.0000000000000D+00  0.0000000000000D+00
376  3.7500000000000D+00  0.0000000000000D+00  0.0000000000000D+00
377  3.7600000000000D+00  0.0000000000000D+00  0.0000000000000D+00
378  3.7700000000000D+00  0.0000000000000D+00  0.0000000000000D+00
379  3.7800000000000D+00  0.0000000000000D+00  0.0000000000000D+00
380  3.7900000000000D+00  0.0000000000000D+00  0.0000000000000D+00
381  3.8000000000000D+00  0.0000000000000D+00  0.0000000000000D+00
382  3.8100000000000D+00  0.0000000000000D+00  0.0000000000000D+00
383  3.8200000000000D+00  0.0000000000000D+00  0.0000000000000D+00
384  3.8300000000000D+00  0.0000000000000D+00  0.0000000000000D+00
385  3.8400000000000D+00  0.0000000000000D+00  0.0000000000000D+00
386  3.8500000000000D+00  0.0000000000000D+00  0.0000000000000D+00
387  3.8600000000000D+00  0.0000000000000D+00  0.0000000000000D+00
388  3.8700000000000D+00  0.0000000000000D+00  0.0000000000000D+00
389  3.8800000000000D+00  0.0000000000000D+00  0.0000000000000D+00
390  3.8900000000000D+00  0.0000000000000D+00  0.0000000000000D+00
391  3.9000000000000D+00  0.0000000000000D+00  0.0000000000000D+00
392  3.9100000000000D+00  0.0000000000000D+00  0.0000000000000D+00
393  3.9200000000000D+00  0.0000000000000D+00  0.0000000000000D+00
394  3.9300000000000D+00  0.0000000000000D+00  0.0000000000000D+00
395  3.9400000000000D+00  0.0000000000000D+00  0.0000000000000D+00
396  3.9500000000000D+00  0.0000000000000D+00  0.0000000000000D+00
397  3.9600000000000D+00  0.0000000000000D+00  0.0000000000000D+00
398  3.9700000000000D+00  0.0000000000000D+00  0.0000000000000D+00
399  3.9800000000000D+00  0.0000000000000D+00  0.0000000000000D+00
400  3.9900000000000D+00  0.0000000000000D+00  0.0000000000000D+00
401  4.0000000000000D+00  0.0000000000000D+00  0.0000000000000D+00
402  4.0100000000000D+00  0.0000000000000D+00  0.0000000000000D+00
403  4.0200000000000D+00  0.0000000000000D+00  0.0000000000000D+00
404  4.0300000000000D+00  0.0000000000000D+00  0.0000000000000D+00
405  4.0400000000000D+00  0.0000000000000D+00  0.0000000000000D+00
406  4.0500000000000D+00  0.0000000000000D+00  0.0000000000000D+00
407  4.0600000000000D+00  0.0000000000000D+00  0.0000000000000D+00
408  4.0700000000000D+00  0.0000000000000D+00  0.0000000000000D+00
409  4.0800000000000D+00  0.0000000000000D+00  0.0000000000000D+00
410  4.0900000000000D+00  0.0000000000000D+00  0.0000000000000D+00
411  4.1000000000000D+00  0.0000000000000D+00  0.0000000000000D+00
412  4.1100000000000D+00  0.0000000000000D+00  0.0000000000000D+00
413  4.1200000000000D+00  0.0000000000000D+00  0.0000000000000D+00
414  4.1300000000000D+00  0.0000000000000D+00  0.0000000000000D+00
415  4.1400000000000D+00  0.0000000000000D+00  0.0000000000000D+00
416  4.1500000000000D+00  0.0000000000000D+00  0.0000000000000D+00
417  4.1600000000000D+00  0.0000000000000D+00  0.0000000000000D+00
418  4.1700000000000D+00  0.0000000000000D+00  0.0000000000000D+00
419  4.1800000000000D+00  0.0000000000000D+00  0.0000000000000D+00
420  4.1900000000000D+00  0.0000000000000D+00  0.0000000000000D+00
421  4.2000000000000D+00  0.0000000000000D+00  0.0000000000000D+00
422  4.2100000000000D+00  0.0000000000000D+00  0.0000000000000D+00
423  4.2200000000000D+00  0.0000000000000D+00  0.0000000000000D+00
424  4.2300000000000D+00  0.0000000000000D+00  0.0000000000000D+00
425  4.2400000000000D+00  0.0000000000000D+00  0.0000000000000D+00
426  4.2500000000000D+00  0.0000000000000D+00  0.0000000000000D+00
427  4.2600000000000D+00  0.0000000000000D+00  0.0000000000000D+00
428  4.2700000000000D+00  0.0000000000000D+00  0.0000000000000D+00
429  4.2800000000000D+00  0.0000000000000D+00  0.0000000000000D+00
430  4.2900000000000D+00  0.0000000000000D+00  0.0000000000000D+00
431  4.3000000000000D+00  0.0000000000000D+00  0.0000000000000D+00
432  4.3100000000000D+00  0.0000000000000D+00  0.0000000000000D+00
433  4.3200000000000D+00  0.0000000000000D+00  0.0000000000000D+00
434  4.3300000000000D+00  0.0000000000000D+00  0.0000000000000D+00
435  4.3400000000000D+00  0.0000000000000D+00  0.0000000000000D+00
436  4.3500000000000D+00  0.0000000000000D+00  0.0000000000000D+00
437  4.3600000000000D+00  0.0000000000000D+00  0.0000000000000D+00
438  4.3700000000000D+00  0.0000000000000D+00  0.0000000000000D+00
439  4.3800000000000D+00  0.0000000000000D+00  0.0000000000000D+00
440  4.3900000000000D+00  0.0000000000000D+00  0.0000000000000D+00
441  4.4000000000000D+00  0.0000000000000D+00  0.0000000000000D+00
442  4.4100000000000D+00  0.0000000000000D+00  0.0000000000000D+00
443  4.4200000000000D+00  0.0000000000000D+00  0.0000000000000D+00
444  4.4300000000000D+00  0.0000000000000D+00  0.0000000000000D+00