Cr    ONCVPSP  r_core=  1.31  1.31  1.72
24.0000     14.0000      160325    zatom,zion,pspd
8   -1013   2     4   600     0    pspcod,pspxc,lmax,lloc,mmax,r2well
5.99000000  5.00000000  0.00000000    rchrg fchrg qchrg
2     2     2     0     0    nproj
1                 extension_switch
0                         6.4827026606252D+00 -8.9102310960085D-01
1  0.0000000000000D+00  1.6971944960531D-09  2.8795448137053D-08
2  1.0000000000000D-02  7.7080113446403D-02 -9.7800703076593D-02
3  2.0000000000000D-02  1.5403244433683D-01 -1.9422672420485D-01
4  3.0000000000000D-02  2.3072847345639D-01 -2.8792672183202D-01
5  4.0000000000000D-02  3.0703823121302D-01 -3.7759561535658D-01
6  5.0000000000000D-02  3.8282962935668D-01 -4.6199667353056D-01
7  6.0000000000000D-02  4.5796785975290D-01 -5.3998237331685D-01
8  7.0000000000000D-02  5.3231488052753D-01 -6.1051365386175D-01
9  8.0000000000000D-02  6.0572900820237D-01 -6.7267721903895D-01
10  9.0000000000000D-02  6.7806463237726D-01 -7.2570057705112D-01
11  1.0000000000000D-01  7.4917206712060D-01 -7.6896454622303D-01
12  1.1000000000000D-01  8.1889755054927D-01 -8.0201300166716D-01
13  1.2000000000000D-01  8.8708340115909D-01 -8.2455968714393D-01
14  1.3000000000000D-01  9.5356833636064D-01 -8.3649196929747D-01
15  1.4000000000000D-01  1.0181879554380D+00 -8.3787146658519D-01
16  1.5000000000000D-01  1.0807753858390D+00 -8.2893154166019D-01
17  1.6000000000000D-01  1.1411620883822D+00 -8.1007170270533D-01
18  1.7000000000000D-01  1.1991788136953D+00 -7.8184901524504D-01
19  1.8000000000000D-01  1.2546566990283D+00 -7.4496668027876D-01
20  1.9000000000000D-01  1.3074284915882D+00 -7.0025998621304D-01
21  2.0000000000000D-01  1.3573298817592D+00 -6.4867989009088D-01
22  2.1000000000000D-01  1.4042009270669D+00 -5.9127452716208D-01
23  2.2000000000000D-01  1.4478875455547D+00 -5.2916898611570D-01
24  2.3000000000000D-01  1.4882430554164D+00 -4.6354371960536D-01
25  2.4000000000000D-01  1.5251297362981D+00 -3.9561198544798D-01
26  2.5000000000000D-01  1.5584203866773D+00 -3.2659673257763D-01
27  2.6000000000000D-01  1.5879998511721D+00 -2.5770735713712D-01
28  2.7000000000000D-01  1.6137664915322D+00 -1.9011675775433D-01
29  2.8000000000000D-01  1.6356335754370D+00 -1.2493911498641D-01
30  2.9000000000000D-01  1.6535305580525D+00 -6.3208808163337D-02
31  3.0000000000000D-01  1.6674042325871D+00 -5.8608635986620D-03
32  3.1000000000000D-01  1.6772197278015D+00  4.6286698327743D-02
33  3.2000000000000D-01  1.6829613325536D+00  9.2548282932739D-02
34  3.3000000000000D-01  1.6846331299555D+00  1.3238361297699D-01
35  3.4000000000000D-01  1.6822594265514D+00  1.6540784247746D-01
36  3.5000000000000D-01  1.6758849650383D+00  1.9139869235623D-01
37  3.6000000000000D-01  1.6655749124011D+00  2.1030046126877D-01
38  3.7000000000000D-01  1.6514146188602D+00  2.2222482146895D-01
39  3.8000000000000D-01  1.6335091466692D+00  2.2744836803515D-01
40  3.9000000000000D-01  1.6119825715004D+00  2.2640694915350D-01
41  4.0000000000000D-01  1.5869770628417D+00  2.1968686438984D-01
42  4.1000000000000D-01  1.5586517534403D+00  2.0801307590158D-01
43  4.2000000000000D-01  1.5271814113095D+00  1.9223463331055D-01
44  4.3000000000000D-01  1.4927549310903D+00  1.7330756545861D-01
45  4.4000000000000D-01  1.4555736645830D+00  1.5227554053643D-01
46  4.5000000000000D-01  1.4158496129770D+00  1.3024863922699D-01
47  4.6000000000000D-01  1.3738035056558D+00  1.0838062272020D-01
48  4.7000000000000D-01  1.3296627924089D+00  8.7845108035665D-02
49  4.8000000000000D-01  1.2836595773857D+00  6.9811086439777D-02
50  4.9000000000000D-01  1.2360285241750D+00  5.5418236386888D-02
51  5.0000000000000D-01  1.1870047619415D+00  4.5752490023218D-02
52  5.1000000000000D-01  1.1368218226030D+00  4.1822311666787D-02
53  5.2000000000000D-01  1.0857096385796D+00  4.4536137771564D-02
54  5.3000000000000D-01  1.0338926296864D+00  5.4681410780739D-02
55  5.4000000000000D-01  9.8158790630216D-01  7.2905614245679D-02
56  5.5000000000000D-01  9.2900361403829D-01  9.9699684004717D-02
57  5.6000000000000D-01  8.7633744278834D-01  1.3538413053933D-01
58  5.7000000000000D-01  8.2377532030815D-01  1.8009816173848D-01
59  5.8000000000000D-01  7.7149030737856D-01  2.3379204351484D-01
60  5.9000000000000D-01  7.1964170823186D-01  2.9622287962810D-01
61  6.0000000000000D-01  6.6837440627936D-01  3.6695393168222D-01
62  6.1000000000000D-01  6.1781843139288D-01  4.4535753779175D-01
63  6.2000000000000D-01  5.6808876105633D-01  5.3062162368063D-01
64  6.3000000000000D-01  5.1928535375485D-01  6.2175973531219D-01
65  6.4000000000000D-01  4.7149340902719D-01  7.1762445787818D-01
66  6.5000000000000D-01  4.2478384475466D-01  8.1692402348297D-01
67  6.6000000000000D-01  3.7921397859037D-01  9.1824185066834D-01
68  6.7000000000000D-01  3.3482839696420D-01  1.0200587033866D+00
69  6.8000000000000D-01  2.9165999193416D-01  1.1207771067890D+00
70  6.9000000000000D-01  2.4973114333242D-01  1.2187476129410D+00
71  7.0000000000000D-01  2.0905502123185D-01  1.3122964721936D+00
72  7.1000000000000D-01  1.6963698176569D-01  1.3997542359743D+00
73  7.2000000000000D-01  1.3147602783418D-01  1.4794847952051D+00
74  7.3000000000000D-01  9.4566305229619D-02  1.5499143454770D+00
75  7.4000000000000D-01  5.8898604239077D-02  1.6095597660134D+00
76  7.5000000000000D-01  2.4461836847111D-02  1.6570559044089D+00
77  7.6000000000000D-01 -8.7555397345497D-03  1.6911812732307D+00
78  7.7000000000000D-01 -4.0764181351927D-02  1.7108816874865D+00
79  7.8000000000000D-01 -7.1572623505654D-02  1.7152914034881D+00
80  7.9000000000000D-01 -1.0118618062855D-01  1.7037513592275D+00
81  8.0000000000000D-01 -1.2960599983604D-01  1.6758241634030D+00
82  8.1000000000000D-01 -1.5682828796067D-01  1.6313055339224D+00
83  8.2000000000000D-01 -1.8284372734942D-01  1.5702319461554D+00
84  8.3000000000000D-01 -2.0763709227566D-01  1.4928843154089D+00
85  8.4000000000000D-01 -2.3118707396076D-01  1.3997876059588D+00
86  8.5000000000000D-01 -2.5346631818421D-01  1.2917063292767D+00
87  8.6000000000000D-01 -2.7444167535364D-01  1.1696359656633D+00
88  8.7000000000000D-01 -2.9407465877874D-01  1.0347904151420D+00
89  8.8000000000000D-01 -3.1232210283818D-01  8.8858565358150D-01
90  8.9000000000000D-01 -3.2913700878820D-01  7.3261983791116D-01
91  9.0000000000000D-01 -3.4446956223914D-01  5.6865016819054D-01
92  9.1000000000000D-01 -3.5826830287126D-01  3.9856687337481D-01
93  9.2000000000000D-01 -3.7048142384459D-01  2.2436474067430D-01
94  9.3000000000000D-01 -3.8105817563652D-01  4.8112654475720D-02
95  9.4000000000000D-01 -3.8995034676745D-01 -1.2807835099002D-01
96  9.5000000000000D-01 -3.9711379209230D-01 -3.0208799141450D-01
97  9.6000000000000D-01 -4.0250997807963D-01 -4.7182003033090D-01
98  9.7000000000000D-01 -4.0610751379696D-01 -6.3523541003412D-01
99  9.8000000000000D-01 -4.0788363618224D-01 -7.9038464926692D-01
100  9.9000000000000D-01 -4.0782561863625D-01 -9.3543895061304D-01
101  1.0000000000000D+00 -4.0593207297016D-01 -1.0687194790956D+00
102  1.0100000000000D+00 -4.0221411628601D-01 -1.1887243014125D+00
103  1.0200000000000D+00 -3.9669637651835D-01 -1.2941525136346D+00
104  1.0300000000000D+00 -3.8941781291797D-01 -1.3839251304364D+00
105  1.0400000000000D+00 -3.8043233080947D-01 -1.4572023627427D+00
106  1.0500000000000D+00 -3.6980917347316D-01 -1.5133969724912D+00
107  1.0600000000000D+00 -3.5763307770148D-01 -1.5521834580597D+00
108  1.0700000000000D+00 -3.4400418361308D-01 -1.5735028944420D+00
109  1.0800000000000D+00 -3.2903769378869D-01 -1.5775633304844D+00
110  1.0900000000000D+00 -3.1286328096062D-01 -1.5648357181618D+00
111  1.1000000000000D+00 -2.9562424824184D-01 -1.5360454316818D+00
112  1.1100000000000D+00 -2.7747644983353D-01 -1.4921595030044D+00
113  1.1200000000000D+00 -2.5858698492490D-01 -1.4343697834228D+00
114  1.1300000000000D+00 -2.3913268149948D-01 -1.3640723103957D+00
115  1.1400000000000D+00 -2.1929839069273D-01 -1.2828432271611D+00
116  1.1500000000000D+00 -1.9927511563388D-01 -1.1924116598264D+00
117  1.1600000000000D+00 -1.7925800212124D-01 -1.0946300160402D+00
118  1.1700000000000D+00 -1.5944422129068D-01 -9.9144221828301D-01
119  1.1800000000000D+00 -1.4003077642614D-01 -8.8485041955555D-01
120  1.1900000000000D+00 -1.2121226756304D-01 -7.7688077548245D-01
121  1.2000000000000D+00 -1.0317864918382D-01 -6.6954887581685D-01
122  1.2100000000000D+00 -8.6113016322341D-02 -5.6482543904426D-01
123  1.2200000000000D+00 -7.0189454176700D-02 -4.6460287049132D-01
124  1.2300000000000D+00 -5.5570986352112D-02 -3.7066328508110D-01
125  1.2400000000000D+00 -4.2407654791324D-02 -2.8464856098894D-01
126  1.2500000000000D+00 -3.0834762038332D-02 -2.0803294935597D-01
127  1.2600000000000D+00 -2.0971306401993D-02 -1.4209876403681D-01
128  1.2700000000000D+00 -1.2923496413910D-02 -8.7949169360010D-02
129  1.2800000000000D+00 -6.7340449808108D-03 -4.6143748158491D-02
130  1.2900000000000D+00 -2.5524930484749D-03 -1.7891915798982D-02
131  1.3000000000000D+00 -4.7130913052160D-04 -3.9118789536517D-03
132  1.3100000000000D+00  1.1100451167903D-04  2.2886016986768D-04
133  1.3200000000000D+00  2.5827140727708D-05  1.1599835359413D-04
134  1.3300000000000D+00 -3.6706885614667D-05 -1.7912781137687D-04
135  1.3400000000000D+00  3.7088190268502D-06  1.5880095388420D-05
136  1.3500000000000D+00  4.1061138455450D-06  1.8378820630378D-05
137  1.3600000000000D+00 -7.8899658929178D-11  1.8681719562388D-06
138  1.3700000000000D+00  0.0000000000000D+00  0.0000000000000D+00
139  1.3800000000000D+00  0.0000000000000D+00  0.0000000000000D+00
140  1.3900000000000D+00  0.0000000000000D+00  0.0000000000000D+00
141  1.4000000000000D+00  0.0000000000000D+00  0.0000000000000D+00
142  1.4100000000000D+00  0.0000000000000D+00  0.0000000000000D+00
143  1.4200000000000D+00  0.0000000000000D+00  0.0000000000000D+00
144  1.4300000000000D+00  0.0000000000000D+00  0.0000000000000D+00
145  1.4400000000000D+00  0.0000000000000D+00  0.0000000000000D+00
146  1.4500000000000D+00  0.0000000000000D+00  0.0000000000000D+00
147  1.4600000000000D+00  0.0000000000000D+00  0.0000000000000D+00
148  1.4700000000000D+00  0.0000000000000D+00  0.0000000000000D+00
149  1.4800000000000D+00  0.0000000000000D+00  0.0000000000000D+00
150  1.4900000000000D+00  0.0000000000000D+00  0.0000000000000D+00
151  1.5000000000000D+00  0.0000000000000D+00  0.0000000000000D+00
152  1.5100000000000D+00  0.0000000000000D+00  0.0000000000000D+00
153  1.5200000000000D+00  0.0000000000000D+00  0.0000000000000D+00
154  1.5300000000000D+00  0.0000000000000D+00  0.0000000000000D+00
155  1.5400000000000D+00  0.0000000000000D+00  0.0000000000000D+00
156  1.5500000000000D+00  0.0000000000000D+00  0.0000000000000D+00
157  1.5600000000000D+00  0.0000000000000D+00  0.0000000000000D+00
158  1.5700000000000D+00  0.0000000000000D+00  0.0000000000000D+00
159  1.5800000000000D+00  0.0000000000000D+00  0.0000000000000D+00
160  1.5900000000000D+00  0.0000000000000D+00  0.0000000000000D+00
161  1.6000000000000D+00  0.0000000000000D+00  0.0000000000000D+00
162  1.6100000000000D+00  0.0000000000000D+00  0.0000000000000D+00
163  1.6200000000000D+00  0.0000000000000D+00  0.0000000000000D+00
164  1.6300000000000D+00  0.0000000000000D+00  0.0000000000000D+00
165  1.6400000000000D+00  0.0000000000000D+00  0.0000000000000D+00
166  1.6500000000000D+00  0.0000000000000D+00  0.0000000000000D+00
167  1.6600000000000D+00  0.0000000000000D+00  0.0000000000000D+00
168  1.6700000000000D+00  0.0000000000000D+00  0.0000000000000D+00
169  1.6800000000000D+00  0.0000000000000D+00  0.0000000000000D+00
170  1.6900000000000D+00  0.0000000000000D+00  0.0000000000000D+00
171  1.7000000000000D+00  0.0000000000000D+00  0.0000000000000D+00
172  1.7100000000000D+00  0.0000000000000D+00  0.0000000000000D+00
173  1.7200000000000D+00  0.0000000000000D+00  0.0000000000000D+00
174  1.7300000000000D+00  0.0000000000000D+00  0.0000000000000D+00
175  1.7400000000000D+00  0.0000000000000D+00  0.0000000000000D+00
176  1.7500000000000D+00  0.0000000000000D+00  0.0000000000000D+00
177  1.7600000000000D+00  0.0000000000000D+00  0.0000000000000D+00
178  1.7700000000000D+00  0.0000000000000D+00  0.0000000000000D+00
179  1.7800000000000D+00  0.0000000000000D+00  0.0000000000000D+00
180  1.7900000000000D+00  0.0000000000000D+00  0.0000000000000D+00
181  1.8000000000000D+00  0.0000000000000D+00  0.0000000000000D+00
182  1.8100000000000D+00  0.0000000000000D+00  0.0000000000000D+00
183  1.8200000000000D+00  0.0000000000000D+00  0.0000000000000D+00
184  1.8300000000000D+00  0.0000000000000D+00  0.0000000000000D+00
185  1.8400000000000D+00  0.0000000000000D+00  0.0000000000000D+00
186  1.8500000000000D+00  0.0000000000000D+00  0.0000000000000D+00
187  1.8600000000000D+00  0.0000000000000D+00  0.0000000000000D+00
188  1.8700000000000D+00  0.0000000000000D+00  0.0000000000000D+00
189  1.8800000000000D+00  0.0000000000000D+00  0.0000000000000D+00
190  1.8900000000000D+00  0.0000000000000D+00  0.0000000000000D+00
191  1.9000000000000D+00  0.0000000000000D+00  0.0000000000000D+00
192  1.9100000000000D+00  0.0000000000000D+00  0.0000000000000D+00
193  1.9200000000000D+00  0.0000000000000D+00  0.0000000000000D+00
194  1.9300000000000D+00  0.0000000000000D+00  0.0000000000000D+00
195  1.9400000000000D+00  0.0000000000000D+00  0.0000000000000D+00
196  1.9500000000000D+00  0.0000000000000D+00  0.0000000000000D+00
197  1.9600000000000D+00  0.0000000000000D+00  0.0000000000000D+00
198  1.9700000000000D+00  0.0000000000000D+00  0.0000000000000D+00
199  1.9800000000000D+00  0.0000000000000D+00  0.0000000000000D+00
200  1.9900000000000D+00  0.0000000000000D+00  0.0000000000000D+00
201  2.0000000000000D+00  0.0000000000000D+00  0.0000000000000D+00
202  2.0100000000000D+00  0.0000000000000D+00  0.0000000000000D+00
203  2.0200000000000D+00  0.0000000000000D+00  0.0000000000000D+00
204  2.0300000000000D+00  0.0000000000000D+00  0.0000000000000D+00
205  2.0400000000000D+00  0.0000000000000D+00  0.0000000000000D+00
206  2.0500000000000D+00  0.0000000000000D+00  0.0000000000000D+00
207  2.0600000000000D+00  0.0000000000000D+00  0.0000000000000D+00
208  2.0700000000000D+00  0.0000000000000D+00  0.0000000000000D+00
209  2.0800000000000D+00  0.0000000000000D+00  0.0000000000000D+00
210  2.0900000000000D+00  0.0000000000000D+00  0.0000000000000D+00
211  2.1000000000000D+00  0.0000000000000D+00  0.0000000000000D+00
212  2.1100000000000D+00  0.0000000000000D+00  0.0000000000000D+00
213  2.1200000000000D+00  0.0000000000000D+00  0.0000000000000D+00
214  2.1300000000000D+00  0.0000000000000D+00  0.0000000000000D+00
215  2.1400000000000D+00  0.0000000000000D+00  0.0000000000000D+00
216  2.1500000000000D+00  0.0000000000000D+00  0.0000000000000D+00
217  2.1600000000000D+00  0.0000000000000D+00  0.0000000000000D+00
218  2.1700000000000D+00  0.0000000000000D+00  0.0000000000000D+00
219  2.1800000000000D+00  0.0000000000000D+00  0.0000000000000D+00
220  2.1900000000000D+00  0.0000000000000D+00  0.0000000000000D+00
221  2.2000000000000D+00  0.0000000000000D+00  0.0000000000000D+00
222  2.2100000000000D+00  0.0000000000000D+00  0.0000000000000D+00
223  2.2200000000000D+00  0.0000000000000D+00  0.0000000000000D+00
224  2.2300000000000D+00  0.0000000000000D+00  0.0000000000000D+00
225  2.2400000000000D+00  0.0000000000000D+00  0.0000000000000D+00
226  2.2500000000000D+00  0.0000000000000D+00  0.0000000000000D+00
227  2.2600000000000D+00  0.0000000000000D+00  0.0000000000000D+00
228  2.2700000000000D+00  0.0000000000000D+00  0.0000000000000D+00
229  2.2800000000000D+00  0.0000000000000D+00  0.0000000000000D+00
230  2.2900000000000D+00  0.0000000000000D+00  0.0000000000000D+00
231  2.3000000000000D+00  0.0000000000000D+00  0.0000000000000D+00
232  2.3100000000000D+00  0.0000000000000D+00  0.0000000000000D+00
233  2.3200000000000D+00  0.0000000000000D+00  0.0000000000000D+00
234  2.3300000000000D+00  0.0000000000000D+00  0.0000000000000D+00
235  2.3400000000000D+00  0.0000000000000D+00  0.0000000000000D+00
236  2.3500000000000D+00  0.0000000000000D+00  0.0000000000000D+00
237  2.3600000000000D+00  0.0000000000000D+00  0.0000000000000D+00
238  2.3700000000000D+00  0.0000000000000D+00  0.0000000000000D+00
239  2.3800000000000D+00  0.0000000000000D+00  0.0000000000000D+00
240  2.3900000000000D+00  0.0000000000000D+00  0.0000000000000D+00
241  2.4000000000000D+00  0.0000000000000D+00  0.0000000000000D+00
242  2.4100000000000D+00  0.0000000000000D+00  0.0000000000000D+00
243  2.4200000000000D+00  0.0000000000000D+00  0.0000000000000D+00
244  2.4300000000000D+00  0.0000000000000D+00  0.0000000000000D+00
245  2.4400000000000D+00  0.0000000000000D+00  0.0000000000000D+00
246  2.4500000000000D+00  0.0000000000000D+00  0.0000000000000D+00
247  2.4600000000000D+00  0.0000000000000D+00  0.0000000000000D+00
248  2.4700000000000D+00  0.0000000000000D+00  0.0000000000000D+00
249  2.4800000000000D+00  0.0000000000000D+00  0.0000000000000D+00
250  2.4900000000000D+00  0.0000000000000D+00  0.0000000000000D+00
251  2.5000000000000D+00  0.0000000000000D+00  0.0000000000000D+00
252  2.5100000000000D+00  0.0000000000000D+00  0.0000000000000D+00
253  2.5200000000000D+00  0.0000000000000D+00  0.0000000000000D+00
254  2.5300000000000D+00  0.0000000000000D+00  0.0000000000000D+00
255  2.5400000000000D+00  0.0000000000000D+00  0.0000000000000D+00
256  2.5500000000000D+00  0.0000000000000D+00  0.0000000000000D+00
257  2.5600000000000D+00  0.0000000000000D+00  0.0000000000000D+00
258  2.5700000000000D+00  0.0000000000000D+00  0.0000000000000D+00
259  2.5800000000000D+00  0.0000000000000D+00  0.0000000000000D+00
260  2.5900000000000D+00  0.0000000000000D+00  0.0000000000000D+00
261  2.6000000000000D+00  0.0000000000000D+00  0.0000000000000D+00
262  2.6100000000000D+00  0.0000000000000D+00  0.0000000000000D+00
263  2.6200000000000D+00  0.0000000000000D+00  0.0000000000000D+00
264  2.6300000000000D+00  0.0000000000000D+00  0.0000000000000D+00
265  2.6400000000000D+00  0.0000000000000D+00  0.0000000000000D+00
266  2.6500000000000D+00  0.0000000000000D+00  0.0000000000000D+00
267  2.6600000000000D+00  0.0000000000000D+00  0.0000000000000D+00
268  2.6700000000000D+00  0.0000000000000D+00  0.0000000000000D+00
269  2.6800000000000D+00  0.0000000000000D+00  0.0000000000000D+00
270  2.6900000000000D+00  0.0000000000000D+00  0.0000000000000D+00
271  2.7000000000000D+00  0.0000000000000D+00  0.0000000000000D+00
272  2.7100000000000D+00  0.0000000000000D+00  0.0000000000000D+00
273  2.7200000000000D+00  0.0000000000000D+00  0.0000000000000D+00
274  2.7300000000000D+00  0.0000000000000D+00  0.0000000000000D+00
275  2.7400000000000D+00  0.0000000000000D+00  0.0000000000000D+00
276  2.7500000000000D+00  0.0000000000000D+00  0.0000000000000D+00
277  2.7600000000000D+00  0.0000000000000D+00  0.0000000000000D+00
278  2.7700000000000D+00  0.0000000000000D+00  0.0000000000000D+00
279  2.7800000000000D+00  0.0000000000000D+00  0.0000000000000D+00
280  2.7900000000000D+00  0.0000000000000D+00  0.0000000000000D+00
281  2.8000000000000D+00  0.0000000000000D+00  0.0000000000000D+00
282  2.8100000000000D+00  0.0000000000000D+00  0.0000000000000D+00
283  2.8200000000000D+00  0.0000000000000D+00  0.0000000000000D+00
284  2.8300000000000D+00  0.0000000000000D+00  0.0000000000000D+00
285  2.8400000000000D+00  0.0000000000000D+00  0.0000000000000D+00
286  2.8500000000000D+00  0.0000000000000D+00  0.0000000000000D+00
287  2.8600000000000D+00  0.0000000000000D+00  0.0000000000000D+00
288  2.8700000000000D+00  0.0000000000000D+00  0.0000000000000D+00
289  2.8800000000000D+00  0.0000000000000D+00  0.0000000000000D+00
290  2.8900000000000D+00  0.0000000000000D+00  0.0000000000000D+00
291  2.9000000000000D+00  0.0000000000000D+00  0.0000000000000D+00
292  2.9100000000000D+00  0.0000000000000D+00  0.0000000000000D+00
293  2.9200000000000D+00  0.0000000000000D+00  0.0000000000000D+00
294  2.9300000000000D+00  0.0000000000000D+00  0.0000000000000D+00
295  2.9400000000000D+00  0.0000000000000D+00  0.0000000000000D+00
296  2.9500000000000D+00  0.0000000000000D+00  0.0000000000000D+00
297  2.9600000000000D+00  0.0000000000000D+00  0.0000000000000D+00
298  2.9700000000000D+00  0.0000000000000D+00  0.0000000000000D+00
299  2.9800000000000D+00  0.0000000000000D+00  0.0000000000000D+00
300  2.9900000000000D+00  0.0000000000000D+00  0.0000000000000D+00
301  3.0000000000000D+00  0.0000000000000D+00  0.0000000000000D+00
302  3.0100000000000D+00  0.0000000000000D+00  0.0000000000000D+00
303  3.0200000000000D+00  0.0000000000000D+00  0.0000000000000D+00
304  3.0300000000000D+00  0.0000000000000D+00  0.0000000000000D+00
305  3.0400000000000D+00  0.0000000000000D+00  0.0000000000000D+00
306  3.0500000000000D+00  0.0000000000000D+00  0.0000000000000D+00
307  3.0600000000000D+00  0.0000000000000D+00  0.0000000000000D+00
308  3.0700000000000D+00  0.0000000000000D+00  0.0000000000000D+00
309  3.0800000000000D+00  0.0000000000000D+00  0.0000000000000D+00
310  3.0900000000000D+00  0.0000000000000D+00  0.0000000000000D+00
311  3.1000000000000D+00  0.0000000000000D+00  0.0000000000000D+00
312  3.1100000000000D+00  0.0000000000000D+00  0.0000000000000D+00
313  3.1200000000000D+00  0.0000000000000D+00  0.0000000000000D+00
314  3.1300000000000D+00  0.0000000000000D+00  0.0000000000000D+00
315  3.1400000000000D+00  0.0000000000000D+00  0.0000000000000D+00
316  3.1500000000000D+00  0.0000000000000D+00  0.0000000000000D+00
317  3.1600000000000D+00  0.0000000000000D+00  0.0000000000000D+00
318  3.1700000000000D+00  0.0000000000000D+00  0.0000000000000D+00
319  3.1800000000000D+00  0.0000000000000D+00  0.0000000000000D+00
320  3.1900000000000D+00  0.0000000000000D+00  0.0000000000000D+00
321  3.2000000000000D+00  0.0000000000000D+00  0.0000000000000D+00
322  3.2100000000000D+00  0.0000000000000D+00  0.0000000000000D+00
323  3.2200000000000D+00  0.0000000000000D+00  0.0000000000000D+00
324  3.2300000000000D+00  0.0000000000000D+00  0.0000000000000D+00
325  3.2400000000000D+00  0.0000000000000D+00  0.0000000000000D+00
326  3.2500000000000D+00  0.0000000000000D+00  0.0000000000000D+00
327  3.2600000000000D+00  0.0000000000000D+00  0.0000000000000D+00
328  3.2700000000000D+00  0.0000000000000D+00  0.0000000000000D+00
329  3.2800000000000D+00  0.0000000000000D+00  0.0000000000000D+00
330  3.2900000000000D+00  0.0000000000000D+00  0.0000000000000D+00
331  3.3000000000000D+00  0.0000000000000D+00  0.0000000000000D+00
332  3.3100000000000D+00  0.0000000000000D+00  0.0000000000000D+00
333  3.3200000000000D+00  0.0000000000000D+00  0.0000000000000D+00
334  3.3300000000000D+00  0.0000000000000D+00  0.0000000000000D+00
335  3.3400000000000D+00  0.0000000000000D+00  0.0000000000000D+00
336  3.3500000000000D+00  0.0000000000000D+00  0.0000000000000D+00
337  3.3600000000000D+00  0.0000000000000D+00  0.0000000000000D+00
338  3.3700000000000D+00  0.0000000000000D+00  0.0000000000000D+00
339  3.3800000000000D+00  0.0000000000000D+00  0.0000000000000D+00
340  3.3900000000000D+00  0.0000000000000D+00  0.0000000000000D+00
341  3.4000000000000D+00  0.0000000000000D+00  0.0000000000000D+00
342  3.4100000000000D+00  0.0000000000000D+00  0.0000000000000D+00
343  3.4200000000000D+00  0.0000000000000D+00  0.0000000000000D+00
344  3.4300000000000D+00  0.0000000000000D+00  0.0000000000000D+00
345  3.4400000000000D+00  0.0000000000000D+00  0.0000000000000D+00
346  3.4500000000000D+00  0.0000000000000D+00  0.0000000000000D+00
347  3.4600000000000D+00  0.0000000000000D+00  0.0000000000000D+00
348  3.4700000000000D+00  0.0000000000000D+00  0.0000000000000D+00
349  3.4800000000000D+00  0.0000000000000D+00  0.0000000000000D+00
350  3.4900000000000D+00  0.0000000000000D+00  0.0000000000000D+00
351  3.5000000000000D+00  0.0000000000000D+00  0.0000000000000D+00
352  3.5100000000000D+00  0.0000000000000D+00  0.0000000000000D+00
353  3.5200000000000D+00  0.0000000000000D+00  0.0000000000000D+00
354  3.5300000000000D+00  0.0000000000000D+00  0.0000000000000D+00
355  3.5400000000000D+00  0.0000000000000D+00  0.0000000000000D+00
356  3.5500000000000D+00  0.0000000000000D+00  0.0000000000000D+00
357  3.5600000000000D+00  0.0000000000000D+00  0.0000000000000D+00
358  3.5700000000000D+00  0.0000000000000D+00  0.0000000000000D+00
359  3.5800000000000D+00  0.0000000000000D+00  0.0000000000000D+00
360  3.5900000000000D+00  0.0000000000000D+00  0.0000000000000D+00
361  3.6000000000000D+00  0.0000000000000D+00  0.0000000000000D+00
362  3.6100000000000D+00  0.0000000000000D+00  0.0000000000000D+00
363  3.6200000000000D+00  0.0000000000000D+00  0.0000000000000D+00
364  3.6300000000000D+00  0.0000000000000D+00  0.0000000000000D+00
365  3.6400000000000D+00  0.0000000000000D+00  0.0000000000000D+00
366  3.6500000000000D+00  0.0000000000000D+00  0.0000000000000D+00
367  3.6600000000000D+00  0.0000000000000D+00  0.0000000000000D+00
368  3.6700000000000D+00  0.0000000000000D+00  0.0000000000000D+00
369  3.6800000000000D+00  0.0000000000000D+00  0.0000000000000D+00
370  3.6900000000000D+00  0.0000000000000D+00  0.0000000000000D+00
371  3.7000000000000D+00  0.0000000000000D+00  0.0000000000000D+00
372  3.7100000000000D+00  0.0000000000000D+00  0.0000000000000D+00
373  3.7200000000000D+00  0.0000000000000D+00  0.0000000000000D+00
374  3.7300000000000D+00  0.0000000000000D+00  0.0000000000000D+00
375  3.7400000000000D+00  0.0000000000000D+00  0.0000000000000D+00
376  3.7500000000000D+00  0.0000000000000D+00  0.0000000000000D+00
377  3.7600000000000D+00  0.0000000000000D+00  0.0000000000000D+00
378  3.7700000000000D+00  0.0000000000000D+00  0.0000000000000D+00
379  3.7800000000000D+00  0.0000000000000D+00  0.0000000000000D+00
380  3.7900000000000D+00  0.0000000000000D+00  0.0000000000000D+00
381  3.8000000000000D+00  0.0000000000000D+00  0.0000000000000D+00
382  3.8100000000000D+00  0.0000000000000D+00  0.0000000000000D+00
383  3.8200000000000D+00  0.0000000000000D+00  0.0000000000000D+00
384  3.8300000000000D+00  0.0000000000000D+00  0.0000000000000D+00
385  3.8400000000000D+00  0.0000000000000D+00  0.0000000000000D+00
386  3.8500000000000D+00  0.0000000000000D+00  0.0000000000000D+00
387  3.8600000000000D+00  0.0000000000000D+00  0.0000000000000D+00
388  3.8700000000000D+00  0.0000000000000D+00  0.0000000000000D+00
389  3.8800000000000D+00  0.0000000000000D+00  0.0000000000000D+00
390  3.8900000000000D+00  0.0000000000000D+00  0.0000000000000D+00
391  3.9000000000000D+00  0.0000000000000D+00  0.0000000000000D+00
392  3.9100000000000D+00  0.0000000000000D+00  0.0000000000000D+00
393  3.9200000000000D+00  0.0000000000000D+00  0.0000000000000D+00
394  3.9300000000000D+00  0.0000000000000D+00  0.0000000000000D+00
395  3.9400000000000D+00  0.0000000000000D+00  0.0000000000000D+00
396  3.9500000000000D+00  0.0000000000000D+00  0.0000000000000D+00
397  3.9600000000000D+00  0.0000000000000D+00  0.0000000000000D+00
398  3.9700000000000D+00  0.0000000000000D+00  0.0000000000000D+00
399  3.9800000000000D+00  0.0000000000000D+00  0.0000000000000D+00
400  3.9900000000000D+00  0.0000000000000D+00  0.0000000000000D+00
401  4.0000000000000D+00  0.0000000000000D+00  0.0000000000000D+00
402  4.0100000000000D+00  0.0000000000000D+00  0.0000000000000D+00
403  4.0200000000000D+00  0.0000000000000D+00  0.0000000000000D+00
404  4.0300000000000D+00  0.0000000000000D+00  0.0000000000000D+00
405  4.0400000000000D+00  0.0000000000000D+00  0.0000000000000D+00
406  4.0500000000000D+00  0.0000000000000D+00  0.0000000000000D+00
407  4.0600000000000D+00  0.0000000000000D+00  0.0000000000000D+00
408  4.0700000000000D+00  0.0000000000000D+00  0.0000000000000D+00
409  4.0800000000000D+00  0.0000000000000D+00  0.0000000000000D+00
410  4.0900000000000D+00  0.0000000000000D+00  0.0000000000000D+00
411  4.1000000000000D+00  0.0000000000000D+00  0.0000000000000D+00
412  4.1100000000000D+00  0.0000000000000D+00  0.0000000000000D+00
413  4.1200000000000D+00  0.0000000000000D+00  0.0000000000000D+00
414  4.1300000000000D+00  0.0000000000000D+00  0.0000000000000D+00
415  4.1400000000000D+00  0.0000000000000D+00  0.0000000000000D+00
416  4.1500000000000D+00  0.0000000000000D+00  0.0000000000000D+00
417  4.1600000000000D+00  0.0000000000000D+00  0.0000000000000D+00
418  4.1700000000000D+00  0.0000000000000D+00  0.0000000000000D+00
419  4.1800000000000D+00  0.0000000000000D+00  0.0000000000000D+00
420  4.1900000000000D+00  0.0000000000000D+00  0.0000000000000D+00
421  4.2000000000000D+00  0.0000000000000D+00  0.0000000000000D+00
422  4.2100000000000D+00  0.0000000000000D+00  0.0000000000000D+00
423  4.2200000000000D+00  0.0000000000000D+00  0.0000000000000D+00
424  4.2300000000000D+00  0.0000000000000D+00  0.0000000000000D+00
425  4.2400000000000D+00  0.0000000000000D+00  0.0000000000000D+00
426  4.2500000000000D+00  0.0000000000000D+00  0.0000000000000D+00
427  4.2600000000000D+00  0.0000000000000D+00  0.0000000000000D+00
428  4.2700000000000D+00  0.0000000000000D+00  0.0000000000000D+00
429  4.2800000000000D+00  0.0000000000000D+00  0.0000000000000D+00
430  4.2900000000000D+00  0.0000000000000D+00  0.0000000000000D+00
431  4.3000000000000D+00  0.0000000000000D+00  0.0000000000000D+00
432  4.3100000000000D+00  0.0000000000000D+00  0.0000000000000D+00
433  4.3200000000000D+00  0.0000000000000D+00  0.0000000000000D+00
434  4.3300000000000D+00  0.0000000000000D+00  0.0000000000000D+00
435  4.3400000000000D+00  0.0000000000000D+00  0.0000000000000D+00
436  4.3500000000000D+00  0.0000000000000D+00  0.0000000000000D+00
437  4.3600000000000D+00  0.0000000000000D+00  0.0000000000000D+00
438  4.3700000000000D+00  0.0000000000000D+00  0.0000000000000D+00
439  4.3800000000000D+00  0.0000000000000D+00  0.0000000000000D+00
440  4.3900000000000D+00  0.0000000000000D+00  0.0000000000000D+00
441  4.4000000000000D+00  0.0000000000000D+00  0.0000000000000D+00
442  4.4100000000000D+00  0.0000000000000D+00  0.0000000000000D+00
443  4.4200000000000D+00  0.0000000000000D+00  0.0000000000000D+00
444  4.4300000000000D+00  0.0000000000000D+00  0.0000000000000D+00