V     ONCVPSP  r_core=  1.31  1.25  1.67
23.0000     13.0000      140903    zatom,zion,pspd
8    11     2     4   601     0    pspcod,pspxc,lmax,lloc,mmax,r2well
6.00000000  0.25000000  0.00000000    rchrg fchrg qchrg
2     2     2     0     0    nproj
0                 extension_switch
0                         1.3457892006008D+01  1.6694713009483D+00
1  0.0000000000000D+00 -0.0000000000000D+00  0.0000000000000D+00
2  1.0000000000000D-02 -8.8044258229356D-02  1.5623403151993D-02
3  2.0000000000000D-02 -1.7589064940072D-01  3.1210178115204D-02
4  3.0000000000000D-02 -2.6334121062340D-01  4.6722194827054D-02
5  4.0000000000000D-02 -3.5019779743623D-01  6.2118347680878D-02
6  5.0000000000000D-02 -4.3626201810796D-01  7.7353137887878D-02
7  6.0000000000000D-02 -5.2133519761705D-01  9.2375338956966D-02
8  7.0000000000000D-02 -6.0521838050387D-01  1.0712677126725D-01
9  8.0000000000000D-02 -6.8771238119875D-01  1.2154121026441D-01
10  9.0000000000000D-02 -7.6861788970727D-01  1.3554345100064D-01
11  1.0000000000000D-01 -8.4773563968267D-01  1.4904854968280D-01
12  1.1000000000000D-01 -9.2486664495164D-01  1.6196126046070D-01
13  1.2000000000000D-01 -9.9981250949443D-01  1.7417568306259D-01
14  1.3000000000000D-01 -1.0723758147574D+00  1.8557513401458D-01
15  1.4000000000000D-01 -1.1423605867595D+00  1.9603225116914D-01
16  1.5000000000000D-01 -1.2095728446389D+00  2.0540933789024D-01
17  1.6000000000000D-01 -1.2738212299991D+00  2.1355894997360D-01
18  1.7000000000000D-01 -1.3349177166474D+00  2.2032472533838D-01
19  1.8000000000000D-01 -1.3926783966643D+00  2.2554245200686D-01
20  1.9000000000000D-01 -1.4469243397840D+00  2.2904136781291D-01
21  2.0000000000000D-01 -1.4974825198471D+00  2.3064568061142D-01
22  2.1000000000000D-01 -1.5441868019603D+00  2.3017629551716D-01
23  2.2000000000000D-01 -1.5868789823871D+00  2.2745273224485D-01
24  2.3000000000000D-01 -1.6254098703271D+00  2.2229520965235D-01
25  2.4000000000000D-01 -1.6596404041447D+00  2.1452687912526D-01
26  2.5000000000000D-01 -1.6894427896918D+00  2.0397618012617D-01
27  2.6000000000000D-01 -1.7147016433002D+00  1.9047927951686D-01
28  2.7000000000000D-01 -1.7353151373815D+00  1.7388258531983D-01
29  2.8000000000000D-01 -1.7511961268909D+00  1.5404528832712D-01
30  2.9000000000000D-01 -1.7622732417948D+00  1.3084189593685D-01
31  3.0000000000000D-01 -1.7684919381634D+00  1.0416473843969D-01
32  3.1000000000000D-01 -1.7698154858718D+00  7.3926397431880D-02
33  3.2000000000000D-01 -1.7662258875811D+00  4.0062041156771D-02
34  3.3000000000000D-01 -1.7577247136091D+00  2.5316314871514D-03
35  3.4000000000000D-01 -1.7443338102396D+00 -3.8678100063055D-02
36  3.5000000000000D-01 -1.7260959429745D+00 -8.3551763320701D-02
37  3.6000000000000D-01 -1.7030752479812D+00 -1.3204381179556D-01
38  3.7000000000000D-01 -1.6753576232925D+00 -1.8407711591763D-01
39  3.8000000000000D-01 -1.6430508994126D+00 -2.3954200741929D-01
40  3.9000000000000D-01 -1.6062848948156D+00 -2.9829553374554D-01
41  4.0000000000000D-01 -1.5652113111493D+00 -3.6016102711627D-01
42  4.1000000000000D-01 -1.5200034376971D+00 -4.2492808123766D-01
43  4.2000000000000D-01 -1.4708556926063D+00 -4.9235286131292D-01
44  4.3000000000000D-01 -1.4179829896483D+00 -5.6215877678317D-01
45  4.4000000000000D-01 -1.3616199264060D+00 -6.3403753300744D-01
46  4.5000000000000D-01 -1.3020197968194D+00 -7.0765055744775D-01
47  4.6000000000000D-01 -1.2394534337579D+00 -7.8263079451232D-01
48  4.7000000000000D-01 -1.1742078905457D+00 -8.5858485045637D-01
49  4.8000000000000D-01 -1.1065849296547D+00 -9.3509552250254D-01
50  4.9000000000000D-01 -1.0368993975592D+00 -1.0117246355480D+00
51  5.0000000000000D-01 -9.6547745315820D-01 -1.0880161753545D+00
52  5.1000000000000D-01 -8.9265470742677D-01 -1.1634996434674D+00
53  5.2000000000000D-01 -8.1877403237129D-01 -1.2376940031672D+00
54  5.3000000000000D-01 -7.4418364933716D-01 -1.3101112805386D+00
55  5.4000000000000D-01 -6.6923484073488D-01 -1.3802607781066D+00
56  5.5000000000000D-01 -5.9427953159994D-01 -1.4476535861240D+00
57  5.6000000000000D-01 -5.1966840411399D-01 -1.5118062094264D+00
58  5.7000000000000D-01 -4.4574787371440D-01 -1.5722461587122D+00
59  5.8000000000000D-01 -3.7285863423509D-01 -1.6285148489678D+00
60  5.9000000000000D-01 -3.0133235516678D-01 -1.6801737128864D+00
61  6.0000000000000D-01 -2.3149031484144D-01 -1.7268069070606D+00
62  6.1000000000000D-01 -1.6364054402030D-01 -1.7680266317662D+00
63  6.2000000000000D-01 -9.8075772146565D-02 -1.8034770037641D+00
64  6.3000000000000D-01 -3.5072115796196D-02 -1.8328365506252D+00
65  6.4000000000000D-01  2.5114216291178D-02 -1.8558242422960D+00
66  6.5000000000000D-01  8.2247563552828D-02 -1.8722006825250D+00
67  6.6000000000000D-01  1.3611437837787D-01 -1.8817709143379D+00
68  6.7000000000000D-01  1.8652566075674D-01 -1.8843887285613D+00
69  6.8000000000000D-01  2.3331743637965D-01 -1.8799573718911D+00
70  6.9000000000000D-01  2.7635182938883D-01 -1.8684312579639D+00
71  7.0000000000000D-01  3.1551772733275D-01 -1.8498168796735D+00
72  7.1000000000000D-01  3.5073212776046D-01 -1.8241748140079D+00
73  7.2000000000000D-01  3.8193990923008D-01 -1.7916188543330D+00
74  7.3000000000000D-01  4.0911395853240D-01 -1.7523156902607D+00
75  7.4000000000000D-01  4.3225513810213D-01 -1.7064842043055D+00
76  7.5000000000000D-01  4.5139193088757D-01 -1.6543941068445D+00
77  7.6000000000000D-01  4.6657977736890D-01 -1.5963639627428D+00
78  7.7000000000000D-01  4.7790040718392D-01 -1.5327590579224D+00
79  7.8000000000000D-01  4.8546074430848D-01 -1.4639884442115D+00
80  7.9000000000000D-01  4.8939147732068D-01 -1.3905014109250D+00
81  8.0000000000000D-01  4.8984566696098D-01 -1.3127838681812D+00
82  8.1000000000000D-01  4.8699707815035D-01 -1.2313542111680D+00
83  8.2000000000000D-01  4.8103833835425D-01 -1.1467588312568D+00
84  8.3000000000000D-01  4.7217894086815D-01 -1.0595673179440D+00
85  8.4000000000000D-01  4.6064311327390D-01 -9.7036739940883D-01
86  8.5000000000000D-01  4.4666757278225D-01 -8.7975967279752D-01
87  8.6000000000000D-01  4.3049919142976D-01 -7.8835217815926D-01
88  8.7000000000000D-01  4.1239259513290D-01 -6.9675487225746D-01
89  8.8000000000000D-01  3.9260772141171D-01 -6.0557406023458D-01
90  8.9000000000000D-01  3.7140736116983D-01 -5.1540684429757D-01
91  9.0000000000000D-01  3.4905471024068D-01 -4.2683564916668D-01
92  9.1000000000000D-01  3.2581095645725D-01 -3.4042288393367D-01
93  9.2000000000000D-01  3.0193292774277D-01 -2.5670579912373D-01
94  9.3000000000000D-01  2.7767096269894D-01 -1.7619193723986D-01
95  9.4000000000000D-01  2.5326679626455D-01 -9.9354621876653D-02
96  9.5000000000000D-01  2.2895068625979D-01 -2.6626649532066D-02
97  9.6000000000000D-01  2.0494047261836D-01  4.1601191165266D-02
98  9.7000000000000D-01  1.8143955845279D-01  1.0498430226045D-01
99  9.8000000000000D-01  1.5863539069841D-01  1.6322718340758D-01
100  9.9000000000000D-01  1.3669814689679D-01  2.1608581661314D-01
101  1.0000000000000D+00  1.1577963962419D-01  2.6336950555738D-01
102  1.0100000000000D+00  9.6013291351745D-02  3.0494027688713D-01
103  1.0200000000000D+00  7.7511317649076D-02  3.4071853014585D-01
104  1.0300000000000D+00  6.0365333510057D-02  3.7068074043010D-01
105  1.0400000000000D+00  4.4646870582434D-02  3.9485750785281D-01
106  1.0500000000000D+00  3.0407014557229D-02  4.1333350753634D-01
107  1.0600000000000D+00  1.7677125380826D-02  4.2624508275019D-01
108  1.0700000000000D+00  6.4689167547647D-03  4.3377920851127D-01
109  1.0800000000000D+00 -3.2268550742376D-03  4.3617463987223D-01
110  1.0900000000000D+00 -1.1436293767770D-02  4.3371245542769D-01
111  1.1000000000000D+00 -1.8202359864053D-02  4.2671484466194D-01
112  1.1100000000000D+00 -2.3582870744523D-02  4.1554047133400D-01
113  1.1200000000000D+00 -2.7651997712519D-02  4.0058452110495D-01
114  1.1300000000000D+00 -3.0495808208868D-02  3.8226902235383D-01
115  1.1400000000000D+00 -3.2211024303853D-02  3.6103916341195D-01
116  1.1500000000000D+00 -3.2903650779848D-02  3.3736057081752D-01
117  1.1600000000000D+00 -3.2688070276631D-02  3.1171192276662D-01
118  1.1700000000000D+00 -3.1683525743237D-02  2.8457920006419D-01
119  1.1800000000000D+00 -3.0013197320196D-02  2.5645316515201D-01
120  1.1900000000000D+00 -2.7803194760338D-02  2.2782614864166D-01
121  1.2000000000000D+00 -2.5178268592262D-02  1.9917668449370D-01
122  1.2100000000000D+00 -2.2262019859782D-02  1.7097481772036D-01
123  1.2200000000000D+00 -1.9177312082053D-02  1.4368357206086D-01
124  1.2300000000000D+00 -1.6039057023759D-02  1.1773306556270D-01
125  1.2400000000000D+00 -1.2957006105246D-02  9.3533567581559D-02
126  1.2500000000000D+00 -1.0036919177729D-02  7.1479489169982D-02
127  1.2600000000000D+00 -7.3735015947791D-03  5.1924677565641D-02
128  1.2700000000000D+00 -5.0478024766261D-03  3.5177567514152D-02
129  1.2800000000000D+00 -3.1326522809804D-03  2.1518989100555D-02
130  1.2900000000000D+00 -1.6741459095203D-03  1.1143715398659D-02
131  1.3000000000000D+00 -7.0537400483435D-04  4.2245663707619D-03
132  1.3100000000000D+00 -2.6680042177675D-04  1.0165614225857D-03
133  1.3200000000000D+00 -7.6784603849159D-05 -4.1752691397718D-05
134  1.3300000000000D+00 -1.4658152376281D-06 -1.6327424703124D-05
135  1.3400000000000D+00  9.9390354644856D-06 -2.0141301066653D-05
136  1.3500000000000D+00  0.0000000000000D+00  0.0000000000000D+00
137  1.3600000000000D+00  0.0000000000000D+00  0.0000000000000D+00
138  1.3700000000000D+00  0.0000000000000D+00  0.0000000000000D+00
139  1.3800000000000D+00  0.0000000000000D+00  0.0000000000000D+00
140  1.3900000000000D+00  0.0000000000000D+00  0.0000000000000D+00
141  1.4000000000000D+00  0.0000000000000D+00  0.0000000000000D+00
142  1.4100000000000D+00  0.0000000000000D+00  0.0000000000000D+00
143  1.4200000000000D+00  0.0000000000000D+00  0.0000000000000D+00
144  1.4300000000000D+00  0.0000000000000D+00  0.0000000000000D+00
145  1.4400000000000D+00  0.0000000000000D+00  0.0000000000000D+00
146  1.4500000000000D+00  0.0000000000000D+00  0.0000000000000D+00
147  1.4600000000000D+00  0.0000000000000D+00  0.0000000000000D+00
148  1.4700000000000D+00  0.0000000000000D+00  0.0000000000000D+00
149  1.4800000000000D+00  0.0000000000000D+00  0.0000000000000D+00
150  1.4900000000000D+00  0.0000000000000D+00  0.0000000000000D+00
151  1.5000000000000D+00  0.0000000000000D+00  0.0000000000000D+00
152  1.5100000000000D+00  0.0000000000000D+00  0.0000000000000D+00
153  1.5200000000000D+00  0.0000000000000D+00  0.0000000000000D+00
154  1.5300000000000D+00  0.0000000000000D+00  0.0000000000000D+00
155  1.5400000000000D+00  0.0000000000000D+00  0.0000000000000D+00
156  1.5500000000000D+00  0.0000000000000D+00  0.0000000000000D+00
157  1.5600000000000D+00  0.0000000000000D+00  0.0000000000000D+00
158  1.5700000000000D+00  0.0000000000000D+00  0.0000000000000D+00
159  1.5800000000000D+00  0.0000000000000D+00  0.0000000000000D+00
160  1.5900000000000D+00  0.0000000000000D+00  0.0000000000000D+00
161  1.6000000000000D+00  0.0000000000000D+00  0.0000000000000D+00
162  1.6100000000000D+00  0.0000000000000D+00  0.0000000000000D+00
163  1.6200000000000D+00  0.0000000000000D+00  0.0000000000000D+00
164  1.6300000000000D+00  0.0000000000000D+00  0.0000000000000D+00
165  1.6400000000000D+00  0.0000000000000D+00  0.0000000000000D+00
166  1.6500000000000D+00  0.0000000000000D+00  0.0000000000000D+00
167  1.6600000000000D+00  0.0000000000000D+00  0.0000000000000D+00
168  1.6700000000000D+00  0.0000000000000D+00  0.0000000000000D+00
169  1.6800000000000D+00  0.0000000000000D+00  0.0000000000000D+00
170  1.6900000000000D+00  0.0000000000000D+00  0.0000000000000D+00
171  1.7000000000000D+00  0.0000000000000D+00  0.0000000000000D+00
172  1.7100000000000D+00  0.0000000000000D+00  0.0000000000000D+00
173  1.7200000000000D+00  0.0000000000000D+00  0.0000000000000D+00
174  1.7300000000000D+00  0.0000000000000D+00  0.0000000000000D+00
175  1.7400000000000D+00  0.0000000000000D+00  0.0000000000000D+00
176  1.7500000000000D+00  0.0000000000000D+00  0.0000000000000D+00
177  1.7600000000000D+00  0.0000000000000D+00  0.0000000000000D+00
178  1.7700000000000D+00  0.0000000000000D+00  0.0000000000000D+00
179  1.7800000000000D+00  0.0000000000000D+00  0.0000000000000D+00
180  1.7900000000000D+00  0.0000000000000D+00  0.0000000000000D+00
181  1.8000000000000D+00  0.0000000000000D+00  0.0000000000000D+00
182  1.8100000000000D+00  0.0000000000000D+00  0.0000000000000D+00
183  1.8200000000000D+00  0.0000000000000D+00  0.0000000000000D+00
184  1.8300000000000D+00  0.0000000000000D+00  0.0000000000000D+00
185  1.8400000000000D+00  0.0000000000000D+00  0.0000000000000D+00
186  1.8500000000000D+00  0.0000000000000D+00  0.0000000000000D+00
187  1.8600000000000D+00  0.0000000000000D+00  0.0000000000000D+00
188  1.8700000000000D+00  0.0000000000000D+00  0.0000000000000D+00
189  1.8800000000000D+00  0.0000000000000D+00  0.0000000000000D+00
190  1.8900000000000D+00  0.0000000000000D+00  0.0000000000000D+00
191  1.9000000000000D+00  0.0000000000000D+00  0.0000000000000D+00
192  1.9100000000000D+00  0.0000000000000D+00  0.0000000000000D+00
193  1.9200000000000D+00  0.0000000000000D+00  0.0000000000000D+00
194  1.9300000000000D+00  0.0000000000000D+00  0.0000000000000D+00
195  1.9400000000000D+00  0.0000000000000D+00  0.0000000000000D+00
196  1.9500000000000D+00  0.0000000000000D+00  0.0000000000000D+00
197  1.9600000000000D+00  0.0000000000000D+00  0.0000000000000D+00
198  1.9700000000000D+00  0.0000000000000D+00  0.0000000000000D+00
199  1.9800000000000D+00  0.0000000000000D+00  0.0000000000000D+00
200  1.9900000000000D+00  0.0000000000000D+00  0.0000000000000D+00
201  2.0000000000000D+00  0.0000000000000D+00  0.0000000000000D+00
202  2.0100000000000D+00  0.0000000000000D+00  0.0000000000000D+00
203  2.0200000000000D+00  0.0000000000000D+00  0.0000000000000D+00
204  2.0300000000000D+00  0.0000000000000D+00  0.0000000000000D+00
205  2.0400000000000D+00  0.0000000000000D+00  0.0000000000000D+00
206  2.0500000000000D+00  0.0000000000000D+00  0.0000000000000D+00
207  2.0600000000000D+00  0.0000000000000D+00  0.0000000000000D+00
208  2.0700000000000D+00  0.0000000000000D+00  0.0000000000000D+00
209  2.0800000000000D+00  0.0000000000000D+00  0.0000000000000D+00
210  2.0900000000000D+00  0.0000000000000D+00  0.0000000000000D+00
211  2.1000000000000D+00  0.0000000000000D+00  0.0000000000000D+00
212  2.1100000000000D+00  0.0000000000000D+00  0.0000000000000D+00
213  2.1200000000000D+00  0.0000000000000D+00  0.0000000000000D+00
214  2.1300000000000D+00  0.0000000000000D+00  0.0000000000000D+00
215  2.1400000000000D+00  0.0000000000000D+00  0.0000000000000D+00
216  2.1500000000000D+00  0.0000000000000D+00  0.0000000000000D+00
217  2.1600000000000D+00  0.0000000000000D+00  0.0000000000000D+00
218  2.1700000000000D+00  0.0000000000000D+00  0.0000000000000D+00
219  2.1800000000000D+00  0.0000000000000D+00  0.0000000000000D+00
220  2.1900000000000D+00  0.0000000000000D+00  0.0000000000000D+00
221  2.2000000000000D+00  0.0000000000000D+00  0.0000000000000D+00
222  2.2100000000000D+00  0.0000000000000D+00  0.0000000000000D+00
223  2.2200000000000D+00  0.0000000000000D+00  0.0000000000000D+00
224  2.2300000000000D+00  0.0000000000000D+00  0.0000000000000D+00
225  2.2400000000000D+00  0.0000000000000D+00  0.0000000000000D+00
226  2.2500000000000D+00  0.0000000000000D+00  0.0000000000000D+00
227  2.2600000000000D+00  0.0000000000000D+00  0.0000000000000D+00
228  2.2700000000000D+00  0.0000000000000D+00  0.0000000000000D+00
229  2.2800000000000D+00  0.0000000000000D+00  0.0000000000000D+00
230  2.2900000000000D+00  0.0000000000000D+00  0.0000000000000D+00
231  2.3000000000000D+00  0.0000000000000D+00  0.0000000000000D+00
232  2.3100000000000D+00  0.0000000000000D+00  0.0000000000000D+00
233  2.3200000000000D+00  0.0000000000000D+00  0.0000000000000D+00
234  2.3300000000000D+00  0.0000000000000D+00  0.0000000000000D+00
235  2.3400000000000D+00  0.0000000000000D+00  0.0000000000000D+00
236  2.3500000000000D+00  0.0000000000000D+00  0.0000000000000D+00
237  2.3600000000000D+00  0.0000000000000D+00  0.0000000000000D+00
238  2.3700000000000D+00  0.0000000000000D+00  0.0000000000000D+00
239  2.3800000000000D+00  0.0000000000000D+00  0.0000000000000D+00
240  2.3900000000000D+00  0.0000000000000D+00  0.0000000000000D+00
241  2.4000000000000D+00  0.0000000000000D+00  0.0000000000000D+00
242  2.4100000000000D+00  0.0000000000000D+00  0.0000000000000D+00
243  2.4200000000000D+00  0.0000000000000D+00  0.0000000000000D+00
244  2.4300000000000D+00  0.0000000000000D+00  0.0000000000000D+00
245  2.4400000000000D+00  0.0000000000000D+00  0.0000000000000D+00
246  2.4500000000000D+00  0.0000000000000D+00  0.0000000000000D+00
247  2.4600000000000D+00  0.0000000000000D+00  0.0000000000000D+00
248  2.4700000000000D+00  0.0000000000000D+00  0.0000000000000D+00
249  2.4800000000000D+00  0.0000000000000D+00  0.0000000000000D+00
250  2.4900000000000D+00  0.0000000000000D+00  0.0000000000000D+00
251  2.5000000000000D+00  0.0000000000000D+00  0.0000000000000D+00
252  2.5100000000000D+00  0.0000000000000D+00  0.0000000000000D+00
253  2.5200000000000D+00  0.0000000000000D+00  0.0000000000000D+00
254  2.5300000000000D+00  0.0000000000000D+00  0.0000000000000D+00
255  2.5400000000000D+00  0.0000000000000D+00  0.0000000000000D+00
256  2.5500000000000D+00  0.0000000000000D+00  0.0000000000000D+00
257  2.5600000000000D+00  0.0000000000000D+00  0.0000000000000D+00
258  2.5700000000000D+00  0.0000000000000D+00  0.0000000000000D+00
259  2.5800000000000D+00  0.0000000000000D+00  0.0000000000000D+00
260  2.5900000000000D+00  0.0000000000000D+00  0.0000000000000D+00
261  2.6000000000000D+00  0.0000000000000D+00  0.0000000000000D+00
262  2.6100000000000D+00  0.0000000000000D+00  0.0000000000000D+00
263  2.6200000000000D+00  0.0000000000000D+00  0.0000000000000D+00
264  2.6300000000000D+00  0.0000000000000D+00  0.0000000000000D+00
265  2.6400000000000D+00  0.0000000000000D+00  0.0000000000000D+00
266  2.6500000000000D+00  0.0000000000000D+00  0.0000000000000D+00
267  2.6600000000000D+00  0.0000000000000D+00  0.0000000000000D+00
268  2.6700000000000D+00  0.0000000000000D+00  0.0000000000000D+00
269  2.6800000000000D+00  0.0000000000000D+00  0.0000000000000D+00
270  2.6900000000000D+00  0.0000000000000D+00  0.0000000000000D+00
271  2.7000000000000D+00  0.0000000000000D+00  0.0000000000000D+00
272  2.7100000000000D+00  0.0000000000000D+00  0.0000000000000D+00
273  2.7200000000000D+00  0.0000000000000D+00  0.0000000000000D+00
274  2.7300000000000D+00  0.0000000000000D+00  0.0000000000000D+00
275  2.7400000000000D+00  0.0000000000000D+00  0.0000000000000D+00
276  2.7500000000000D+00  0.0000000000000D+00  0.0000000000000D+00
277  2.7600000000000D+00  0.0000000000000D+00  0.0000000000000D+00
278  2.7700000000000D+00  0.0000000000000D+00  0.0000000000000D+00
279  2.7800000000000D+00  0.0000000000000D+00  0.0000000000000D+00
280  2.7900000000000D+00  0.0000000000000D+00  0.0000000000000D+00
281  2.8000000000000D+00  0.0000000000000D+00  0.0000000000000D+00
282  2.8100000000000D+00  0.0000000000000D+00  0.0000000000000D+00
283  2.8200000000000D+00  0.0000000000000D+00  0.0000000000000D+00
284  2.8300000000000D+00  0.0000000000000D+00  0.0000000000000D+00
285  2.8400000000000D+00  0.0000000000000D+00  0.0000000000000D+00
286  2.8500000000000D+00  0.0000000000000D+00  0.0000000000000D+00
287  2.8600000000000D+00  0.0000000000000D+00  0.0000000000000D+00
288  2.8700000000000D+00  0.0000000000000D+00  0.0000000000000D+00
289  2.8800000000000D+00  0.0000000000000D+00  0.0000000000000D+00
290  2.8900000000000D+00  0.0000000000000D+00  0.0000000000000D+00
291  2.9000000000000D+00  0.0000000000000D+00  0.0000000000000D+00
292  2.9100000000000D+00  0.0000000000000D+00  0.0000000000000D+00
293  2.9200000000000D+00  0.0000000000000D+00  0.0000000000000D+00
294  2.9300000000000D+00  0.0000000000000D+00  0.0000000000000D+00
295  2.9400000000000D+00  0.0000000000000D+00  0.0000000000000D+00
296  2.9500000000000D+00  0.0000000000000D+00  0.0000000000000D+00
297  2.9600000000000D+00  0.0000000000000D+00  0.0000000000000D+00
298  2.9700000000000D+00  0.0000000000000D+00  0.0000000000000D+00
299  2.9800000000000D+00  0.0000000000000D+00  0.0000000000000D+00
300  2.9900000000000D+00  0.0000000000000D+00  0.0000000000000D+00
301  3.0000000000000D+00  0.0000000000000D+00  0.0000000000000D+00
302  3.0100000000000D+00  0.0000000000000D+00  0.0000000000000D+00
303  3.0200000000000D+00  0.0000000000000D+00  0.0000000000000D+00
304  3.0300000000000D+00  0.0000000000000D+00  0.0000000000000D+00
305  3.0400000000000D+00  0.0000000000000D+00  0.0000000000000D+00
306  3.0500000000000D+00  0.0000000000000D+00  0.0000000000000D+00
307  3.0600000000000D+00  0.0000000000000D+00  0.0000000000000D+00
308  3.0700000000000D+00  0.0000000000000D+00  0.0000000000000D+00
309  3.0800000000000D+00  0.0000000000000D+00  0.0000000000000D+00
310  3.0900000000000D+00  0.0000000000000D+00  0.0000000000000D+00
311  3.1000000000000D+00  0.0000000000000D+00  0.0000000000000D+00
312  3.1100000000000D+00  0.0000000000000D+00  0.0000000000000D+00
313  3.1200000000000D+00  0.0000000000000D+00  0.0000000000000D+00
314  3.1300000000000D+00  0.0000000000000D+00  0.0000000000000D+00
315  3.1400000000000D+00  0.0000000000000D+00  0.0000000000000D+00
316  3.1500000000000D+00  0.0000000000000D+00  0.0000000000000D+00
317  3.1600000000000D+00  0.0000000000000D+00  0.0000000000000D+00
318  3.1700000000000D+00  0.0000000000000D+00  0.0000000000000D+00
319  3.1800000000000D+00  0.0000000000000D+00  0.0000000000000D+00
320  3.1900000000000D+00  0.0000000000000D+00  0.0000000000000D+00
321  3.2000000000000D+00  0.0000000000000D+00  0.0000000000000D+00
322  3.2100000000000D+00  0.0000000000000D+00  0.0000000000000D+00
323  3.2200000000000D+00  0.0000000000000D+00  0.0000000000000D+00
324  3.2300000000000D+00  0.0000000000000D+00  0.0000000000000D+00
325  3.2400000000000D+00  0.0000000000000D+00  0.0000000000000D+00
326  3.2500000000000D+00  0.0000000000000D+00  0.0000000000000D+00
327  3.2600000000000D+00  0.0000000000000D+00  0.0000000000000D+00
328  3.2700000000000D+00  0.0000000000000D+00  0.0000000000000D+00
329  3.2800000000000D+00  0.0000000000000D+00  0.0000000000000D+00
330  3.2900000000000D+00  0.0000000000000D+00  0.0000000000000D+00
331  3.3000000000000D+00  0.0000000000000D+00  0.0000000000000D+00
332  3.3100000000000D+00  0.0000000000000D+00  0.0000000000000D+00
333  3.3200000000000D+00  0.0000000000000D+00  0.0000000000000D+00
334  3.3300000000000D+00  0.0000000000000D+00  0.0000000000000D+00
335  3.3400000000000D+00  0.0000000000000D+00  0.0000000000000D+00
336  3.3500000000000D+00  0.0000000000000D+00  0.0000000000000D+00
337  3.3600000000000D+00  0.0000000000000D+00  0.0000000000000D+00
338  3.3700000000000D+00  0.0000000000000D+00  0.0000000000000D+00
339  3.3800000000000D+00  0.0000000000000D+00  0.0000000000000D+00
340  3.3900000000000D+00  0.0000000000000D+00  0.0000000000000D+00
341  3.4000000000000D+00  0.0000000000000D+00  0.0000000000000D+00
342  3.4100000000000D+00  0.0000000000000D+00  0.0000000000000D+00
343  3.4200000000000D+00  0.0000000000000D+00  0.0000000000000D+00
344  3.4300000000000D+00  0.0000000000000D+00  0.0000000000000D+00
345  3.4400000000000D+00  0.0000000000000D+00  0.0000000000000D+00
346  3.4500000000000D+00  0.0000000000000D+00  0.0000000000000D+00
347  3.4600000000000D+00  0.0000000000000D+00  0.0000000000000D+00
348  3.4700000000000D+00  0.0000000000000D+00  0.0000000000000D+00
349  3.4800000000000D+00  0.0000000000000D+00  0.0000000000000D+00
350  3.4900000000000D+00  0.0000000000000D+00  0.0000000000000D+00
351  3.5000000000000D+00  0.0000000000000D+00  0.0000000000000D+00
352  3.5100000000000D+00  0.0000000000000D+00  0.0000000000000D+00
353  3.5200000000000D+00  0.0000000000000D+00  0.0000000000000D+00
354  3.5300000000000D+00  0.0000000000000D+00  0.0000000000000D+00
355  3.5400000000000D+00  0.0000000000000D+00  0.0000000000000D+00
356  3.5500000000000D+00  0.0000000000000D+00  0.0000000000000D+00
357  3.5600000000000D+00  0.0000000000000D+00  0.0000000000000D+00
358  3.5700000000000D+00  0.0000000000000D+00  0.0000000000000D+00
359  3.5800000000000D+00  0.0000000000000D+00  0.0000000000000D+00
360  3.5900000000000D+00  0.0000000000000D+00  0.0000000000000D+00
361  3.6000000000000D+00  0.0000000000000D+00  0.0000000000000D+00
362  3.6100000000000D+00  0.0000000000000D+00  0.0000000000000D+00
363  3.6200000000000D+00  0.0000000000000D+00  0.0000000000000D+00
364  3.6300000000000D+00  0.0000000000000D+00  0.0000000000000D+00
365  3.6400000000000D+00  0.0000000000000D+00  0.0000000000000D+00
366  3.6500000000000D+00  0.0000000000000D+00  0.0000000000000D+00
367  3.6600000000000D+00  0.0000000000000D+00  0.0000000000000D+00
368  3.6700000000000D+00  0.0000000000000D+00  0.0000000000000D+00
369  3.6800000000000D+00  0.0000000000000D+00  0.0000000000000D+00
370  3.6900000000000D+00  0.0000000000000D+00  0.0000000000000D+00
371  3.7000000000000D+00  0.0000000000000D+00  0.0000000000000D+00
372  3.7100000000000D+00  0.0000000000000D+00  0.0000000000000D+00
373  3.7200000000000D+00  0.0000000000000D+00  0.0000000000000D+00
374  3.7300000000000D+00  0.0000000000000D+00  0.0000000000000D+00
375  3.7400000000000D+00  0.0000000000000D+00  0.0000000000000D+00
376  3.7500000000000D+00  0.0000000000000D+00  0.0000000000000D+00
377  3.7600000000000D+00  0.0000000000000D+00  0.0000000000000D+00
378  3.7700000000000D+00  0.0000000000000D+00  0.0000000000000D+00
379  3.7800000000000D+00  0.0000000000000D+00  0.0000000000000D+00
380  3.7900000000000D+00  0.0000000000000D+00  0.0000000000000D+00
381  3.8000000000000D+00  0.0000000000000D+00  0.0000000000000D+00
382  3.8100000000000D+00  0.0000000000000D+00  0.0000000000000D+00
383  3.8200000000000D+00  0.0000000000000D+00  0.0000000000000D+00
384  3.8300000000000D+00  0.0000000000000D+00  0.0000000000000D+00
385  3.8400000000000D+00  0.0000000000000D+00  0.0000000000000D+00
386  3.8500000000000D+00  0.0000000000000D+00  0.0000000000000D+00
387  3.8600000000000D+00  0.0000000000000D+00  0.0000000000000D+00
388  3.8700000000000D+00  0.0000000000000D+00  0.0000000000000D+00
389  3.8800000000000D+00  0.0000000000000D+00  0.0000000000000D+00
390  3.8900000000000D+00  0.0000000000000D+00  0.0000000000000D+00
391  3.9000000000000D+00  0.0000000000000D+00  0.0000000000000D+00
392  3.9100000000000D+00  0.0000000000000D+00  0.0000000000000D+00
393  3.9200000000000D+00  0.0000000000000D+00  0.0000000000000D+00
394  3.9300000000000D+00  0.0000000000000D+00  0.0000000000000D+00
395  3.9400000000000D+00  0.0000000000000D+00  0.0000000000000D+00
396  3.9500000000000D+00  0.0000000000000D+00  0.0000000000000D+00
397  3.9600000000000D+00  0.0000000000000D+00  0.0000000000000D+00
398  3.9700000000000D+00  0.0000000000000D+00  0.0000000000000D+00
399  3.9800000000000D+00  0.0000000000000D+00  0.0000000000000D+00
400  3.9900000000000D+00  0.0000000000000D+00  0.0000000000000D+00
401  4.0000000000000D+00  0.0000000000000D+00  0.0000000000000D+00
402  4.0100000000000D+00  0.0000000000000D+00  0.0000000000000D+00
403  4.0200000000000D+00  0.0000000000000D+00  0.0000000000000D+00
404  4.0300000000000D+00  0.0000000000000D+00  0.0000000000000D+00
405  4.0400000000000D+00  0.0000000000000D+00  0.0000000000000D+00
406  4.0500000000000D+00  0.0000000000000D+00  0.0000000000000D+00
407  4.0600000000000D+00  0.0000000000000D+00  0.0000000000000D+00
408  4.0700000000000D+00  0.0000000000000D+00  0.0000000000000D+00
409  4.0800000000000D+00  0.0000000000000D+00  0.0000000000000D+00
410  4.0900000000000D+00  0.0000000000000D+00  0.0000000000000D+00
411  4.1000000000000D+00  0.0000000000000D+00  0.0000000000000D+00
412  4.1100000000000D+00  0.0000000000000D+00  0.0000000000000D+00
413  4.1200000000000D+00  0.0000000000000D+00  0.0000000000000D+00
414  4.1300000000000D+00  0.0000000000000D+00  0.0000000000000D+00
415  4.1400000000000D+00  0.0000000000000D+00  0.0000000000000D+00
416  4.1500000000000D+00  0.0000000000000D+00  0.0000000000000D+00
417  4.1600000000000D+00  0.0000000000000D+00  0.0000000000000D+00
418  4.1700000000000D+00  0.0000000000000D+00  0.0000000000000D+00
419  4.1800000000000D+00  0.0000000000000D+00  0.0000000000000D+00
420  4.1900000000000D+00  0.0000000000000D+00  0.0000000000000D+00
421  4.2000000000000D+00  0.0000000000000D+00  0.0000000000000D+00
422  4.2100000000000D+00  0.0000000000000D+00  0.0000000000000D+00
423  4.2200000000000D+00  0.0000000000000D+00  0.0000000000000D+00
424  4.2300000000000D+00  0.0000000000000D+00  0.0000000000000D+00
425  4.2400000000000D+00  0.0000000000000D+00  0.0000000000000D+00
426  4.2500000000000D+00  0.0000000000000D+00  0.0000000000000D+00
427  4.2600000000000D+00  0.0000000000000D+00  0.0000000000000D+00
428  4.2700000000000D+00  0.0000000000000D+00  0.0000000000000D+00
429  4.2800000000000D+00  0.0000000000000D+00  0.0000000000000D+00
430  4.2900000000000D+00  0.0000000000000D+00  0.0000000000000D+00
431  4.3000000000000D+00  0.0000000000000D+00  0.0000000000000D+00
432  4.3100000000000D+00  0.0000000000000D+00  0.0000000000000D+00
433  4.3200000000000D+00  0.0000000000000D+00  0.0000000000000D+00
434  4.3300000000000D+00  0.0000000000000D+00  0.0000000000000D+00
435  4.3400000000000D+00  0.0000000000000D+00  0.0000000000000D+00
436  4.3500000000000D+00  0.0000000000000D+00  0.0000000000000D+00
437  4.3600000000000D+00  0.0000000000000D+00  0.0000000000000D+00
438  4.3700000000000D+00  0.0000000000000D+00  0.0000000000000D+00
439  4.3800000000000D+00  0.0000000000000D+00  0.0000000000000D+00
440  4.3900000000000D+00  0.0000000000000D+00  0.0000000000000D+00
441  4.4000000000000D+00  0.0000000000000D+00  0.0000000000000D+00
442  4.4100000000000D+00  0.0000000000000D+00  0.0000000000000D+00
443  4.4200000000000D+00  0.0000000000000D+00  0.0000000000000D+00
444  4.4300000000000D+00  0.0000000000000D+00  0.0000000000000D+00