V     ONCVPSP  r_core=  1.41  1.25  1.75
23.0000     13.0000      141210    zatom,zion,pspd
8    11     2     4   601     0    pspcod,pspxc,lmax,lloc,mmax,r2well
6.00000000  0.05000000  0.00000000    rchrg fchrg qchrg
2     2     2     0     0    nproj
0                 extension_switch
0                         9.4563560672906D+00  1.1931899580694D+00
1  0.0000000000000D+00 -0.0000000000000D+00  0.0000000000000D+00
2  1.0000000000000D-02 -8.4963378547073D-02  3.8466116516264D-02
3  2.0000000000000D-02 -1.6965295774516D-01  7.6520623539008D-02
4  3.0000000000000D-02 -2.5379680849232D-01  1.1375671276071D-01
5  4.0000000000000D-02 -3.3712671946241D-01  1.4977710953854D-01
6  5.0000000000000D-02 -4.1937999952909D-01  1.8419866898961D-01
7  6.0000000000000D-02 -5.0030121335466D-01  2.1665677006586D-01
8  7.0000000000000D-02 -5.7964382939417D-01  2.4680944501707D-01
9  8.0000000000000D-02 -6.5717176082724D-01  2.7434118558003D-01
10  9.0000000000000D-02 -7.3266078152528D-01  2.9896637216904D-01
11  1.0000000000000D-01 -8.0589980092131D-01  3.2043227784942D-01
12  1.1000000000000D-01 -8.7669198376833D-01  3.3852160542256D-01
13  1.2000000000000D-01 -9.4485570300701D-01  3.5305452290741D-01
14  1.3000000000000D-01 -1.0102253164430D+00  3.6389017033864D-01
15  1.4000000000000D-01 -1.0726517601354D+00  3.7092761806559D-01
16  1.5000000000000D-01 -1.1320029550124D+00  3.7410626684806D-01
17  1.6000000000000D-01 -1.1881640243486D+00  3.7340568555337D-01
18  1.7000000000000D-01 -1.2410373244900D+00  3.6884489399226D-01
19  1.8000000000000D-01 -1.2905422917209D+00  3.6048110389873D-01
20  1.9000000000000D-01 -1.3366151127834D+00  3.4840794148759D-01
21  2.0000000000000D-01 -1.3792082277920D+00  3.3275318173021D-01
22  2.1000000000000D-01 -1.4182896771239D+00  3.1367603170929D-01
23  2.2000000000000D-01 -1.4538423058499D+00  2.9136400711797D-01
24  2.3000000000000D-01 -1.4858628423371D+00  2.6602945667693D-01
25  2.4000000000000D-01 -1.5143608670694D+00  2.3790578390491D-01
26  2.5000000000000D-01 -1.5393576904672D+00  2.0724342777201D-01
27  2.6000000000000D-01 -1.5608851645565D+00  1.7430568406928D-01
28  2.7000000000000D-01 -1.5789844408295D+00  1.3936440124073D-01
29  2.8000000000000D-01 -1.5937047017801D+00  1.0269564325266D-01
30  2.9000000000000D-01 -1.6051018895128D+00  6.4575393877159D-02
31  3.0000000000000D-01 -1.6132374466038D+00  2.5275347977699D-02
32  3.1000000000000D-01 -1.6181770976422D+00 -1.4941116472836D-02
33  3.2000000000000D-01 -1.6199896827030D+00 -5.5822752807310D-02
34  3.3000000000000D-01 -1.6187460622928D+00 -9.7133982643435D-02
35  3.4000000000000D-01 -1.6145181449823D+00 -1.3865798620284D-01
36  3.5000000000000D-01 -1.6073779688896D+00 -1.8019958186502D-01
37  3.6000000000000D-01 -1.5973969827171D+00 -2.2158740601816D-01
38  3.7000000000000D-01 -1.5846453702663D+00 -2.6267591690319D-01
39  3.8000000000000D-01 -1.5691916076028D+00 -3.0334659466157D-01
40  3.9000000000000D-01 -1.5511021228003D+00 -3.4350877035642D-01
41  4.0000000000000D-01 -1.5304411031676D+00 -3.8309993014413D-01
42  4.1000000000000D-01 -1.5072704873407D+00 -4.2208537765082D-01
43  4.2000000000000D-01 -1.4816500989176D+00 -4.6045739353328D-01
44  4.3000000000000D-01 -1.4536379269587D+00 -4.9823387282717D-01
45  4.4000000000000D-01 -1.4232905514700D+00 -5.3545644625293D-01
46  4.5000000000000D-01 -1.3906637015388D+00 -5.7218812430479D-01
47  4.6000000000000D-01 -1.3558129332470D+00 -6.0851050700224D-01
48  4.7000000000000D-01 -1.3187944086925D+00 -6.4452061899000D-01
49  4.8000000000000D-01 -1.2796657728946D+00 -6.8032735330072D-01
50  4.9000000000000D-01 -1.2384870963577D+00 -7.1604768533310D-01
51  5.0000000000000D-01 -1.1953218592771D+00 -7.5180268694811D-01
52  5.1000000000000D-01 -1.1502379472216D+00 -7.8771347201395D-01
53  5.2000000000000D-01 -1.1033087458506D+00 -8.2389664882254D-01
54  5.3000000000000D-01 -1.0546140583480D+00 -8.6046050807576D-01
55  5.4000000000000D-01 -1.0042411051239D+00 -8.9750071867922D-01
56  5.5000000000000D-01 -9.5228548563100D-01 -9.3509606938050D-01
57  5.6000000000000D-01 -8.9885182110325D-01 -9.7330548877484D-01
58  5.7000000000000D-01 -8.4405473080630D-01 -1.0121633571463D+00
59  5.8000000000000D-01 -7.8801907808557D-01 -1.0516779510260D+00
60  5.9000000000000D-01 -7.3088075434032D-01 -1.0918271286968D+00
61  6.0000000000000D-01 -6.7278664227263D-01 -1.1325576235590D+00
62  6.1000000000000D-01 -6.1389491349598D-01 -1.1737823982122D+00
63  6.2000000000000D-01 -5.5437489426156D-01 -1.2153797385017D+00
64  6.3000000000000D-01 -4.9440663969691D-01 -1.2571936367962D+00
65  6.4000000000000D-01 -4.3418070624541D-01 -1.2990323002798D+00
66  6.5000000000000D-01 -3.7389723964062D-01 -1.3406702956281D+00
67  6.6000000000000D-01 -3.1376515585364D-01 -1.3818497993133D+00
68  6.7000000000000D-01 -2.5400108526456D-01 -1.4222819018167D+00
69  6.8000000000000D-01 -1.9482803401360D-01 -1.4616499491952D+00
70  6.9000000000000D-01 -1.3647395339217D-01 -1.4996127074428D+00
71  7.0000000000000D-01 -7.9170204201313D-02 -1.5358080472829D+00
72  7.1000000000000D-01 -2.3149601388142D-02 -1.5698572647510D+00
73  7.2000000000000D-01  3.1355391192642D-02 -1.6013699889274D+00
74  7.3000000000000D-01  8.4114632696456D-02 -1.6299492506042D+00
75  7.4000000000000D-01  1.3490240475549D-01 -1.6551969375701D+00
76  7.5000000000000D-01  1.8349954698110D-01 -1.6767194930252D+00
77  7.6000000000000D-01  2.2969553105173D-01 -1.6941335900919D+00
78  7.7000000000000D-01  2.7329077583505D-01 -1.7070723585859D+00
79  7.8000000000000D-01  3.1409882575030D-01 -1.7151914443736D+00
80  7.9000000000000D-01  3.5194818963263D-01 -1.7181743338205D+00
81  8.0000000000000D-01  3.8668439373510D-01 -1.7157381115926D+00
82  8.1000000000000D-01  4.1817181970926D-01 -1.7076387468684D+00
83  8.2000000000000D-01  4.4629538971004D-01 -1.6936759998935D+00
84  8.3000000000000D-01  4.7096207169550D-01 -1.6736978664504D+00
85  8.4000000000000D-01  4.9210218001045D-01 -1.6476044834569D+00
86  8.5000000000000D-01  5.0967044874156D-01 -1.6153514257307D+00
87  8.6000000000000D-01  5.2364685808242D-01 -1.5769523318657D+00
88  8.7000000000000D-01  5.3403719702219D-01 -1.5324808060819D+00
89  8.8000000000000D-01  5.4087334904670D-01 -1.4820715527521D+00
90  8.9000000000000D-01  5.4421329119344D-01 -1.4259207110091D+00
91  9.0000000000000D-01  5.4414080071034D-01 -1.3642853683265D+00
92  9.1000000000000D-01  5.4076486770796D-01 -1.2974822441629D+00
93  9.2000000000000D-01  5.3421881653145D-01 -1.2258855475713D+00
94  9.3000000000000D-01  5.2465908670576D-01 -1.1499238801286D+00
95  9.4000000000000D-01  5.1226388107223D-01 -1.0700767276549D+00
96  9.5000000000000D-01  4.9723170367718D-01 -9.8687058583737D-01
97  9.6000000000000D-01  4.7977898393160D-01 -9.0087264932876D-01
98  9.7000000000000D-01  4.6013808444797D-01 -8.1268543452922D-01
99  9.8000000000000D-01  4.3855494314529D-01 -7.2294039635037D-01
100  9.9000000000000D-01  4.1528655490786D-01 -6.3229107990063D-01
101  1.0000000000000D+00  3.9059832789797D-01 -5.4140590742026D-01
102  1.0100000000000D+00  3.6476178827133D-01 -4.5096192611138D-01
103  1.0200000000000D+00  3.3805099220498D-01 -3.6163492111423D-01
104  1.0300000000000D+00  3.1073960468105D-01 -2.7409143485878D-01
105  1.0400000000000D+00  2.8309851723645D-01 -1.8898225263192D-01
106  1.0500000000000D+00  2.5539291047909D-01 -1.0693434559106D-01
107  1.0600000000000D+00  2.2788012164483D-01 -2.8545054261815D-02
108  1.0700000000000D+00  2.0080706671559D-01  4.5624961250059D-02
109  1.0800000000000D+00  1.7440440485687D-01  1.1506769121118D-01
110  1.0900000000000D+00  1.4888804938645D-01  1.7932346116151D-01
111  1.1000000000000D+00  1.2445604357820D-01  2.3798938921278D-01
112  1.1100000000000D+00  1.0128936881545D-01  2.9071706128635D-01
113  1.1200000000000D+00  7.9542805419817D-02  3.3723729587163D-01
114  1.1300000000000D+00  5.9349029283906D-02  3.7734860339221D-01
115  1.1400000000000D+00  4.0817707531553D-02  4.1091937902274D-01
116  1.1500000000000D+00  2.4037441283867D-02  4.3788249926936D-01
117  1.1600000000000D+00  9.0649474691530D-03  4.5826390943161D-01
118  1.1700000000000D+00 -4.0664022904374D-03  4.7215902102809D-01
119  1.1800000000000D+00 -1.5346246275269D-02  4.7973148310320D-01
120  1.1900000000000D+00 -2.4788078855456D-02  4.8121513641831D-01
121  1.2000000000000D+00 -3.2435237758683D-02  4.7692822795584D-01
122  1.2100000000000D+00 -3.8350137265383D-02  4.6724466326545D-01
123  1.2200000000000D+00 -4.2613855484101D-02  4.5259312491511D-01
124  1.2300000000000D+00 -4.5334293839720D-02  4.3347518305359D-01
125  1.2400000000000D+00 -4.6634575023453D-02  4.1043516778817D-01
126  1.2500000000000D+00 -4.6652367056584D-02  3.8405902430341D-01
127  1.2600000000000D+00 -4.5543998981282D-02  3.5498086397905D-01
128  1.2700000000000D+00 -4.3473012185326D-02  3.2384911167643D-01
129  1.2800000000000D+00 -4.0610456504298D-02  2.9133116445079D-01
130  1.2900000000000D+00 -3.7128170865135D-02  2.5808202132680D-01
131  1.3000000000000D+00 -3.3194817236733D-02  2.2473848050022D-01
132  1.3100000000000D+00 -2.8980726664325D-02  1.9193820773273D-01
133  1.3200000000000D+00 -2.4642848859015D-02  1.6026233479767D-01
134  1.3300000000000D+00 -2.0330297666294D-02  1.3026240761293D-01
135  1.3400000000000D+00 -1.6188535694831D-02  1.0247378296291D-01
136  1.3500000000000D+00 -1.2335190589210D-02  7.7331441411119D-02
137  1.3600000000000D+00 -8.8828214339770D-03  5.5252572833526D-02
138  1.3700000000000D+00 -5.9247741707661D-03  3.6586336501969D-02
139  1.3800000000000D+00 -3.5264466225425D-03  2.1586063772261D-02
140  1.3900000000000D+00 -1.7499275623115D-03  1.0493243244184D-02
141  1.4000000000000D+00 -6.5629072024710D-04  3.6486656457342D-03
142  1.4100000000000D+00 -1.7558536594112D-04  6.3143725391972D-04
143  1.4200000000000D+00 -5.8480062129937D-06 -2.1661412436372D-04
144  1.4300000000000D+00  1.6239166717193D-06 -4.0233251790336D-06
145  1.4400000000000D+00  6.7555468972954D-06 -1.6737165399782D-05
146  1.4500000000000D+00  0.0000000000000D+00  0.0000000000000D+00
147  1.4600000000000D+00  0.0000000000000D+00  0.0000000000000D+00
148  1.4700000000000D+00  0.0000000000000D+00  0.0000000000000D+00
149  1.4800000000000D+00  0.0000000000000D+00  0.0000000000000D+00
150  1.4900000000000D+00  0.0000000000000D+00  0.0000000000000D+00
151  1.5000000000000D+00  0.0000000000000D+00  0.0000000000000D+00
152  1.5100000000000D+00  0.0000000000000D+00  0.0000000000000D+00
153  1.5200000000000D+00  0.0000000000000D+00  0.0000000000000D+00
154  1.5300000000000D+00  0.0000000000000D+00  0.0000000000000D+00
155  1.5400000000000D+00  0.0000000000000D+00  0.0000000000000D+00
156  1.5500000000000D+00  0.0000000000000D+00  0.0000000000000D+00
157  1.5600000000000D+00  0.0000000000000D+00  0.0000000000000D+00
158  1.5700000000000D+00  0.0000000000000D+00  0.0000000000000D+00
159  1.5800000000000D+00  0.0000000000000D+00  0.0000000000000D+00
160  1.5900000000000D+00  0.0000000000000D+00  0.0000000000000D+00
161  1.6000000000000D+00  0.0000000000000D+00  0.0000000000000D+00
162  1.6100000000000D+00  0.0000000000000D+00  0.0000000000000D+00
163  1.6200000000000D+00  0.0000000000000D+00  0.0000000000000D+00
164  1.6300000000000D+00  0.0000000000000D+00  0.0000000000000D+00
165  1.6400000000000D+00  0.0000000000000D+00  0.0000000000000D+00
166  1.6500000000000D+00  0.0000000000000D+00  0.0000000000000D+00
167  1.6600000000000D+00  0.0000000000000D+00  0.0000000000000D+00
168  1.6700000000000D+00  0.0000000000000D+00  0.0000000000000D+00
169  1.6800000000000D+00  0.0000000000000D+00  0.0000000000000D+00
170  1.6900000000000D+00  0.0000000000000D+00  0.0000000000000D+00
171  1.7000000000000D+00  0.0000000000000D+00  0.0000000000000D+00
172  1.7100000000000D+00  0.0000000000000D+00  0.0000000000000D+00
173  1.7200000000000D+00  0.0000000000000D+00  0.0000000000000D+00
174  1.7300000000000D+00  0.0000000000000D+00  0.0000000000000D+00
175  1.7400000000000D+00  0.0000000000000D+00  0.0000000000000D+00
176  1.7500000000000D+00  0.0000000000000D+00  0.0000000000000D+00
177  1.7600000000000D+00  0.0000000000000D+00  0.0000000000000D+00
178  1.7700000000000D+00  0.0000000000000D+00  0.0000000000000D+00
179  1.7800000000000D+00  0.0000000000000D+00  0.0000000000000D+00
180  1.7900000000000D+00  0.0000000000000D+00  0.0000000000000D+00
181  1.8000000000000D+00  0.0000000000000D+00  0.0000000000000D+00
182  1.8100000000000D+00  0.0000000000000D+00  0.0000000000000D+00
183  1.8200000000000D+00  0.0000000000000D+00  0.0000000000000D+00
184  1.8300000000000D+00  0.0000000000000D+00  0.0000000000000D+00
185  1.8400000000000D+00  0.0000000000000D+00  0.0000000000000D+00
186  1.8500000000000D+00  0.0000000000000D+00  0.0000000000000D+00
187  1.8600000000000D+00  0.0000000000000D+00  0.0000000000000D+00
188  1.8700000000000D+00  0.0000000000000D+00  0.0000000000000D+00
189  1.8800000000000D+00  0.0000000000000D+00  0.0000000000000D+00
190  1.8900000000000D+00  0.0000000000000D+00  0.0000000000000D+00
191  1.9000000000000D+00  0.0000000000000D+00  0.0000000000000D+00
192  1.9100000000000D+00  0.0000000000000D+00  0.0000000000000D+00
193  1.9200000000000D+00  0.0000000000000D+00  0.0000000000000D+00
194  1.9300000000000D+00  0.0000000000000D+00  0.0000000000000D+00
195  1.9400000000000D+00  0.0000000000000D+00  0.0000000000000D+00
196  1.9500000000000D+00  0.0000000000000D+00  0.0000000000000D+00
197  1.9600000000000D+00  0.0000000000000D+00  0.0000000000000D+00
198  1.9700000000000D+00  0.0000000000000D+00  0.0000000000000D+00
199  1.9800000000000D+00  0.0000000000000D+00  0.0000000000000D+00
200  1.9900000000000D+00  0.0000000000000D+00  0.0000000000000D+00
201  2.0000000000000D+00  0.0000000000000D+00  0.0000000000000D+00
202  2.0100000000000D+00  0.0000000000000D+00  0.0000000000000D+00
203  2.0200000000000D+00  0.0000000000000D+00  0.0000000000000D+00
204  2.0300000000000D+00  0.0000000000000D+00  0.0000000000000D+00
205  2.0400000000000D+00  0.0000000000000D+00  0.0000000000000D+00
206  2.0500000000000D+00  0.0000000000000D+00  0.0000000000000D+00
207  2.0600000000000D+00  0.0000000000000D+00  0.0000000000000D+00
208  2.0700000000000D+00  0.0000000000000D+00  0.0000000000000D+00
209  2.0800000000000D+00  0.0000000000000D+00  0.0000000000000D+00
210  2.0900000000000D+00  0.0000000000000D+00  0.0000000000000D+00
211  2.1000000000000D+00  0.0000000000000D+00  0.0000000000000D+00
212  2.1100000000000D+00  0.0000000000000D+00  0.0000000000000D+00
213  2.1200000000000D+00  0.0000000000000D+00  0.0000000000000D+00
214  2.1300000000000D+00  0.0000000000000D+00  0.0000000000000D+00
215  2.1400000000000D+00  0.0000000000000D+00  0.0000000000000D+00
216  2.1500000000000D+00  0.0000000000000D+00  0.0000000000000D+00
217  2.1600000000000D+00  0.0000000000000D+00  0.0000000000000D+00
218  2.1700000000000D+00  0.0000000000000D+00  0.0000000000000D+00
219  2.1800000000000D+00  0.0000000000000D+00  0.0000000000000D+00
220  2.1900000000000D+00  0.0000000000000D+00  0.0000000000000D+00
221  2.2000000000000D+00  0.0000000000000D+00  0.0000000000000D+00
222  2.2100000000000D+00  0.0000000000000D+00  0.0000000000000D+00
223  2.2200000000000D+00  0.0000000000000D+00  0.0000000000000D+00
224  2.2300000000000D+00  0.0000000000000D+00  0.0000000000000D+00
225  2.2400000000000D+00  0.0000000000000D+00  0.0000000000000D+00
226  2.2500000000000D+00  0.0000000000000D+00  0.0000000000000D+00
227  2.2600000000000D+00  0.0000000000000D+00  0.0000000000000D+00
228  2.2700000000000D+00  0.0000000000000D+00  0.0000000000000D+00
229  2.2800000000000D+00  0.0000000000000D+00  0.0000000000000D+00
230  2.2900000000000D+00  0.0000000000000D+00  0.0000000000000D+00
231  2.3000000000000D+00  0.0000000000000D+00  0.0000000000000D+00
232  2.3100000000000D+00  0.0000000000000D+00  0.0000000000000D+00
233  2.3200000000000D+00  0.0000000000000D+00  0.0000000000000D+00
234  2.3300000000000D+00  0.0000000000000D+00  0.0000000000000D+00
235  2.3400000000000D+00  0.0000000000000D+00  0.0000000000000D+00
236  2.3500000000000D+00  0.0000000000000D+00  0.0000000000000D+00
237  2.3600000000000D+00  0.0000000000000D+00  0.0000000000000D+00
238  2.3700000000000D+00  0.0000000000000D+00  0.0000000000000D+00
239  2.3800000000000D+00  0.0000000000000D+00  0.0000000000000D+00
240  2.3900000000000D+00  0.0000000000000D+00  0.0000000000000D+00
241  2.4000000000000D+00  0.0000000000000D+00  0.0000000000000D+00
242  2.4100000000000D+00  0.0000000000000D+00  0.0000000000000D+00
243  2.4200000000000D+00  0.0000000000000D+00  0.0000000000000D+00
244  2.4300000000000D+00  0.0000000000000D+00  0.0000000000000D+00
245  2.4400000000000D+00  0.0000000000000D+00  0.0000000000000D+00
246  2.4500000000000D+00  0.0000000000000D+00  0.0000000000000D+00
247  2.4600000000000D+00  0.0000000000000D+00  0.0000000000000D+00
248  2.4700000000000D+00  0.0000000000000D+00  0.0000000000000D+00
249  2.4800000000000D+00  0.0000000000000D+00  0.0000000000000D+00
250  2.4900000000000D+00  0.0000000000000D+00  0.0000000000000D+00
251  2.5000000000000D+00  0.0000000000000D+00  0.0000000000000D+00
252  2.5100000000000D+00  0.0000000000000D+00  0.0000000000000D+00
253  2.5200000000000D+00  0.0000000000000D+00  0.0000000000000D+00
254  2.5300000000000D+00  0.0000000000000D+00  0.0000000000000D+00
255  2.5400000000000D+00  0.0000000000000D+00  0.0000000000000D+00
256  2.5500000000000D+00  0.0000000000000D+00  0.0000000000000D+00
257  2.5600000000000D+00  0.0000000000000D+00  0.0000000000000D+00
258  2.5700000000000D+00  0.0000000000000D+00  0.0000000000000D+00
259  2.5800000000000D+00  0.0000000000000D+00  0.0000000000000D+00
260  2.5900000000000D+00  0.0000000000000D+00  0.0000000000000D+00
261  2.6000000000000D+00  0.0000000000000D+00  0.0000000000000D+00
262  2.6100000000000D+00  0.0000000000000D+00  0.0000000000000D+00
263  2.6200000000000D+00  0.0000000000000D+00  0.0000000000000D+00
264  2.6300000000000D+00  0.0000000000000D+00  0.0000000000000D+00
265  2.6400000000000D+00  0.0000000000000D+00  0.0000000000000D+00
266  2.6500000000000D+00  0.0000000000000D+00  0.0000000000000D+00
267  2.6600000000000D+00  0.0000000000000D+00  0.0000000000000D+00
268  2.6700000000000D+00  0.0000000000000D+00  0.0000000000000D+00
269  2.6800000000000D+00  0.0000000000000D+00  0.0000000000000D+00
270  2.6900000000000D+00  0.0000000000000D+00  0.0000000000000D+00
271  2.7000000000000D+00  0.0000000000000D+00  0.0000000000000D+00
272  2.7100000000000D+00  0.0000000000000D+00  0.0000000000000D+00
273  2.7200000000000D+00  0.0000000000000D+00  0.0000000000000D+00
274  2.7300000000000D+00  0.0000000000000D+00  0.0000000000000D+00
275  2.7400000000000D+00  0.0000000000000D+00  0.0000000000000D+00
276  2.7500000000000D+00  0.0000000000000D+00  0.0000000000000D+00
277  2.7600000000000D+00  0.0000000000000D+00  0.0000000000000D+00
278  2.7700000000000D+00  0.0000000000000D+00  0.0000000000000D+00
279  2.7800000000000D+00  0.0000000000000D+00  0.0000000000000D+00
280  2.7900000000000D+00  0.0000000000000D+00  0.0000000000000D+00
281  2.8000000000000D+00  0.0000000000000D+00  0.0000000000000D+00
282  2.8100000000000D+00  0.0000000000000D+00  0.0000000000000D+00
283  2.8200000000000D+00  0.0000000000000D+00  0.0000000000000D+00
284  2.8300000000000D+00  0.0000000000000D+00  0.0000000000000D+00
285  2.8400000000000D+00  0.0000000000000D+00  0.0000000000000D+00
286  2.8500000000000D+00  0.0000000000000D+00  0.0000000000000D+00
287  2.8600000000000D+00  0.0000000000000D+00  0.0000000000000D+00
288  2.8700000000000D+00  0.0000000000000D+00  0.0000000000000D+00
289  2.8800000000000D+00  0.0000000000000D+00  0.0000000000000D+00
290  2.8900000000000D+00  0.0000000000000D+00  0.0000000000000D+00
291  2.9000000000000D+00  0.0000000000000D+00  0.0000000000000D+00
292  2.9100000000000D+00  0.0000000000000D+00  0.0000000000000D+00
293  2.9200000000000D+00  0.0000000000000D+00  0.0000000000000D+00
294  2.9300000000000D+00  0.0000000000000D+00  0.0000000000000D+00
295  2.9400000000000D+00  0.0000000000000D+00  0.0000000000000D+00
296  2.9500000000000D+00  0.0000000000000D+00  0.0000000000000D+00
297  2.9600000000000D+00  0.0000000000000D+00  0.0000000000000D+00
298  2.9700000000000D+00  0.0000000000000D+00  0.0000000000000D+00
299  2.9800000000000D+00  0.0000000000000D+00  0.0000000000000D+00
300  2.9900000000000D+00  0.0000000000000D+00  0.0000000000000D+00
301  3.0000000000000D+00  0.0000000000000D+00  0.0000000000000D+00
302  3.0100000000000D+00  0.0000000000000D+00  0.0000000000000D+00
303  3.0200000000000D+00  0.0000000000000D+00  0.0000000000000D+00
304  3.0300000000000D+00  0.0000000000000D+00  0.0000000000000D+00
305  3.0400000000000D+00  0.0000000000000D+00  0.0000000000000D+00
306  3.0500000000000D+00  0.0000000000000D+00  0.0000000000000D+00
307  3.0600000000000D+00  0.0000000000000D+00  0.0000000000000D+00
308  3.0700000000000D+00  0.0000000000000D+00  0.0000000000000D+00
309  3.0800000000000D+00  0.0000000000000D+00  0.0000000000000D+00
310  3.0900000000000D+00  0.0000000000000D+00  0.0000000000000D+00
311  3.1000000000000D+00  0.0000000000000D+00  0.0000000000000D+00
312  3.1100000000000D+00  0.0000000000000D+00  0.0000000000000D+00
313  3.1200000000000D+00  0.0000000000000D+00  0.0000000000000D+00
314  3.1300000000000D+00  0.0000000000000D+00  0.0000000000000D+00
315  3.1400000000000D+00  0.0000000000000D+00  0.0000000000000D+00
316  3.1500000000000D+00  0.0000000000000D+00  0.0000000000000D+00
317  3.1600000000000D+00  0.0000000000000D+00  0.0000000000000D+00
318  3.1700000000000D+00  0.0000000000000D+00  0.0000000000000D+00
319  3.1800000000000D+00  0.0000000000000D+00  0.0000000000000D+00
320  3.1900000000000D+00  0.0000000000000D+00  0.0000000000000D+00
321  3.2000000000000D+00  0.0000000000000D+00  0.0000000000000D+00
322  3.2100000000000D+00  0.0000000000000D+00  0.0000000000000D+00
323  3.2200000000000D+00  0.0000000000000D+00  0.0000000000000D+00
324  3.2300000000000D+00  0.0000000000000D+00  0.0000000000000D+00
325  3.2400000000000D+00  0.0000000000000D+00  0.0000000000000D+00
326  3.2500000000000D+00  0.0000000000000D+00  0.0000000000000D+00
327  3.2600000000000D+00  0.0000000000000D+00  0.0000000000000D+00
328  3.2700000000000D+00  0.0000000000000D+00  0.0000000000000D+00
329  3.2800000000000D+00  0.0000000000000D+00  0.0000000000000D+00
330  3.2900000000000D+00  0.0000000000000D+00  0.0000000000000D+00
331  3.3000000000000D+00  0.0000000000000D+00  0.0000000000000D+00
332  3.3100000000000D+00  0.0000000000000D+00  0.0000000000000D+00
333  3.3200000000000D+00  0.0000000000000D+00  0.0000000000000D+00
334  3.3300000000000D+00  0.0000000000000D+00  0.0000000000000D+00
335  3.3400000000000D+00  0.0000000000000D+00  0.0000000000000D+00
336  3.3500000000000D+00  0.0000000000000D+00  0.0000000000000D+00
337  3.3600000000000D+00  0.0000000000000D+00  0.0000000000000D+00
338  3.3700000000000D+00  0.0000000000000D+00  0.0000000000000D+00
339  3.3800000000000D+00  0.0000000000000D+00  0.0000000000000D+00
340  3.3900000000000D+00  0.0000000000000D+00  0.0000000000000D+00
341  3.4000000000000D+00  0.0000000000000D+00  0.0000000000000D+00
342  3.4100000000000D+00  0.0000000000000D+00  0.0000000000000D+00
343  3.4200000000000D+00  0.0000000000000D+00  0.0000000000000D+00
344  3.4300000000000D+00  0.0000000000000D+00  0.0000000000000D+00
345  3.4400000000000D+00  0.0000000000000D+00  0.0000000000000D+00
346  3.4500000000000D+00  0.0000000000000D+00  0.0000000000000D+00
347  3.4600000000000D+00  0.0000000000000D+00  0.0000000000000D+00
348  3.4700000000000D+00  0.0000000000000D+00  0.0000000000000D+00
349  3.4800000000000D+00  0.0000000000000D+00  0.0000000000000D+00
350  3.4900000000000D+00  0.0000000000000D+00  0.0000000000000D+00
351  3.5000000000000D+00  0.0000000000000D+00  0.0000000000000D+00
352  3.5100000000000D+00  0.0000000000000D+00  0.0000000000000D+00
353  3.5200000000000D+00  0.0000000000000D+00  0.0000000000000D+00
354  3.5300000000000D+00  0.0000000000000D+00  0.0000000000000D+00
355  3.5400000000000D+00  0.0000000000000D+00  0.0000000000000D+00
356  3.5500000000000D+00  0.0000000000000D+00  0.0000000000000D+00
357  3.5600000000000D+00  0.0000000000000D+00  0.0000000000000D+00
358  3.5700000000000D+00  0.0000000000000D+00  0.0000000000000D+00
359  3.5800000000000D+00  0.0000000000000D+00  0.0000000000000D+00
360  3.5900000000000D+00  0.0000000000000D+00  0.0000000000000D+00
361  3.6000000000000D+00  0.0000000000000D+00  0.0000000000000D+00
362  3.6100000000000D+00  0.0000000000000D+00  0.0000000000000D+00
363  3.6200000000000D+00  0.0000000000000D+00  0.0000000000000D+00
364  3.6300000000000D+00  0.0000000000000D+00  0.0000000000000D+00
365  3.6400000000000D+00  0.0000000000000D+00  0.0000000000000D+00
366  3.6500000000000D+00  0.0000000000000D+00  0.0000000000000D+00
367  3.6600000000000D+00  0.0000000000000D+00  0.0000000000000D+00
368  3.6700000000000D+00  0.0000000000000D+00  0.0000000000000D+00
369  3.6800000000000D+00  0.0000000000000D+00  0.0000000000000D+00
370  3.6900000000000D+00  0.0000000000000D+00  0.0000000000000D+00
371  3.7000000000000D+00  0.0000000000000D+00  0.0000000000000D+00
372  3.7100000000000D+00  0.0000000000000D+00  0.0000000000000D+00
373  3.7200000000000D+00  0.0000000000000D+00  0.0000000000000D+00
374  3.7300000000000D+00  0.0000000000000D+00  0.0000000000000D+00
375  3.7400000000000D+00  0.0000000000000D+00  0.0000000000000D+00
376  3.7500000000000D+00  0.0000000000000D+00  0.0000000000000D+00
377  3.7600000000000D+00  0.0000000000000D+00  0.0000000000000D+00
378  3.7700000000000D+00  0.0000000000000D+00  0.0000000000000D+00
379  3.7800000000000D+00  0.0000000000000D+00  0.0000000000000D+00
380  3.7900000000000D+00  0.0000000000000D+00  0.0000000000000D+00
381  3.8000000000000D+00  0.0000000000000D+00  0.0000000000000D+00
382  3.8100000000000D+00  0.0000000000000D+00  0.0000000000000D+00
383  3.8200000000000D+00  0.0000000000000D+00  0.0000000000000D+00
384  3.8300000000000D+00  0.0000000000000D+00  0.0000000000000D+00
385  3.8400000000000D+00  0.0000000000000D+00  0.0000000000000D+00
386  3.8500000000000D+00  0.0000000000000D+00  0.0000000000000D+00
387  3.8600000000000D+00  0.0000000000000D+00  0.0000000000000D+00
388  3.8700000000000D+00  0.0000000000000D+00  0.0000000000000D+00
389  3.8800000000000D+00  0.0000000000000D+00  0.0000000000000D+00
390  3.8900000000000D+00  0.0000000000000D+00  0.0000000000000D+00
391  3.9000000000000D+00  0.0000000000000D+00  0.0000000000000D+00
392  3.9100000000000D+00  0.0000000000000D+00  0.0000000000000D+00
393  3.9200000000000D+00  0.0000000000000D+00  0.0000000000000D+00
394  3.9300000000000D+00  0.0000000000000D+00  0.0000000000000D+00
395  3.9400000000000D+00  0.0000000000000D+00  0.0000000000000D+00
396  3.9500000000000D+00  0.0000000000000D+00  0.0000000000000D+00
397  3.9600000000000D+00  0.0000000000000D+00  0.0000000000000D+00
398  3.9700000000000D+00  0.0000000000000D+00  0.0000000000000D+00
399  3.9800000000000D+00  0.0000000000000D+00  0.0000000000000D+00
400  3.9900000000000D+00  0.0000000000000D+00  0.0000000000000D+00
401  4.0000000000000D+00  0.0000000000000D+00  0.0000000000000D+00
402  4.0100000000000D+00  0.0000000000000D+00  0.0000000000000D+00
403  4.0200000000000D+00  0.0000000000000D+00  0.0000000000000D+00
404  4.0300000000000D+00  0.0000000000000D+00  0.0000000000000D+00
405  4.0400000000000D+00  0.0000000000000D+00  0.0000000000000D+00
406  4.0500000000000D+00  0.0000000000000D+00  0.0000000000000D+00
407  4.0600000000000D+00  0.0000000000000D+00  0.0000000000000D+00
408  4.0700000000000D+00  0.0000000000000D+00  0.0000000000000D+00
409  4.0800000000000D+00  0.0000000000000D+00  0.0000000000000D+00
410  4.0900000000000D+00  0.0000000000000D+00  0.0000000000000D+00
411  4.1000000000000D+00  0.0000000000000D+00  0.0000000000000D+00
412  4.1100000000000D+00  0.0000000000000D+00  0.0000000000000D+00
413  4.1200000000000D+00  0.0000000000000D+00  0.0000000000000D+00
414  4.1300000000000D+00  0.0000000000000D+00  0.0000000000000D+00
415  4.1400000000000D+00  0.0000000000000D+00  0.0000000000000D+00
416  4.1500000000000D+00  0.0000000000000D+00  0.0000000000000D+00
417  4.1600000000000D+00  0.0000000000000D+00  0.0000000000000D+00
418  4.1700000000000D+00  0.0000000000000D+00  0.0000000000000D+00
419  4.1800000000000D+00  0.0000000000000D+00  0.0000000000000D+00
420  4.1900000000000D+00  0.0000000000000D+00  0.0000000000000D+00
421  4.2000000000000D+00  0.0000000000000D+00  0.0000000000000D+00
422  4.2100000000000D+00  0.0000000000000D+00  0.0000000000000D+00
423  4.2200000000000D+00  0.0000000000000D+00  0.0000000000000D+00
424  4.2300000000000D+00  0.0000000000000D+00  0.0000000000000D+00
425  4.2400000000000D+00  0.0000000000000D+00  0.0000000000000D+00
426  4.2500000000000D+00  0.0000000000000D+00  0.0000000000000D+00
427  4.2600000000000D+00  0.0000000000000D+00  0.0000000000000D+00
428  4.2700000000000D+00  0.0000000000000D+00  0.0000000000000D+00
429  4.2800000000000D+00  0.0000000000000D+00  0.0000000000000D+00
430  4.2900000000000D+00  0.0000000000000D+00  0.0000000000000D+00
431  4.3000000000000D+00  0.0000000000000D+00  0.0000000000000D+00
432  4.3100000000000D+00  0.0000000000000D+00  0.0000000000000D+00
433  4.3200000000000D+00  0.0000000000000D+00  0.0000000000000D+00
434  4.3300000000000D+00  0.0000000000000D+00  0.0000000000000D+00
435  4.3400000000000D+00  0.0000000000000D+00  0.0000000000000D+00
436  4.3500000000000D+00  0.0000000000000D+00  0.0000000000000D+00
437  4.3600000000000D+00  0.0000000000000D+00  0.0000000000000D+00
438  4.3700000000000D+00  0.0000000000000D+00  0.0000000000000D+00
439  4.3800000000000D+00  0.0000000000000D+00  0.0000000000000D+00
440  4.3900000000000D+00  0.0000000000000D+00  0.0000000000000D+00
441  4.4000000000000D+00  0.0000000000000D+00  0.0000000000000D+00
442  4.4100000000000D+00  0.0000000000000D+00  0.0000000000000D+00
443  4.4200000000000D+00  0.0000000000000D+00  0.0000000000000D+00
444  4.4300000000000D+00  0.0000000000000D+00  0.0000000000000D+00