V     ONCVPSP  r_core=  1.36  1.25  1.71
23.0000     13.0000      140908    zatom,zion,pspd
8    11     2     4   601     0    pspcod,pspxc,lmax,lloc,mmax,r2well
6.00000000  0.10000000  0.00000000    rchrg fchrg qchrg
2     2     2     0     0    nproj
0                 extension_switch
0                         1.0323221043606D+01  1.2044365816303D+00
1  0.0000000000000D+00 -0.0000000000000D+00  0.0000000000000D+00
2  1.0000000000000D-02 -8.9049493577052D-02  4.4028061097211D-02
3  2.0000000000000D-02 -1.7778131904727D-01  8.7528503248498D-02
4  3.0000000000000D-02 -2.6588032926815D-01  1.2998072131389D-01
5  4.0000000000000D-02 -3.5303638471012D-01  1.7087802738559D-01
6  5.0000000000000D-02 -4.3894677201797D-01  2.0973433524862D-01
7  6.0000000000000D-02 -5.2331852178995D-01  2.4609052083784D-01
8  7.0000000000000D-02 -6.0587059448437D-01  2.7952035893869D-01
9  8.0000000000000D-02 -6.8633590543189D-01  3.0963594320770D-01
10  9.0000000000000D-02 -7.6446316252588D-01  3.3609250510891D-01
11  1.0000000000000D-01 -8.4001849304791D-01  3.5859255692127D-01
12  1.1000000000000D-01 -9.1278683950758D-01  3.7688929519960D-01
13  1.2000000000000D-01 -9.8257310799883D-01  3.9078921302556D-01
14  1.3000000000000D-01 -1.0492030565446D+00  4.0015388237605D-01
15  1.4000000000000D-01 -1.1125239145995D+00  4.0490088065562D-01
16  1.5000000000000D-01 -1.1724047302152D+00  4.0500385160287D-01
17  1.6000000000000D-01 -1.2287364439002D+00  4.0049170166011D-01
18  1.7000000000000D-01 -1.2814316946146D+00  3.9144695020439D-01
19  1.8000000000000D-01 -1.3304243654401D+00  3.7800326381716D-01
20  1.9000000000000D-01 -1.3756688823234D+00  3.6034221916141D-01
21  2.0000000000000D-01 -1.4171392820670D+00  3.3868935176393D-01
22  2.1000000000000D-01 -1.4548280695285D+00  3.1330955848231D-01
23  2.2000000000000D-01 -1.4887448870814D+00  2.8450193226042D-01
24  2.3000000000000D-01 -1.5189150241262D+00  2.5259412480837D-01
25  2.4000000000000D-01 -1.5453777925088D+00  2.1793632214134D-01
26  2.5000000000000D-01 -1.5681847985541D+00  1.8089493831564D-01
27  2.6000000000000D-01 -1.5873981511065D+00  1.4184616283485D-01
28  2.7000000000000D-01 -1.6030886243880D+00  1.0116941847880D-01
29  2.8000000000000D-01 -1.6153338189222D+00  5.9240880812684D-02
30  2.9000000000000D-01 -1.6242163557290D+00  1.6427177381169D-02
31  3.0000000000000D-01 -1.6298221262238D+00 -2.6920661164525D-02
32  3.1000000000000D-01 -1.6322386398808D+00 -7.0472853177839D-02
33  3.2000000000000D-01 -1.6315534854173D+00 -1.1392607172262D-01
34  3.3000000000000D-01 -1.6278529338857D+00 -1.5700810641910D-01
35  3.4000000000000D-01 -1.6212207533850D+00 -1.9948174219426D-01
36  3.5000000000000D-01 -1.6117371393402D+00 -2.4114819241087D-01
37  3.6000000000000D-01 -1.5994779574566D+00 -2.8184940322292D-01
38  3.7000000000000D-01 -1.5845140876398D+00 -3.2146996027813D-01
39  3.8000000000000D-01 -1.5669111155692D+00 -3.5993775299996D-01
40  3.9000000000000D-01 -1.5467291960200D+00 -3.9722399931098D-01
41  4.0000000000000D-01 -1.5240231472924D+00 -4.3334242028934D-01
42  4.1000000000000D-01 -1.4988428126467D+00 -4.6834745239624D-01
43  4.2000000000000D-01 -1.4712336295767D+00 -5.0233169312190D-01
44  4.3000000000000D-01 -1.4412374076959D+00 -5.3542257551328D-01
45  4.4000000000000D-01 -1.4088933039548D+00 -5.6777831114935D-01
46  4.5000000000000D-01 -1.3742389715838D+00 -5.9958318069136D-01
47  4.6000000000000D-01 -1.3373118561525D+00 -6.3104226515267D-01
48  4.7000000000000D-01 -1.2981506072100D+00 -6.6237572450177D-01
49  4.8000000000000D-01 -1.2567966116743D+00 -6.9381256312429D-01
50  4.9000000000000D-01 -1.2132955532352D+00 -7.2558429611085D-01
51  5.0000000000000D-01 -1.1676990004023D+00 -7.5791843405891D-01
52  5.1000000000000D-01 -1.1200659555892D+00 -7.9103206780155D-01
53  5.2000000000000D-01 -1.0704645397264D+00 -8.2512475840465D-01
54  5.3000000000000D-01 -1.0189732769740D+00 -8.6037303691125D-01
55  5.4000000000000D-01 -9.6568252476792D-01 -8.9692409814812D-01
56  5.5000000000000D-01 -9.1069577241813D-01 -9.3488985616517D-01
57  5.6000000000000D-01 -8.5413038195848D-01 -9.7434325307846D-01
58  5.7000000000000D-01 -7.9611884566123D-01 -1.0153119581032D+00
59  5.8000000000000D-01 -7.3680884302610D-01 -1.0577772277354D+00
60  5.9000000000000D-01 -6.7636411478003D-01 -1.1016686143805D+00
61  6.0000000000000D-01 -6.1496406280236D-01 -1.1468643210407D+00
62  6.1000000000000D-01 -5.5280382253936D-01 -1.1931888127941D+00
63  6.2000000000000D-01 -4.9009367818539D-01 -1.2404131488988D+00
64  6.3000000000000D-01 -4.2705808938144D-01 -1.2882571048576D+00
65  6.4000000000000D-01 -3.6393488301115D-01 -1.3363891464737D+00
66  6.5000000000000D-01 -3.0097359854155D-01 -1.3844311612016D+00
67  6.6000000000000D-01 -2.3843394329525D-01 -1.4319620522224D+00
68  6.7000000000000D-01 -1.7658381354866D-01 -1.4785219402985D+00
69  6.8000000000000D-01 -1.1569710296623D-01 -1.5236185413512D+00
70  6.9000000000000D-01 -5.6051358079242D-02 -1.5667334794920D+00
71  7.0000000000000D-01  2.0746425409429D-03 -1.6073291044902D+00
72  7.1000000000000D-01  5.8403965965765D-02 -1.6448566934627D+00
73  7.2000000000000D-01  1.1266415116606D-01 -1.6787644587669D+00
74  7.3000000000000D-01  1.6459006553778D-01 -1.7085058933920D+00
75  7.4000000000000D-01  2.1392687127473D-01 -1.7335484861562D+00
76  7.5000000000000D-01  2.6043294327238D-01 -1.7533824506762D+00
77  7.6000000000000D-01  3.0388260034119D-01 -1.7675290461575D+00
78  7.7000000000000D-01  3.4406910661458D-01 -1.7755495841459D+00
79  7.8000000000000D-01  3.8080734950077D-01 -1.7770536845844D+00
80  7.9000000000000D-01  4.1393593892891D-01 -1.7717059908873D+00
81  8.0000000000000D-01  4.4331953769258D-01 -1.7592334005408D+00
82  8.1000000000000D-01  4.6885078768897D-01 -1.7394311969919D+00
83  8.2000000000000D-01  4.9045193535478D-01 -1.7121683067083D+00
84  8.3000000000000D-01  5.0807612608548D-01 -1.6773915810223D+00
85  8.4000000000000D-01  5.2170834201811D-01 -1.6351290167262D+00
86  8.5000000000000D-01  5.3136596258967D-01 -1.5854918452068D+00
87  8.6000000000000D-01  5.3709893268705D-01 -1.5286754369704D+00
88  8.7000000000000D-01  5.3898952891503D-01 -1.4649589864977D+00
89  8.8000000000000D-01  5.3715172046700D-01 -1.3947039612961D+00
90  8.9000000000000D-01  5.3173012722948D-01 -1.3183513185745D+00
91  9.0000000000000D-01  5.2289858402399D-01 -1.2364175129680D+00
92  9.1000000000000D-01  5.1085832621909D-01 -1.1494893389360D+00
93  9.2000000000000D-01  4.9583581824174D-01 -1.0582176715818D+00
94  9.3000000000000D-01  4.7808023863790D-01 -9.6331015583173D-01
95  9.4000000000000D-01  4.5786080756133D-01 -8.6552337883954D-01
96  9.5000000000000D-01  4.3546366182021D-01 -7.6565362798502D-01
97  9.6000000000000D-01  4.1118840869031D-01 -6.6452676346538D-01
98  9.7000000000000D-01  3.8534474484440D-01 -5.6298818209458D-01
99  9.8000000000000D-01  3.5824885987755D-01 -4.6189214803740D-01
100  9.9000000000000D-01  3.3021977030902D-01 -3.6209090943245D-01
101  1.0000000000000D+00  3.0157564006472D-01 -2.6442377551488D-01
102  1.0100000000000D+00  2.7263101529623D-01 -1.6970894448025D-01
103  1.0200000000000D+00  2.4369139125514D-01 -7.8727318434606D-02
104  1.0300000000000D+00  2.1505011913298D-01  7.7865792870333D-03
105  1.0400000000000D+00  1.8698597386370D-01  8.9151712091726D-02
106  1.0500000000000D+00  1.5975976536074D-01  1.6475046999896D-01
107  1.0600000000000D+00  1.3361239650534D-01  2.3403425751503D-01
108  1.0700000000000D+00  1.0876217527152D-01  2.9653128714770D-01
109  1.0800000000000D+00  8.5398132859658D-02  3.5186600240082D-01
110  1.0900000000000D+00  6.3683875164728D-02  3.9974727882602D-01
111  1.1000000000000D+00  4.3754559606517D-02  4.3997695067036D-01
112  1.1100000000000D+00  2.5718907966405D-02  4.7244360662043D-01
113  1.1200000000000D+00  9.6495982276699D-03  4.9714989778529D-01
114  1.1300000000000D+00 -4.4097682044407D-03  5.1419138734559D-01
115  1.1400000000000D+00 -1.6444503264105D-02  5.2375539903669D-01
116  1.1500000000000D+00 -2.6466027423775D-02  5.2611263788011D-01
117  1.1600000000000D+00 -3.4520781138757D-02  5.2164073931459D-01
118  1.1700000000000D+00 -4.0679539746578D-02  5.1079275864068D-01
119  1.1800000000000D+00 -4.5036219276703D-02  4.9409307286368D-01
120  1.1900000000000D+00 -4.7707710544449D-02  4.7213611289932D-01
121  1.2000000000000D+00 -4.8834955561963D-02  4.4558500598172D-01
122  1.2100000000000D+00 -4.8573440505400D-02  4.1514572968364D-01
123  1.2200000000000D+00 -4.7093268005636D-02  3.8156780315063D-01
124  1.2300000000000D+00 -4.4578826367831D-02  3.4563502529545D-01
125  1.2400000000000D+00 -4.1221011007713D-02  3.0814658418878D-01
126  1.2500000000000D+00 -3.7217926929561D-02  2.6992045049475D-01
127  1.2600000000000D+00 -3.2770082084887D-02  2.3177041561755D-01
128  1.2700000000000D+00 -2.8071976951624D-02  1.9448055811630D-01
129  1.2800000000000D+00 -2.3316754049110D-02  1.5882472768139D-01
130  1.2900000000000D+00 -1.8677823681132D-02  1.2549437657221D-01
131  1.3000000000000D+00 -1.4311119571093D-02  9.5113010661300D-02
132  1.3100000000000D+00 -1.0365202966011D-02  6.8274103934785D-02
133  1.3200000000000D+00 -6.9522140709341D-03  4.5432965379368D-02
134  1.3300000000000D+00 -4.1660365931920D-03  2.6977459984085D-02
135  1.3400000000000D+00 -2.0866267461370D-03  1.3242980270621D-02
136  1.3500000000000D+00 -7.8154232282406D-04  4.6141987207791D-03
137  1.3600000000000D+00 -2.1035258354547D-04  8.1946896512975D-04
138  1.3700000000000D+00 -1.0626987873469D-05 -2.4122608811212D-04
139  1.3800000000000D+00  2.4965288370598D-06 -6.3782603824609D-06
140  1.3900000000000D+00  7.1188264506459D-06 -1.8187544259751D-05
141  1.4000000000000D+00  0.0000000000000D+00  0.0000000000000D+00
142  1.4100000000000D+00  0.0000000000000D+00  0.0000000000000D+00
143  1.4200000000000D+00  0.0000000000000D+00  0.0000000000000D+00
144  1.4300000000000D+00  0.0000000000000D+00  0.0000000000000D+00
145  1.4400000000000D+00  0.0000000000000D+00  0.0000000000000D+00
146  1.4500000000000D+00  0.0000000000000D+00  0.0000000000000D+00
147  1.4600000000000D+00  0.0000000000000D+00  0.0000000000000D+00
148  1.4700000000000D+00  0.0000000000000D+00  0.0000000000000D+00
149  1.4800000000000D+00  0.0000000000000D+00  0.0000000000000D+00
150  1.4900000000000D+00  0.0000000000000D+00  0.0000000000000D+00
151  1.5000000000000D+00  0.0000000000000D+00  0.0000000000000D+00
152  1.5100000000000D+00  0.0000000000000D+00  0.0000000000000D+00
153  1.5200000000000D+00  0.0000000000000D+00  0.0000000000000D+00
154  1.5300000000000D+00  0.0000000000000D+00  0.0000000000000D+00
155  1.5400000000000D+00  0.0000000000000D+00  0.0000000000000D+00
156  1.5500000000000D+00  0.0000000000000D+00  0.0000000000000D+00
157  1.5600000000000D+00  0.0000000000000D+00  0.0000000000000D+00
158  1.5700000000000D+00  0.0000000000000D+00  0.0000000000000D+00
159  1.5800000000000D+00  0.0000000000000D+00  0.0000000000000D+00
160  1.5900000000000D+00  0.0000000000000D+00  0.0000000000000D+00
161  1.6000000000000D+00  0.0000000000000D+00  0.0000000000000D+00
162  1.6100000000000D+00  0.0000000000000D+00  0.0000000000000D+00
163  1.6200000000000D+00  0.0000000000000D+00  0.0000000000000D+00
164  1.6300000000000D+00  0.0000000000000D+00  0.0000000000000D+00
165  1.6400000000000D+00  0.0000000000000D+00  0.0000000000000D+00
166  1.6500000000000D+00  0.0000000000000D+00  0.0000000000000D+00
167  1.6600000000000D+00  0.0000000000000D+00  0.0000000000000D+00
168  1.6700000000000D+00  0.0000000000000D+00  0.0000000000000D+00
169  1.6800000000000D+00  0.0000000000000D+00  0.0000000000000D+00
170  1.6900000000000D+00  0.0000000000000D+00  0.0000000000000D+00
171  1.7000000000000D+00  0.0000000000000D+00  0.0000000000000D+00
172  1.7100000000000D+00  0.0000000000000D+00  0.0000000000000D+00
173  1.7200000000000D+00  0.0000000000000D+00  0.0000000000000D+00
174  1.7300000000000D+00  0.0000000000000D+00  0.0000000000000D+00
175  1.7400000000000D+00  0.0000000000000D+00  0.0000000000000D+00
176  1.7500000000000D+00  0.0000000000000D+00  0.0000000000000D+00
177  1.7600000000000D+00  0.0000000000000D+00  0.0000000000000D+00
178  1.7700000000000D+00  0.0000000000000D+00  0.0000000000000D+00
179  1.7800000000000D+00  0.0000000000000D+00  0.0000000000000D+00
180  1.7900000000000D+00  0.0000000000000D+00  0.0000000000000D+00
181  1.8000000000000D+00  0.0000000000000D+00  0.0000000000000D+00
182  1.8100000000000D+00  0.0000000000000D+00  0.0000000000000D+00
183  1.8200000000000D+00  0.0000000000000D+00  0.0000000000000D+00
184  1.8300000000000D+00  0.0000000000000D+00  0.0000000000000D+00
185  1.8400000000000D+00  0.0000000000000D+00  0.0000000000000D+00
186  1.8500000000000D+00  0.0000000000000D+00  0.0000000000000D+00
187  1.8600000000000D+00  0.0000000000000D+00  0.0000000000000D+00
188  1.8700000000000D+00  0.0000000000000D+00  0.0000000000000D+00
189  1.8800000000000D+00  0.0000000000000D+00  0.0000000000000D+00
190  1.8900000000000D+00  0.0000000000000D+00  0.0000000000000D+00
191  1.9000000000000D+00  0.0000000000000D+00  0.0000000000000D+00
192  1.9100000000000D+00  0.0000000000000D+00  0.0000000000000D+00
193  1.9200000000000D+00  0.0000000000000D+00  0.0000000000000D+00
194  1.9300000000000D+00  0.0000000000000D+00  0.0000000000000D+00
195  1.9400000000000D+00  0.0000000000000D+00  0.0000000000000D+00
196  1.9500000000000D+00  0.0000000000000D+00  0.0000000000000D+00
197  1.9600000000000D+00  0.0000000000000D+00  0.0000000000000D+00
198  1.9700000000000D+00  0.0000000000000D+00  0.0000000000000D+00
199  1.9800000000000D+00  0.0000000000000D+00  0.0000000000000D+00
200  1.9900000000000D+00  0.0000000000000D+00  0.0000000000000D+00
201  2.0000000000000D+00  0.0000000000000D+00  0.0000000000000D+00
202  2.0100000000000D+00  0.0000000000000D+00  0.0000000000000D+00
203  2.0200000000000D+00  0.0000000000000D+00  0.0000000000000D+00
204  2.0300000000000D+00  0.0000000000000D+00  0.0000000000000D+00
205  2.0400000000000D+00  0.0000000000000D+00  0.0000000000000D+00
206  2.0500000000000D+00  0.0000000000000D+00  0.0000000000000D+00
207  2.0600000000000D+00  0.0000000000000D+00  0.0000000000000D+00
208  2.0700000000000D+00  0.0000000000000D+00  0.0000000000000D+00
209  2.0800000000000D+00  0.0000000000000D+00  0.0000000000000D+00
210  2.0900000000000D+00  0.0000000000000D+00  0.0000000000000D+00
211  2.1000000000000D+00  0.0000000000000D+00  0.0000000000000D+00
212  2.1100000000000D+00  0.0000000000000D+00  0.0000000000000D+00
213  2.1200000000000D+00  0.0000000000000D+00  0.0000000000000D+00
214  2.1300000000000D+00  0.0000000000000D+00  0.0000000000000D+00
215  2.1400000000000D+00  0.0000000000000D+00  0.0000000000000D+00
216  2.1500000000000D+00  0.0000000000000D+00  0.0000000000000D+00
217  2.1600000000000D+00  0.0000000000000D+00  0.0000000000000D+00
218  2.1700000000000D+00  0.0000000000000D+00  0.0000000000000D+00
219  2.1800000000000D+00  0.0000000000000D+00  0.0000000000000D+00
220  2.1900000000000D+00  0.0000000000000D+00  0.0000000000000D+00
221  2.2000000000000D+00  0.0000000000000D+00  0.0000000000000D+00
222  2.2100000000000D+00  0.0000000000000D+00  0.0000000000000D+00
223  2.2200000000000D+00  0.0000000000000D+00  0.0000000000000D+00
224  2.2300000000000D+00  0.0000000000000D+00  0.0000000000000D+00
225  2.2400000000000D+00  0.0000000000000D+00  0.0000000000000D+00
226  2.2500000000000D+00  0.0000000000000D+00  0.0000000000000D+00
227  2.2600000000000D+00  0.0000000000000D+00  0.0000000000000D+00
228  2.2700000000000D+00  0.0000000000000D+00  0.0000000000000D+00
229  2.2800000000000D+00  0.0000000000000D+00  0.0000000000000D+00
230  2.2900000000000D+00  0.0000000000000D+00  0.0000000000000D+00
231  2.3000000000000D+00  0.0000000000000D+00  0.0000000000000D+00
232  2.3100000000000D+00  0.0000000000000D+00  0.0000000000000D+00
233  2.3200000000000D+00  0.0000000000000D+00  0.0000000000000D+00
234  2.3300000000000D+00  0.0000000000000D+00  0.0000000000000D+00
235  2.3400000000000D+00  0.0000000000000D+00  0.0000000000000D+00
236  2.3500000000000D+00  0.0000000000000D+00  0.0000000000000D+00
237  2.3600000000000D+00  0.0000000000000D+00  0.0000000000000D+00
238  2.3700000000000D+00  0.0000000000000D+00  0.0000000000000D+00
239  2.3800000000000D+00  0.0000000000000D+00  0.0000000000000D+00
240  2.3900000000000D+00  0.0000000000000D+00  0.0000000000000D+00
241  2.4000000000000D+00  0.0000000000000D+00  0.0000000000000D+00
242  2.4100000000000D+00  0.0000000000000D+00  0.0000000000000D+00
243  2.4200000000000D+00  0.0000000000000D+00  0.0000000000000D+00
244  2.4300000000000D+00  0.0000000000000D+00  0.0000000000000D+00
245  2.4400000000000D+00  0.0000000000000D+00  0.0000000000000D+00
246  2.4500000000000D+00  0.0000000000000D+00  0.0000000000000D+00
247  2.4600000000000D+00  0.0000000000000D+00  0.0000000000000D+00
248  2.4700000000000D+00  0.0000000000000D+00  0.0000000000000D+00
249  2.4800000000000D+00  0.0000000000000D+00  0.0000000000000D+00
250  2.4900000000000D+00  0.0000000000000D+00  0.0000000000000D+00
251  2.5000000000000D+00  0.0000000000000D+00  0.0000000000000D+00
252  2.5100000000000D+00  0.0000000000000D+00  0.0000000000000D+00
253  2.5200000000000D+00  0.0000000000000D+00  0.0000000000000D+00
254  2.5300000000000D+00  0.0000000000000D+00  0.0000000000000D+00
255  2.5400000000000D+00  0.0000000000000D+00  0.0000000000000D+00
256  2.5500000000000D+00  0.0000000000000D+00  0.0000000000000D+00
257  2.5600000000000D+00  0.0000000000000D+00  0.0000000000000D+00
258  2.5700000000000D+00  0.0000000000000D+00  0.0000000000000D+00
259  2.5800000000000D+00  0.0000000000000D+00  0.0000000000000D+00
260  2.5900000000000D+00  0.0000000000000D+00  0.0000000000000D+00
261  2.6000000000000D+00  0.0000000000000D+00  0.0000000000000D+00
262  2.6100000000000D+00  0.0000000000000D+00  0.0000000000000D+00
263  2.6200000000000D+00  0.0000000000000D+00  0.0000000000000D+00
264  2.6300000000000D+00  0.0000000000000D+00  0.0000000000000D+00
265  2.6400000000000D+00  0.0000000000000D+00  0.0000000000000D+00
266  2.6500000000000D+00  0.0000000000000D+00  0.0000000000000D+00
267  2.6600000000000D+00  0.0000000000000D+00  0.0000000000000D+00
268  2.6700000000000D+00  0.0000000000000D+00  0.0000000000000D+00
269  2.6800000000000D+00  0.0000000000000D+00  0.0000000000000D+00
270  2.6900000000000D+00  0.0000000000000D+00  0.0000000000000D+00
271  2.7000000000000D+00  0.0000000000000D+00  0.0000000000000D+00
272  2.7100000000000D+00  0.0000000000000D+00  0.0000000000000D+00
273  2.7200000000000D+00  0.0000000000000D+00  0.0000000000000D+00
274  2.7300000000000D+00  0.0000000000000D+00  0.0000000000000D+00
275  2.7400000000000D+00  0.0000000000000D+00  0.0000000000000D+00
276  2.7500000000000D+00  0.0000000000000D+00  0.0000000000000D+00
277  2.7600000000000D+00  0.0000000000000D+00  0.0000000000000D+00
278  2.7700000000000D+00  0.0000000000000D+00  0.0000000000000D+00
279  2.7800000000000D+00  0.0000000000000D+00  0.0000000000000D+00
280  2.7900000000000D+00  0.0000000000000D+00  0.0000000000000D+00
281  2.8000000000000D+00  0.0000000000000D+00  0.0000000000000D+00
282  2.8100000000000D+00  0.0000000000000D+00  0.0000000000000D+00
283  2.8200000000000D+00  0.0000000000000D+00  0.0000000000000D+00
284  2.8300000000000D+00  0.0000000000000D+00  0.0000000000000D+00
285  2.8400000000000D+00  0.0000000000000D+00  0.0000000000000D+00
286  2.8500000000000D+00  0.0000000000000D+00  0.0000000000000D+00
287  2.8600000000000D+00  0.0000000000000D+00  0.0000000000000D+00
288  2.8700000000000D+00  0.0000000000000D+00  0.0000000000000D+00
289  2.8800000000000D+00  0.0000000000000D+00  0.0000000000000D+00
290  2.8900000000000D+00  0.0000000000000D+00  0.0000000000000D+00
291  2.9000000000000D+00  0.0000000000000D+00  0.0000000000000D+00
292  2.9100000000000D+00  0.0000000000000D+00  0.0000000000000D+00
293  2.9200000000000D+00  0.0000000000000D+00  0.0000000000000D+00
294  2.9300000000000D+00  0.0000000000000D+00  0.0000000000000D+00
295  2.9400000000000D+00  0.0000000000000D+00  0.0000000000000D+00
296  2.9500000000000D+00  0.0000000000000D+00  0.0000000000000D+00
297  2.9600000000000D+00  0.0000000000000D+00  0.0000000000000D+00
298  2.9700000000000D+00  0.0000000000000D+00  0.0000000000000D+00
299  2.9800000000000D+00  0.0000000000000D+00  0.0000000000000D+00
300  2.9900000000000D+00  0.0000000000000D+00  0.0000000000000D+00
301  3.0000000000000D+00  0.0000000000000D+00  0.0000000000000D+00
302  3.0100000000000D+00  0.0000000000000D+00  0.0000000000000D+00
303  3.0200000000000D+00  0.0000000000000D+00  0.0000000000000D+00
304  3.0300000000000D+00  0.0000000000000D+00  0.0000000000000D+00
305  3.0400000000000D+00  0.0000000000000D+00  0.0000000000000D+00
306  3.0500000000000D+00  0.0000000000000D+00  0.0000000000000D+00
307  3.0600000000000D+00  0.0000000000000D+00  0.0000000000000D+00
308  3.0700000000000D+00  0.0000000000000D+00  0.0000000000000D+00
309  3.0800000000000D+00  0.0000000000000D+00  0.0000000000000D+00
310  3.0900000000000D+00  0.0000000000000D+00  0.0000000000000D+00
311  3.1000000000000D+00  0.0000000000000D+00  0.0000000000000D+00
312  3.1100000000000D+00  0.0000000000000D+00  0.0000000000000D+00
313  3.1200000000000D+00  0.0000000000000D+00  0.0000000000000D+00
314  3.1300000000000D+00  0.0000000000000D+00  0.0000000000000D+00
315  3.1400000000000D+00  0.0000000000000D+00  0.0000000000000D+00
316  3.1500000000000D+00  0.0000000000000D+00  0.0000000000000D+00
317  3.1600000000000D+00  0.0000000000000D+00  0.0000000000000D+00
318  3.1700000000000D+00  0.0000000000000D+00  0.0000000000000D+00
319  3.1800000000000D+00  0.0000000000000D+00  0.0000000000000D+00
320  3.1900000000000D+00  0.0000000000000D+00  0.0000000000000D+00
321  3.2000000000000D+00  0.0000000000000D+00  0.0000000000000D+00
322  3.2100000000000D+00  0.0000000000000D+00  0.0000000000000D+00
323  3.2200000000000D+00  0.0000000000000D+00  0.0000000000000D+00
324  3.2300000000000D+00  0.0000000000000D+00  0.0000000000000D+00
325  3.2400000000000D+00  0.0000000000000D+00  0.0000000000000D+00
326  3.2500000000000D+00  0.0000000000000D+00  0.0000000000000D+00
327  3.2600000000000D+00  0.0000000000000D+00  0.0000000000000D+00
328  3.2700000000000D+00  0.0000000000000D+00  0.0000000000000D+00
329  3.2800000000000D+00  0.0000000000000D+00  0.0000000000000D+00
330  3.2900000000000D+00  0.0000000000000D+00  0.0000000000000D+00
331  3.3000000000000D+00  0.0000000000000D+00  0.0000000000000D+00
332  3.3100000000000D+00  0.0000000000000D+00  0.0000000000000D+00
333  3.3200000000000D+00  0.0000000000000D+00  0.0000000000000D+00
334  3.3300000000000D+00  0.0000000000000D+00  0.0000000000000D+00
335  3.3400000000000D+00  0.0000000000000D+00  0.0000000000000D+00
336  3.3500000000000D+00  0.0000000000000D+00  0.0000000000000D+00
337  3.3600000000000D+00  0.0000000000000D+00  0.0000000000000D+00
338  3.3700000000000D+00  0.0000000000000D+00  0.0000000000000D+00
339  3.3800000000000D+00  0.0000000000000D+00  0.0000000000000D+00
340  3.3900000000000D+00  0.0000000000000D+00  0.0000000000000D+00
341  3.4000000000000D+00  0.0000000000000D+00  0.0000000000000D+00
342  3.4100000000000D+00  0.0000000000000D+00  0.0000000000000D+00
343  3.4200000000000D+00  0.0000000000000D+00  0.0000000000000D+00
344  3.4300000000000D+00  0.0000000000000D+00  0.0000000000000D+00
345  3.4400000000000D+00  0.0000000000000D+00  0.0000000000000D+00
346  3.4500000000000D+00  0.0000000000000D+00  0.0000000000000D+00
347  3.4600000000000D+00  0.0000000000000D+00  0.0000000000000D+00
348  3.4700000000000D+00  0.0000000000000D+00  0.0000000000000D+00
349  3.4800000000000D+00  0.0000000000000D+00  0.0000000000000D+00
350  3.4900000000000D+00  0.0000000000000D+00  0.0000000000000D+00
351  3.5000000000000D+00  0.0000000000000D+00  0.0000000000000D+00
352  3.5100000000000D+00  0.0000000000000D+00  0.0000000000000D+00
353  3.5200000000000D+00  0.0000000000000D+00  0.0000000000000D+00
354  3.5300000000000D+00  0.0000000000000D+00  0.0000000000000D+00
355  3.5400000000000D+00  0.0000000000000D+00  0.0000000000000D+00
356  3.5500000000000D+00  0.0000000000000D+00  0.0000000000000D+00
357  3.5600000000000D+00  0.0000000000000D+00  0.0000000000000D+00
358  3.5700000000000D+00  0.0000000000000D+00  0.0000000000000D+00
359  3.5800000000000D+00  0.0000000000000D+00  0.0000000000000D+00
360  3.5900000000000D+00  0.0000000000000D+00  0.0000000000000D+00
361  3.6000000000000D+00  0.0000000000000D+00  0.0000000000000D+00
362  3.6100000000000D+00  0.0000000000000D+00  0.0000000000000D+00
363  3.6200000000000D+00  0.0000000000000D+00  0.0000000000000D+00
364  3.6300000000000D+00  0.0000000000000D+00  0.0000000000000D+00
365  3.6400000000000D+00  0.0000000000000D+00  0.0000000000000D+00
366  3.6500000000000D+00  0.0000000000000D+00  0.0000000000000D+00
367  3.6600000000000D+00  0.0000000000000D+00  0.0000000000000D+00
368  3.6700000000000D+00  0.0000000000000D+00  0.0000000000000D+00
369  3.6800000000000D+00  0.0000000000000D+00  0.0000000000000D+00
370  3.6900000000000D+00  0.0000000000000D+00  0.0000000000000D+00
371  3.7000000000000D+00  0.0000000000000D+00  0.0000000000000D+00
372  3.7100000000000D+00  0.0000000000000D+00  0.0000000000000D+00
373  3.7200000000000D+00  0.0000000000000D+00  0.0000000000000D+00
374  3.7300000000000D+00  0.0000000000000D+00  0.0000000000000D+00
375  3.7400000000000D+00  0.0000000000000D+00  0.0000000000000D+00
376  3.7500000000000D+00  0.0000000000000D+00  0.0000000000000D+00
377  3.7600000000000D+00  0.0000000000000D+00  0.0000000000000D+00
378  3.7700000000000D+00  0.0000000000000D+00  0.0000000000000D+00
379  3.7800000000000D+00  0.0000000000000D+00  0.0000000000000D+00
380  3.7900000000000D+00  0.0000000000000D+00  0.0000000000000D+00
381  3.8000000000000D+00  0.0000000000000D+00  0.0000000000000D+00
382  3.8100000000000D+00  0.0000000000000D+00  0.0000000000000D+00
383  3.8200000000000D+00  0.0000000000000D+00  0.0000000000000D+00
384  3.8300000000000D+00  0.0000000000000D+00  0.0000000000000D+00
385  3.8400000000000D+00  0.0000000000000D+00  0.0000000000000D+00
386  3.8500000000000D+00  0.0000000000000D+00  0.0000000000000D+00
387  3.8600000000000D+00  0.0000000000000D+00  0.0000000000000D+00
388  3.8700000000000D+00  0.0000000000000D+00  0.0000000000000D+00
389  3.8800000000000D+00  0.0000000000000D+00  0.0000000000000D+00
390  3.8900000000000D+00  0.0000000000000D+00  0.0000000000000D+00
391  3.9000000000000D+00  0.0000000000000D+00  0.0000000000000D+00
392  3.9100000000000D+00  0.0000000000000D+00  0.0000000000000D+00
393  3.9200000000000D+00  0.0000000000000D+00  0.0000000000000D+00
394  3.9300000000000D+00  0.0000000000000D+00  0.0000000000000D+00
395  3.9400000000000D+00  0.0000000000000D+00  0.0000000000000D+00
396  3.9500000000000D+00  0.0000000000000D+00  0.0000000000000D+00
397  3.9600000000000D+00  0.0000000000000D+00  0.0000000000000D+00
398  3.9700000000000D+00  0.0000000000000D+00  0.0000000000000D+00
399  3.9800000000000D+00  0.0000000000000D+00  0.0000000000000D+00
400  3.9900000000000D+00  0.0000000000000D+00  0.0000000000000D+00
401  4.0000000000000D+00  0.0000000000000D+00  0.0000000000000D+00
402  4.0100000000000D+00  0.0000000000000D+00  0.0000000000000D+00
403  4.0200000000000D+00  0.0000000000000D+00  0.0000000000000D+00
404  4.0300000000000D+00  0.0000000000000D+00  0.0000000000000D+00
405  4.0400000000000D+00  0.0000000000000D+00  0.0000000000000D+00
406  4.0500000000000D+00  0.0000000000000D+00  0.0000000000000D+00
407  4.0600000000000D+00  0.0000000000000D+00  0.0000000000000D+00
408  4.0700000000000D+00  0.0000000000000D+00  0.0000000000000D+00
409  4.0800000000000D+00  0.0000000000000D+00  0.0000000000000D+00
410  4.0900000000000D+00  0.0000000000000D+00  0.0000000000000D+00
411  4.1000000000000D+00  0.0000000000000D+00  0.0000000000000D+00
412  4.1100000000000D+00  0.0000000000000D+00  0.0000000000000D+00
413  4.1200000000000D+00  0.0000000000000D+00  0.0000000000000D+00
414  4.1300000000000D+00  0.0000000000000D+00  0.0000000000000D+00
415  4.1400000000000D+00  0.0000000000000D+00  0.0000000000000D+00
416  4.1500000000000D+00  0.0000000000000D+00  0.0000000000000D+00
417  4.1600000000000D+00  0.0000000000000D+00  0.0000000000000D+00
418  4.1700000000000D+00  0.0000000000000D+00  0.0000000000000D+00
419  4.1800000000000D+00  0.0000000000000D+00  0.0000000000000D+00
420  4.1900000000000D+00  0.0000000000000D+00  0.0000000000000D+00
421  4.2000000000000D+00  0.0000000000000D+00  0.0000000000000D+00
422  4.2100000000000D+00  0.0000000000000D+00  0.0000000000000D+00
423  4.2200000000000D+00  0.0000000000000D+00  0.0000000000000D+00
424  4.2300000000000D+00  0.0000000000000D+00  0.0000000000000D+00
425  4.2400000000000D+00  0.0000000000000D+00  0.0000000000000D+00
426  4.2500000000000D+00  0.0000000000000D+00  0.0000000000000D+00
427  4.2600000000000D+00  0.0000000000000D+00  0.0000000000000D+00
428  4.2700000000000D+00  0.0000000000000D+00  0.0000000000000D+00
429  4.2800000000000D+00  0.0000000000000D+00  0.0000000000000D+00
430  4.2900000000000D+00  0.0000000000000D+00  0.0000000000000D+00
431  4.3000000000000D+00  0.0000000000000D+00  0.0000000000000D+00
432  4.3100000000000D+00  0.0000000000000D+00  0.0000000000000D+00
433  4.3200000000000D+00  0.0000000000000D+00  0.0000000000000D+00
434  4.3300000000000D+00  0.0000000000000D+00  0.0000000000000D+00
435  4.3400000000000D+00  0.0000000000000D+00  0.0000000000000D+00
436  4.3500000000000D+00  0.0000000000000D+00  0.0000000000000D+00
437  4.3600000000000D+00  0.0000000000000D+00  0.0000000000000D+00
438  4.3700000000000D+00  0.0000000000000D+00  0.0000000000000D+00
439  4.3800000000000D+00  0.0000000000000D+00  0.0000000000000D+00
440  4.3900000000000D+00  0.0000000000000D+00  0.0000000000000D+00
441  4.4000000000000D+00  0.0000000000000D+00  0.0000000000000D+00
442  4.4100000000000D+00  0.0000000000000D+00  0.0000000000000D+00
443  4.4200000000000D+00  0.0000000000000D+00  0.0000000000000D+00
444  4.4300000000000D+00  0.0000000000000D+00  0.0000000000000D+00