Tc    ONCVPSP-3.2.3  r_core=   1.40470   1.40470   1.35532
43.0000     15.0000      161006    zatom,zion,pspd
8   -1012   2     4   600     0    pspcod,pspxc,lmax,lloc,mmax,r2well
5.99000000  5.00000000  0.00000000    rchrg fchrg qchrg
2     2     2     0     0    nproj
1     1           extension_switch
0                         1.4275454184441D+01  1.4062090140074D+00
1  0.0000000000000D+00 -5.3546367340118D-10  2.5116392576852D-09
2  1.0000000000000D-02  5.9932739386574D-02 -3.2197081653248D-02
3  2.0000000000000D-02  1.1976551876694D-01 -6.4172002377155D-02
4  3.0000000000000D-02  1.7939885932678D-01 -9.5705175312510D-02
5  4.0000000000000D-02  2.3873423674311D-01 -1.2658212056190D-01
6  5.0000000000000D-02  2.9767453883800D-01 -1.5659591637600D-01
7  6.0000000000000D-02  3.5612450010973D-01 -1.8554952940121D-01
8  7.0000000000000D-02  4.1399110607325D-01 -2.1325798667212D-01
9  8.0000000000000D-02  4.7118396087773D-01 -2.3955035454366D-01
10  9.0000000000000D-02  5.2761561232192D-01 -2.6427149282775D-01
11  1.0000000000000D-01  5.8320182914993D-01 -2.8728355598114D-01
12  1.1000000000000D-01  6.3786182636684D-01 -3.0846721723373D-01
13  1.2000000000000D-01  6.9151843525331D-01 -3.2772259598807D-01
14  1.3000000000000D-01  7.4409821576551D-01 -3.4496987359691D-01
15  1.4000000000000D-01  7.9553151006479D-01 -3.6014958766290D-01
16  1.5000000000000D-01  8.4575243701481D-01 -3.7322260022949D-01
17  1.6000000000000D-01  8.9469882859288D-01 -3.8416974056322D-01
18  1.7000000000000D-01  9.4231211027050D-01 -3.9299112858591D-01
19  1.8000000000000D-01  9.8853712850594D-01 -3.9970519031651D-01
20  1.9000000000000D-01  1.0333219295418D+00 -4.0434738184618D-01
21  2.0000000000000D-01  1.0766174946940D+00 -4.0696864331370D-01
22  2.1000000000000D-01  1.1183774382391D+00 -4.0763360899481D-01
23  2.2000000000000D-01  1.1585576748370D+00 -4.0641860389254D-01
24  2.3000000000000D-01  1.1971160641524D+00 -4.0340946104621D-01
25  2.4000000000000D-01  1.2340120409426D+00 -3.9869919710041D-01
26  2.5000000000000D-01  1.2692062393567D+00 -3.9238558643393D-01
27  2.6000000000000D-01  1.3026601205222D+00 -3.8456867629304D-01
28  2.7000000000000D-01  1.3343356126795D+00 -3.7534828686178D-01
29  2.8000000000000D-01  1.3641947731507D+00 -3.6482154100296D-01
30  2.9000000000000D-01  1.3921994812953D+00 -3.5308046849437D-01
31  3.0000000000000D-01  1.4183111713108D+00 -3.4020972895513D-01
32  3.1000000000000D-01  1.4424906132797D+00 -3.2628449630395D-01
33  3.2000000000000D-01  1.4646977502497D+00 -3.1136854552762D-01
34  3.3000000000000D-01  1.4848915983722D+00 -2.9551257978201D-01
35  3.4000000000000D-01  1.5030302162153D+00 -2.7875283243375D-01
36  3.5000000000000D-01  1.5190707483294D+00 -2.6110997461990D-01
37  3.6000000000000D-01  1.5329695469881D+00 -2.4258835430729D-01
38  3.7000000000000D-01  1.5446823747684D+00 -2.2317558773768D-01
39  3.8000000000000D-01  1.5541646892882D+00 -2.0284251861606D-01
40  3.9000000000000D-01  1.5613720100113D+00 -1.8154355452094D-01
41  4.0000000000000D-01  1.5662603655758D+00 -1.5921738386945D-01
42  4.1000000000000D-01  1.5687868186196D+00 -1.3578807044951D-01
43  4.2000000000000D-01  1.5689100636047D+00 -1.1116651613159D-01
44  4.3000000000000D-01  1.5665910916807D+00 -8.5252275993674D-02
45  4.4000000000000D-01  1.5617939152236D+00 -5.7935703832487D-02
46  4.5000000000000D-01  1.5544863433471D+00 -2.9100399996246D-02
47  4.6000000000000D-01  1.5446407984386D+00  1.3740722443870D-03
48  4.7000000000000D-01  1.5322351626441D+00  3.3609240873516D-02
49  4.8000000000000D-01  1.5172536422348D+00  6.7724593735610D-02
50  4.9000000000000D-01  1.4996876369525D+00  1.0383430965216D-01
51  5.0000000000000D-01  1.4795366007673D+00  1.4204390366109D-01
52  5.1000000000000D-01  1.4568088800107D+00  1.8244684078066D-01
53  5.2000000000000D-01  1.4315225145742D+00  2.2512117468948D-01
54  5.3000000000000D-01  1.4037059878035D+00  2.7012626885521D-01
55  5.4000000000000D-01  1.3733989108773D+00  3.1749965790507D-01
56  5.5000000000000D-01  1.3406526278418D+00  3.6725410638264D-01
57  5.6000000000000D-01  1.3055307280736D+00  4.1937492047315D-01
58  5.7000000000000D-01  1.2681094537664D+00  4.7381756581154D-01
59  5.8000000000000D-01  1.2284779910762D+00  5.3050564111713D-01
60  5.9000000000000D-01  1.1867386347932D+00  5.8932925319353D-01
61  6.0000000000000D-01  1.1430068178429D+00  6.5014383378775D-01
62  6.1000000000000D-01  1.0974109985162D+00  7.1276943304581D-01
63  6.2000000000000D-01  1.0500924000850D+00  7.7699051784214D-01
64  6.3000000000000D-01  1.0012045993490D+00  8.4255629622337D-01
65  6.4000000000000D-01  9.5091296264390D-01  9.0918158170475D-01
66  6.5000000000000D-01  8.9939392992080D-01  9.7654820321799D-01
67  6.6000000000000D-01  8.4683414962233D-01  1.0443069583584D+00
68  6.7000000000000D-01  7.9342946921744D-01  1.1120800992614D+00
69  6.8000000000000D-01  7.3938378839135D-01  1.1794643320751D+00
70  6.9000000000000D-01  6.8490778396576D-01  1.2460343027754D+00
71  7.0000000000000D-01  6.3021751762686D-01  1.3113465340879D+00
72  7.1000000000000D-01  5.7553293944379D-01  1.3749437706259D+00
73  7.2000000000000D-01  5.2107630191595D-01  1.4363596822284D+00
74  7.3000000000000D-01  4.6707050087956D-01  1.4951238689526D+00
75  7.4000000000000D-01  4.1373736100305D-01  1.5507671053578D+00
76  7.5000000000000D-01  3.6129588477472D-01  1.6028267567534D+00
77  7.6000000000000D-01  3.0996048482799D-01  1.6508522959906D+00
78  7.7000000000000D-01  2.5993922012281D-01  1.6944108463188D+00
79  7.8000000000000D-01  2.1143205690506D-01  1.7330926738107D+00
80  7.9000000000000D-01  1.6462917548276D-01  1.7665165519481D+00
81  8.0000000000000D-01  1.1970934368166D-01  1.7943349211950D+00
82  8.1000000000000D-01  7.6838377372852D-02  1.8162387677691D+00
83  8.2000000000000D-01  3.6167707701180D-02  1.8319621483613D+00
84  8.3000000000000D-01 -2.1669264062943D-03  1.8412862912195D+00
85  8.4000000000000D-01 -3.8046643197221D-02  1.8440432087712D+00
86  8.5000000000000D-01 -7.1370424846657D-02  1.8401187627523D+00
87  8.6000000000000D-01 -1.0205595216058D-01  1.8294551295596D+00
88  8.7000000000000D-01 -1.3004025542685D-01  1.8120526211653D+00
89  8.8000000000000D-01 -1.5528017184075D-01  1.7879708253153D+00
90  8.9000000000000D-01 -1.7775260232156D-01  1.7573290377624D+00
91  9.0000000000000D-01 -1.9745456305130D-01  1.7203059688273D+00
92  9.1000000000000D-01 -2.1440302967066D-01  1.6771387164971D+00
93  9.2000000000000D-01 -2.2863457472282D-01  1.6281210084126D+00
94  9.3000000000000D-01 -2.4020480160474D-01  1.5736007253098D+00
95  9.4000000000000D-01 -2.4918758092734D-01  1.5139767286093D+00
96  9.5000000000000D-01 -2.5567409776169D-01  1.4496950247352D+00
97  9.6000000000000D-01 -2.5977172071884D-01  1.3812443082345D+00
98  9.7000000000000D-01 -2.6160270613691D-01  1.3091509347074D+00
99  9.8000000000000D-01 -2.6130275280327D-01  1.2339733828321D+00
100  9.9000000000000D-01 -2.5901942456923D-01  1.1562962721732D+00
101  1.0000000000000D+00 -2.5491045989261D-01  1.0767240098846D+00
102  1.0100000000000D+00 -2.4914198880559D-01  9.9587414499741D-01
103  1.0200000000000D+00 -2.4188667889462D-01  9.1437051310491D-01
104  1.0300000000000D+00 -2.3332183271353D-01  8.3283625737603D-01
105  1.0400000000000D+00 -2.2362745954314D-01  7.5188681360617D-01
106  1.0500000000000D+00 -2.1298434453158D-01  6.7212294732420D-01
107  1.0600000000000D+00 -2.0157213813424D-01  5.9412393037752D-01
108  1.0700000000000D+00 -1.8956748818272D-01  5.1844094191642D-01
109  1.0800000000000D+00 -1.7714223609590D-01  4.4559077534193D-01
110  1.0900000000000D+00 -1.6446169756479D-01  3.7604992796465D-01
111  1.1000000000000D+00 -1.5168304647361D-01  3.1024914378195D-01
112  1.1100000000000D+00 -1.3895381935837D-01  2.4856847389058D-01
113  1.1200000000000D+00 -1.2641055529830D-01  1.9133290939570D-01
114  1.1300000000000D+00 -1.1417758422244D-01  1.3880863402097D-01
115  1.1400000000000D+00 -1.0236597377909D-01  9.1199932297855D-02
116  1.1500000000000D+00 -9.1072643129309D-02  4.8646782081162D-02
117  1.1600000000000D+00 -8.0379648382638D-02  1.1223145622916D-02
118  1.1700000000000D+00 -7.0353640799194D-02 -2.1064043154958D-02
119  1.1800000000000D+00 -6.1045497067399D-02 -4.8275199938913D-02
120  1.1900000000000D+00 -5.2490171778882D-02 -7.0537458087571D-02
121  1.2000000000000D+00 -4.4706549170838D-02 -8.8044271216964D-02
122  1.2100000000000D+00 -3.7697629064688D-02 -1.0105345682903D-01
123  1.2200000000000D+00 -3.1452421378060D-02 -1.0987590131456D-01
124  1.2300000000000D+00 -2.5948321590300D-02 -1.1486265291177D-01
125  1.2400000000000D+00 -2.1153387444073D-02 -1.1639332058487D-01
126  1.2500000000000D+00 -1.7027390029729D-02 -1.1487180134674D-01
127  1.2600000000000D+00 -1.3523278440268D-02 -1.1071980457425D-01
128  1.2700000000000D+00 -1.0588655704111D-02 -1.0437045618101D-01
129  1.2800000000000D+00 -8.1673044938342D-03 -9.6261733132701D-02
130  1.2900000000000D+00 -6.2007249105069D-03 -8.6829897165179D-02
131  1.3000000000000D+00 -4.6296695330429D-03 -7.6502972479990D-02
132  1.3100000000000D+00 -3.3956511782970D-03 -6.5694368288181D-02
133  1.3200000000000D+00 -2.4424000971778D-03 -5.4796738698933D-02
134  1.3300000000000D+00 -1.7172496945907D-03 -4.4176163015713D-02
135  1.3400000000000D+00 -1.1724294901980D-03 -3.4166730979065D-02
136  1.3500000000000D+00 -7.6624551305443D-04 -2.5065611612466D-02
137  1.3600000000000D+00 -4.6415861771379D-04 -1.7132885620394D-02
138  1.3700000000000D+00 -2.3957192913542D-04 -1.0568723784668D-02
139  1.3800000000000D+00 -7.5474247091669D-05 -5.5043155152464D-03
140  1.3900000000000D+00  4.0398332527235D-05 -2.2046530942005D-03
141  1.4000000000000D+00  1.0400627110119D-04 -6.3901061365400D-04
142  1.4100000000000D+00  8.0385186372237D-05 -1.0724655112338D-04
143  1.4200000000000D+00  9.2254248517537D-06 -1.2612543882395D-06
144  1.4300000000000D+00 -1.2474930037140D-05 -4.2227296724913D-06
145  1.4400000000000D+00  8.5736600431973D-07 -3.5329542938002D-07
146  1.4500000000000D+00  2.3103015065402D-06 -4.9695976912370D-07
147  1.4600000000000D+00 -2.2191195782743D-07  6.5340641214018D-07
148  1.4700000000000D+00 -1.6200971799952D-07  4.7702786999980D-07
149  1.4800000000000D+00  0.0000000000000D+00  0.0000000000000D+00
150  1.4900000000000D+00  0.0000000000000D+00  0.0000000000000D+00
151  1.5000000000000D+00  0.0000000000000D+00  0.0000000000000D+00
152  1.5100000000000D+00  0.0000000000000D+00  0.0000000000000D+00
153  1.5200000000000D+00  0.0000000000000D+00  0.0000000000000D+00
154  1.5300000000000D+00  0.0000000000000D+00  0.0000000000000D+00
155  1.5400000000000D+00  0.0000000000000D+00  0.0000000000000D+00
156  1.5500000000000D+00  0.0000000000000D+00  0.0000000000000D+00
157  1.5600000000000D+00  0.0000000000000D+00  0.0000000000000D+00
158  1.5700000000000D+00  0.0000000000000D+00  0.0000000000000D+00
159  1.5800000000000D+00  0.0000000000000D+00  0.0000000000000D+00
160  1.5900000000000D+00  0.0000000000000D+00  0.0000000000000D+00
161  1.6000000000000D+00  0.0000000000000D+00  0.0000000000000D+00
162  1.6100000000000D+00  0.0000000000000D+00  0.0000000000000D+00
163  1.6200000000000D+00  0.0000000000000D+00  0.0000000000000D+00
164  1.6300000000000D+00  0.0000000000000D+00  0.0000000000000D+00
165  1.6400000000000D+00  0.0000000000000D+00  0.0000000000000D+00
166  1.6500000000000D+00  0.0000000000000D+00  0.0000000000000D+00
167  1.6600000000000D+00  0.0000000000000D+00  0.0000000000000D+00
168  1.6700000000000D+00  0.0000000000000D+00  0.0000000000000D+00
169  1.6800000000000D+00  0.0000000000000D+00  0.0000000000000D+00
170  1.6900000000000D+00  0.0000000000000D+00  0.0000000000000D+00
171  1.7000000000000D+00  0.0000000000000D+00  0.0000000000000D+00
172  1.7100000000000D+00  0.0000000000000D+00  0.0000000000000D+00
173  1.7200000000000D+00  0.0000000000000D+00  0.0000000000000D+00
174  1.7300000000000D+00  0.0000000000000D+00  0.0000000000000D+00
175  1.7400000000000D+00  0.0000000000000D+00  0.0000000000000D+00
176  1.7500000000000D+00  0.0000000000000D+00  0.0000000000000D+00
177  1.7600000000000D+00  0.0000000000000D+00  0.0000000000000D+00
178  1.7700000000000D+00  0.0000000000000D+00  0.0000000000000D+00
179  1.7800000000000D+00  0.0000000000000D+00  0.0000000000000D+00
180  1.7900000000000D+00  0.0000000000000D+00  0.0000000000000D+00
181  1.8000000000000D+00  0.0000000000000D+00  0.0000000000000D+00
182  1.8100000000000D+00  0.0000000000000D+00  0.0000000000000D+00
183  1.8200000000000D+00  0.0000000000000D+00  0.0000000000000D+00
184  1.8300000000000D+00  0.0000000000000D+00  0.0000000000000D+00
185  1.8400000000000D+00  0.0000000000000D+00  0.0000000000000D+00
186  1.8500000000000D+00  0.0000000000000D+00  0.0000000000000D+00
187  1.8600000000000D+00  0.0000000000000D+00  0.0000000000000D+00
188  1.8700000000000D+00  0.0000000000000D+00  0.0000000000000D+00
189  1.8800000000000D+00  0.0000000000000D+00  0.0000000000000D+00
190  1.8900000000000D+00  0.0000000000000D+00  0.0000000000000D+00
191  1.9000000000000D+00  0.0000000000000D+00  0.0000000000000D+00
192  1.9100000000000D+00  0.0000000000000D+00  0.0000000000000D+00
193  1.9200000000000D+00  0.0000000000000D+00  0.0000000000000D+00
194  1.9300000000000D+00  0.0000000000000D+00  0.0000000000000D+00
195  1.9400000000000D+00  0.0000000000000D+00  0.0000000000000D+00
196  1.9500000000000D+00  0.0000000000000D+00  0.0000000000000D+00
197  1.9600000000000D+00  0.0000000000000D+00  0.0000000000000D+00
198  1.9700000000000D+00  0.0000000000000D+00  0.0000000000000D+00
199  1.9800000000000D+00  0.0000000000000D+00  0.0000000000000D+00
200  1.9900000000000D+00  0.0000000000000D+00  0.0000000000000D+00
201  2.0000000000000D+00  0.0000000000000D+00  0.0000000000000D+00
202  2.0100000000000D+00  0.0000000000000D+00  0.0000000000000D+00
203  2.0200000000000D+00  0.0000000000000D+00  0.0000000000000D+00
204  2.0300000000000D+00  0.0000000000000D+00  0.0000000000000D+00
205  2.0400000000000D+00  0.0000000000000D+00  0.0000000000000D+00
206  2.0500000000000D+00  0.0000000000000D+00  0.0000000000000D+00
207  2.0600000000000D+00  0.0000000000000D+00  0.0000000000000D+00
208  2.0700000000000D+00  0.0000000000000D+00  0.0000000000000D+00
209  2.0800000000000D+00  0.0000000000000D+00  0.0000000000000D+00
210  2.0900000000000D+00  0.0000000000000D+00  0.0000000000000D+00
211  2.1000000000000D+00  0.0000000000000D+00  0.0000000000000D+00
212  2.1100000000000D+00  0.0000000000000D+00  0.0000000000000D+00
213  2.1200000000000D+00  0.0000000000000D+00  0.0000000000000D+00
214  2.1300000000000D+00  0.0000000000000D+00  0.0000000000000D+00
215  2.1400000000000D+00  0.0000000000000D+00  0.0000000000000D+00
216  2.1500000000000D+00  0.0000000000000D+00  0.0000000000000D+00
217  2.1600000000000D+00  0.0000000000000D+00  0.0000000000000D+00
218  2.1700000000000D+00  0.0000000000000D+00  0.0000000000000D+00
219  2.1800000000000D+00  0.0000000000000D+00  0.0000000000000D+00
220  2.1900000000000D+00  0.0000000000000D+00  0.0000000000000D+00
221  2.2000000000000D+00  0.0000000000000D+00  0.0000000000000D+00
222  2.2100000000000D+00  0.0000000000000D+00  0.0000000000000D+00
223  2.2200000000000D+00  0.0000000000000D+00  0.0000000000000D+00
224  2.2300000000000D+00  0.0000000000000D+00  0.0000000000000D+00
225  2.2400000000000D+00  0.0000000000000D+00  0.0000000000000D+00
226  2.2500000000000D+00  0.0000000000000D+00  0.0000000000000D+00
227  2.2600000000000D+00  0.0000000000000D+00  0.0000000000000D+00
228  2.2700000000000D+00  0.0000000000000D+00  0.0000000000000D+00
229  2.2800000000000D+00  0.0000000000000D+00  0.0000000000000D+00
230  2.2900000000000D+00  0.0000000000000D+00  0.0000000000000D+00
231  2.3000000000000D+00  0.0000000000000D+00  0.0000000000000D+00
232  2.3100000000000D+00  0.0000000000000D+00  0.0000000000000D+00
233  2.3200000000000D+00  0.0000000000000D+00  0.0000000000000D+00
234  2.3300000000000D+00  0.0000000000000D+00  0.0000000000000D+00
235  2.3400000000000D+00  0.0000000000000D+00  0.0000000000000D+00
236  2.3500000000000D+00  0.0000000000000D+00  0.0000000000000D+00
237  2.3600000000000D+00  0.0000000000000D+00  0.0000000000000D+00
238  2.3700000000000D+00  0.0000000000000D+00  0.0000000000000D+00
239  2.3800000000000D+00  0.0000000000000D+00  0.0000000000000D+00
240  2.3900000000000D+00  0.0000000000000D+00  0.0000000000000D+00
241  2.4000000000000D+00  0.0000000000000D+00  0.0000000000000D+00
242  2.4100000000000D+00  0.0000000000000D+00  0.0000000000000D+00
243  2.4200000000000D+00  0.0000000000000D+00  0.0000000000000D+00
244  2.4300000000000D+00  0.0000000000000D+00  0.0000000000000D+00
245  2.4400000000000D+00  0.0000000000000D+00  0.0000000000000D+00
246  2.4500000000000D+00  0.0000000000000D+00  0.0000000000000D+00
247  2.4600000000000D+00  0.0000000000000D+00  0.0000000000000D+00
248  2.4700000000000D+00  0.0000000000000D+00  0.0000000000000D+00
249  2.4800000000000D+00  0.0000000000000D+00  0.0000000000000D+00
250  2.4900000000000D+00  0.0000000000000D+00  0.0000000000000D+00
251  2.5000000000000D+00  0.0000000000000D+00  0.0000000000000D+00
252  2.5100000000000D+00  0.0000000000000D+00  0.0000000000000D+00
253  2.5200000000000D+00  0.0000000000000D+00  0.0000000000000D+00
254  2.5300000000000D+00  0.0000000000000D+00  0.0000000000000D+00
255  2.5400000000000D+00  0.0000000000000D+00  0.0000000000000D+00
256  2.5500000000000D+00  0.0000000000000D+00  0.0000000000000D+00
257  2.5600000000000D+00  0.0000000000000D+00  0.0000000000000D+00
258  2.5700000000000D+00  0.0000000000000D+00  0.0000000000000D+00
259  2.5800000000000D+00  0.0000000000000D+00  0.0000000000000D+00
260  2.5900000000000D+00  0.0000000000000D+00  0.0000000000000D+00
261  2.6000000000000D+00  0.0000000000000D+00  0.0000000000000D+00
262  2.6100000000000D+00  0.0000000000000D+00  0.0000000000000D+00
263  2.6200000000000D+00  0.0000000000000D+00  0.0000000000000D+00
264  2.6300000000000D+00  0.0000000000000D+00  0.0000000000000D+00
265  2.6400000000000D+00  0.0000000000000D+00  0.0000000000000D+00
266  2.6500000000000D+00  0.0000000000000D+00  0.0000000000000D+00
267  2.6600000000000D+00  0.0000000000000D+00  0.0000000000000D+00
268  2.6700000000000D+00  0.0000000000000D+00  0.0000000000000D+00
269  2.6800000000000D+00  0.0000000000000D+00  0.0000000000000D+00
270  2.6900000000000D+00  0.0000000000000D+00  0.0000000000000D+00
271  2.7000000000000D+00  0.0000000000000D+00  0.0000000000000D+00
272  2.7100000000000D+00  0.0000000000000D+00  0.0000000000000D+00
273  2.7200000000000D+00  0.0000000000000D+00  0.0000000000000D+00
274  2.7300000000000D+00  0.0000000000000D+00  0.0000000000000D+00
275  2.7400000000000D+00  0.0000000000000D+00  0.0000000000000D+00
276  2.7500000000000D+00  0.0000000000000D+00  0.0000000000000D+00
277  2.7600000000000D+00  0.0000000000000D+00  0.0000000000000D+00
278  2.7700000000000D+00  0.0000000000000D+00  0.0000000000000D+00
279  2.7800000000000D+00  0.0000000000000D+00  0.0000000000000D+00
280  2.7900000000000D+00  0.0000000000000D+00  0.0000000000000D+00
281  2.8000000000000D+00  0.0000000000000D+00  0.0000000000000D+00
282  2.8100000000000D+00  0.0000000000000D+00  0.0000000000000D+00
283  2.8200000000000D+00  0.0000000000000D+00  0.0000000000000D+00
284  2.8300000000000D+00  0.0000000000000D+00  0.0000000000000D+00
285  2.8400000000000D+00  0.0000000000000D+00  0.0000000000000D+00
286  2.8500000000000D+00  0.0000000000000D+00  0.0000000000000D+00
287  2.8600000000000D+00  0.0000000000000D+00  0.0000000000000D+00
288  2.8700000000000D+00  0.0000000000000D+00  0.0000000000000D+00
289  2.8800000000000D+00  0.0000000000000D+00  0.0000000000000D+00
290  2.8900000000000D+00  0.0000000000000D+00  0.0000000000000D+00
291  2.9000000000000D+00  0.0000000000000D+00  0.0000000000000D+00
292  2.9100000000000D+00  0.0000000000000D+00  0.0000000000000D+00
293  2.9200000000000D+00  0.0000000000000D+00  0.0000000000000D+00
294  2.9300000000000D+00  0.0000000000000D+00  0.0000000000000D+00
295  2.9400000000000D+00  0.0000000000000D+00  0.0000000000000D+00
296  2.9500000000000D+00  0.0000000000000D+00  0.0000000000000D+00
297  2.9600000000000D+00  0.0000000000000D+00  0.0000000000000D+00
298  2.9700000000000D+00  0.0000000000000D+00  0.0000000000000D+00
299  2.9800000000000D+00  0.0000000000000D+00  0.0000000000000D+00
300  2.9900000000000D+00  0.0000000000000D+00  0.0000000000000D+00
301  3.0000000000000D+00  0.0000000000000D+00  0.0000000000000D+00
302  3.0100000000000D+00  0.0000000000000D+00  0.0000000000000D+00
303  3.0200000000000D+00  0.0000000000000D+00  0.0000000000000D+00
304  3.0300000000000D+00  0.0000000000000D+00  0.0000000000000D+00
305  3.0400000000000D+00  0.0000000000000D+00  0.0000000000000D+00
306  3.0500000000000D+00  0.0000000000000D+00  0.0000000000000D+00
307  3.0600000000000D+00  0.0000000000000D+00  0.0000000000000D+00
308  3.0700000000000D+00  0.0000000000000D+00  0.0000000000000D+00
309  3.0800000000000D+00  0.0000000000000D+00  0.0000000000000D+00
310  3.0900000000000D+00  0.0000000000000D+00  0.0000000000000D+00
311  3.1000000000000D+00  0.0000000000000D+00  0.0000000000000D+00
312  3.1100000000000D+00  0.0000000000000D+00  0.0000000000000D+00
313  3.1200000000000D+00  0.0000000000000D+00  0.0000000000000D+00
314  3.1300000000000D+00  0.0000000000000D+00  0.0000000000000D+00
315  3.1400000000000D+00  0.0000000000000D+00  0.0000000000000D+00
316  3.1500000000000D+00  0.0000000000000D+00  0.0000000000000D+00
317  3.1600000000000D+00  0.0000000000000D+00  0.0000000000000D+00
318  3.1700000000000D+00  0.0000000000000D+00  0.0000000000000D+00
319  3.1800000000000D+00  0.0000000000000D+00  0.0000000000000D+00
320  3.1900000000000D+00  0.0000000000000D+00  0.0000000000000D+00
321  3.2000000000000D+00  0.0000000000000D+00  0.0000000000000D+00
322  3.2100000000000D+00  0.0000000000000D+00  0.0000000000000D+00
323  3.2200000000000D+00  0.0000000000000D+00  0.0000000000000D+00
324  3.2300000000000D+00  0.0000000000000D+00  0.0000000000000D+00
325  3.2400000000000D+00  0.0000000000000D+00  0.0000000000000D+00
326  3.2500000000000D+00  0.0000000000000D+00  0.0000000000000D+00
327  3.2600000000000D+00  0.0000000000000D+00  0.0000000000000D+00
328  3.2700000000000D+00  0.0000000000000D+00  0.0000000000000D+00
329  3.2800000000000D+00  0.0000000000000D+00  0.0000000000000D+00
330  3.2900000000000D+00  0.0000000000000D+00  0.0000000000000D+00
331  3.3000000000000D+00  0.0000000000000D+00  0.0000000000000D+00
332  3.3100000000000D+00  0.0000000000000D+00  0.0000000000000D+00
333  3.3200000000000D+00  0.0000000000000D+00  0.0000000000000D+00
334  3.3300000000000D+00  0.0000000000000D+00  0.0000000000000D+00
335  3.3400000000000D+00  0.0000000000000D+00  0.0000000000000D+00
336  3.3500000000000D+00  0.0000000000000D+00  0.0000000000000D+00
337  3.3600000000000D+00  0.0000000000000D+00  0.0000000000000D+00
338  3.3700000000000D+00  0.0000000000000D+00  0.0000000000000D+00
339  3.3800000000000D+00  0.0000000000000D+00  0.0000000000000D+00
340  3.3900000000000D+00  0.0000000000000D+00  0.0000000000000D+00
341  3.4000000000000D+00  0.0000000000000D+00  0.0000000000000D+00
342  3.4100000000000D+00  0.0000000000000D+00  0.0000000000000D+00
343  3.4200000000000D+00  0.0000000000000D+00  0.0000000000000D+00
344  3.4300000000000D+00  0.0000000000000D+00  0.0000000000000D+00
345  3.4400000000000D+00  0.0000000000000D+00  0.0000000000000D+00
346  3.4500000000000D+00  0.0000000000000D+00  0.0000000000000D+00
347  3.4600000000000D+00  0.0000000000000D+00  0.0000000000000D+00
348  3.4700000000000D+00  0.0000000000000D+00  0.0000000000000D+00
349  3.4800000000000D+00  0.0000000000000D+00  0.0000000000000D+00
350  3.4900000000000D+00  0.0000000000000D+00  0.0000000000000D+00
351  3.5000000000000D+00  0.0000000000000D+00  0.0000000000000D+00
352  3.5100000000000D+00  0.0000000000000D+00  0.0000000000000D+00
353  3.5200000000000D+00  0.0000000000000D+00  0.0000000000000D+00
354  3.5300000000000D+00  0.0000000000000D+00  0.0000000000000D+00
355  3.5400000000000D+00  0.0000000000000D+00  0.0000000000000D+00
356  3.5500000000000D+00  0.0000000000000D+00  0.0000000000000D+00
357  3.5600000000000D+00  0.0000000000000D+00  0.0000000000000D+00
358  3.5700000000000D+00  0.0000000000000D+00  0.0000000000000D+00
359  3.5800000000000D+00  0.0000000000000D+00  0.0000000000000D+00
360  3.5900000000000D+00  0.0000000000000D+00  0.0000000000000D+00
361  3.6000000000000D+00  0.0000000000000D+00  0.0000000000000D+00
362  3.6100000000000D+00  0.0000000000000D+00  0.0000000000000D+00
363  3.6200000000000D+00  0.0000000000000D+00  0.0000000000000D+00
364  3.6300000000000D+00  0.0000000000000D+00  0.0000000000000D+00
365  3.6400000000000D+00  0.0000000000000D+00  0.0000000000000D+00
366  3.6500000000000D+00  0.0000000000000D+00  0.0000000000000D+00
367  3.6600000000000D+00  0.0000000000000D+00  0.0000000000000D+00
368  3.6700000000000D+00  0.0000000000000D+00  0.0000000000000D+00
369  3.6800000000000D+00  0.0000000000000D+00  0.0000000000000D+00
370  3.6900000000000D+00  0.0000000000000D+00  0.0000000000000D+00
371  3.7000000000000D+00  0.0000000000000D+00  0.0000000000000D+00
372  3.7100000000000D+00  0.0000000000000D+00  0.0000000000000D+00
373  3.7200000000000D+00  0.0000000000000D+00  0.0000000000000D+00
374  3.7300000000000D+00  0.0000000000000D+00  0.0000000000000D+00
375  3.7400000000000D+00  0.0000000000000D+00  0.0000000000000D+00
376  3.7500000000000D+00  0.0000000000000D+00  0.0000000000000D+00
377  3.7600000000000D+00  0.0000000000000D+00  0.0000000000000D+00
378  3.7700000000000D+00  0.0000000000000D+00  0.0000000000000D+00
379  3.7800000000000D+00  0.0000000000000D+00  0.0000000000000D+00
380  3.7900000000000D+00  0.0000000000000D+00  0.0000000000000D+00
381  3.8000000000000D+00  0.0000000000000D+00  0.0000000000000D+00
382  3.8100000000000D+00  0.0000000000000D+00  0.0000000000000D+00
383  3.8200000000000D+00  0.0000000000000D+00  0.0000000000000D+00
384  3.8300000000000D+00  0.0000000000000D+00  0.0000000000000D+00
385  3.8400000000000D+00  0.0000000000000D+00  0.0000000000000D+00
386  3.8500000000000D+00  0.0000000000000D+00  0.0000000000000D+00
387  3.8600000000000D+00  0.0000000000000D+00  0.0000000000000D+00
388  3.8700000000000D+00  0.0000000000000D+00  0.0000000000000D+00
389  3.8800000000000D+00  0.0000000000000D+00  0.0000000000000D+00
390  3.8900000000000D+00  0.0000000000000D+00  0.0000000000000D+00
391  3.9000000000000D+00  0.0000000000000D+00  0.0000000000000D+00
392  3.9100000000000D+00  0.0000000000000D+00  0.0000000000000D+00
393  3.9200000000000D+00  0.0000000000000D+00  0.0000000000000D+00
394  3.9300000000000D+00  0.0000000000000D+00  0.0000000000000D+00
395  3.9400000000000D+00  0.0000000000000D+00  0.0000000000000D+00
396  3.9500000000000D+00  0.0000000000000D+00  0.0000000000000D+00
397  3.9600000000000D+00  0.0000000000000D+00  0.0000000000000D+00
398  3.9700000000000D+00  0.0000000000000D+00  0.0000000000000D+00
399  3.9800000000000D+00  0.0000000000000D+00  0.0000000000000D+00
400  3.9900000000000D+00  0.0000000000000D+00  0.0000000000000D+00
401  4.0000000000000D+00  0.0000000000000D+00  0.0000000000000D+00
402  4.0100000000000D+00  0.0000000000000D+00  0.0000000000000D+00
403  4.0200000000000D+00  0.0000000000000D+00  0.0000000000000D+00
404  4.0300000000000D+00  0.0000000000000D+00  0.0000000000000D+00
405  4.0400000000000D+00  0.0000000000000D+00  0.0000000000000D+00
406  4.0500000000000D+00  0.0000000000000D+00  0.0000000000000D+00
407  4.0600000000000D+00  0.0000000000000D+00  0.0000000000000D+00
408  4.0700000000000D+00  0.0000000000000D+00  0.0000000000000D+00
409  4.0800000000000D+00  0.0000000000000D+00  0.0000000000000D+00
410  4.0900000000000D+00  0.0000000000000D+00  0.0000000000000D+00
411  4.1000000000000D+00  0.0000000000000D+00  0.0000000000000D+00
412  4.1100000000000D+00  0.0000000000000D+00  0.0000000000000D+00
413  4.1200000000000D+00  0.0000000000000D+00  0.0000000000000D+00
414  4.1300000000000D+00  0.0000000000000D+00  0.0000000000000D+00
415  4.1400000000000D+00  0.0000000000000D+00  0.0000000000000D+00
416  4.1500000000000D+00  0.0000000000000D+00  0.0000000000000D+00
417  4.1600000000000D+00  0.0000000000000D+00  0.0000000000000D+00
418  4.1700000000000D+00  0.0000000000000D+00  0.0000000000000D+00
419  4.1800000000000D+00  0.0000000000000D+00  0.0000000000000D+00
420  4.1900000000000D+00  0.0000000000000D+00  0.0000000000000D+00
421  4.2000000000000D+00  0.0000000000000D+00  0.0000000000000D+00
422  4.2100000000000D+00  0.0000000000000D+00  0.0000000000000D+00
423  4.2200000000000D+00  0.0000000000000D+00  0.0000000000000D+00
424  4.2300000000000D+00  0.0000000000000D+00  0.0000000000000D+00
425  4.2400000000000D+00  0.0000000000000D+00  0.0000000000000D+00
426  4.2500000000000D+00  0.0000000000000D+00  0.0000000000000D+00
427  4.2600000000000D+00  0.0000000000000D+00  0.0000000000000D+00
428  4.2700000000000D+00  0.0000000000000D+00  0.0000000000000D+00
429  4.2800000000000D+00  0.0000000000000D+00  0.0000000000000D+00
430  4.2900000000000D+00  0.0000000000000D+00  0.0000000000000D+00
431  4.3000000000000D+00  0.0000000000000D+00  0.0000000000000D+00
432  4.3100000000000D+00  0.0000000000000D+00  0.0000000000000D+00
433  4.3200000000000D+00  0.0000000000000D+00  0.0000000000000D+00
434  4.3300000000000D+00  0.0000000000000D+00  0.0000000000000D+00
435  4.3400000000000D+00  0.0000000000000D+00  0.0000000000000D+00
436  4.3500000000000D+00  0.0000000000000D+00  0.0000000000000D+00
437  4.3600000000000D+00  0.0000000000000D+00  0.0000000000000D+00
438  4.3700000000000D+00  0.0000000000000D+00  0.0000000000000D+00
439  4.3800000000000D+00  0.0000000000000D+00  0.0000000000000D+00
440  4.3900000000000D+00  0.0000000000000D+00  0.0000000000000D+00
441  4.4000000000000D+00  0.0000000000000D+00  0.0000000000000D+00
442  4.4100000000000D+00  0.0000000000000D+00  0.0000000000000D+00
443  4.4200000000000D+00  0.0000000000000D+00  0.0000000000000D+00