Cu    ONCVPSP-3.2.3.1  r_core=   1.26204   1.45626   1.76249
29.0000     19.0000      170504    zatom,zion,pspd
8      11   2     4   600     0    pspcod,pspxc,lmax,lloc,mmax,r2well
5.99000000  3.50000000  0.00000000    rchrg fchrg qchrg
2     2     2     0     0    nproj
1     1           extension_switch
0                         5.0182282428574D+00 -4.0122404566329D-01
1  0.0000000000000D+00 -3.4325279285596D-09 -1.0671491357250D-08
2  1.0000000000000D-02  1.0417388478691D-01  3.6978204178798D-02
3  2.0000000000000D-02  2.0789667518662D-01  7.3601537619445D-02
4  3.0000000000000D-02  3.1072085866534D-01  1.0952225254501D-01
5  4.0000000000000D-02  4.1220603605988D-01  1.4440670429845D-01
6  5.0000000000000D-02  5.1192235332206D-01  1.7794204869640D-01
7  6.0000000000000D-02  6.0945378583656D-01  2.0984252212235D-01
8  7.0000000000000D-02  7.0440123029099D-01  2.3985517809142D-01
9  8.0000000000000D-02  7.9638536250891D-01  2.6776496468990D-01
10  9.0000000000000D-02  8.8504922382567D-01  2.9339904024506D-01
11  1.0000000000000D-01  9.7006050341263D-01  3.1663023956387D-01
12  1.1000000000000D-01  1.0511134893492D+00  3.3737961980801D-01
13  1.2000000000000D-01  1.1279306671013D+00  3.5561803322467D-01
14  1.3000000000000D-01  1.2002639502813D+00  3.7136669317957D-01
15  1.4000000000000D-01  1.2678955350187D+00  3.8469671986980D-01
16  1.5000000000000D-01  1.3306383758432D+00  3.9572767234552D-01
17  1.6000000000000D-01  1.3883362875519D+00  4.0462509364749D-01
18  1.7000000000000D-01  1.4408636839659D+00  4.1159711558228D-01
19  1.8000000000000D-01  1.4881249706724D+00  4.1689018852286D-01
20  1.9000000000000D-01  1.5300536146662D+00  4.2078401927004D-01
21  2.0000000000000D-01  1.5666109191481D+00  4.2358581609362D-01
22  2.1000000000000D-01  1.5977845365007D+00  4.2562395427009D-01
23  2.2000000000000D-01  1.6235867565592D+00  4.2724118746445D-01
24  2.3000000000000D-01  1.6440526106439D+00  4.2878753992146D-01
25  2.4000000000000D-01  1.6592378343633D+00  4.3061302143884D-01
26  2.5000000000000D-01  1.6692167338788D+00  4.3306031134145D-01
27  2.6000000000000D-01  1.6740800011176D+00  4.3645755906389D-01
28  2.7000000000000D-01  1.6739325233128D+00  4.4111144743667D-01
29  2.8000000000000D-01  1.6688912312370D+00  4.4730066037024D-01
30  2.9000000000000D-01  1.6590830286112D+00  4.5526988940968D-01
31  3.0000000000000D-01  1.6446428424306D+00  4.6522450371484D-01
32  3.1000000000000D-01  1.6257118304332D+00  4.7732599557958D-01
33  3.2000000000000D-01  1.6024357776872D+00  4.9168829886760D-01
34  3.3000000000000D-01  1.5749637093995D+00  5.0837506097967D-01
35  3.4000000000000D-01  1.5434467416247D+00  5.2739793049196D-01
36  3.5000000000000D-01  1.5080371857009D+00  5.4871590276458D-01
37  3.6000000000000D-01  1.4688879160739D+00  5.7223574498903D-01
38  3.7000000000000D-01  1.4261520048068D+00  5.9781350072381D-01
39  3.8000000000000D-01  1.3799826196493D+00  6.2525705236889D-01
40  3.9000000000000D-01  1.3305331761776D+00  6.5432969867535D-01
41  4.0000000000000D-01  1.2779577283539D+00  6.8475468369391D-01
42  4.1000000000000D-01  1.2224115760081D+00  7.1622059394266D-01
43  4.2000000000000D-01  1.1640520623457D+00  7.4838752241808D-01
44  4.3000000000000D-01  1.1030395297392D+00  7.8089388174581D-01
45  4.4000000000000D-01  1.0395383978782D+00  8.1336373461041D-01
46  4.5000000000000D-01  9.7371832491932D-01  8.4541449790816D-01
47  4.6000000000000D-01  9.0575540967054D-01  8.7666486809037D-01
48  4.7000000000000D-01  8.3583339113169D-01  9.0674280910585D-01
49  4.8000000000000D-01  7.6414480092934D-01  9.3529344135841D-01
50  4.9000000000000D-01  6.9089202436433D-01  9.6198667025848D-01
51  5.0000000000000D-01  6.1628822693722D-01  9.8652439629699D-01
52  5.1000000000000D-01  5.4055810531894D-01  1.0086471550683D+00
53  5.2000000000000D-01  4.6393842476262D-01  1.0281400452309D+00
54  5.3000000000000D-01  3.8667830885828D-01  1.0448378148667D+00
55  5.4000000000000D-01  3.0903925223919D-01  1.0586289918442D+00
56  5.5000000000000D-01  2.3129483229042D-01  1.0694589614002D+00
57  5.6000000000000D-01  1.5373010196625D-01  1.0773319138444D+00
58  5.7000000000000D-01  7.6640652389942D-02  1.0823116067344D+00
59  5.8000000000000D-01  3.3134087389019D-04  1.0845209087077D+00
60  5.9000000000000D-01 -7.4885312812276D-02  1.0841401158376D+00
61  6.0000000000000D-01 -1.4869105176492D-01  1.0814040556435D+00
62  6.1000000000000D-01 -2.2076411143839D-01  1.0765980180452D+00
63  6.2000000000000D-01 -2.9078172877842D-01  1.0700525763262D+00
64  6.3000000000000D-01 -3.5842289969662D-01  1.0621373840076D+00
65  6.4000000000000D-01 -4.2337134730593D-01  1.0532540548975D+00
66  6.5000000000000D-01 -4.8531865761333D-01  1.0438282532874D+00
67  6.6000000000000D-01 -5.4396753441292D-01  1.0343011385932D+00
68  6.7000000000000D-01 -5.9903512098623D-01  1.0251203235568D+00
69  6.8000000000000D-01 -6.5025633300503D-01  1.0167305170620D+00
70  6.9000000000000D-01 -6.9738714485562D-01  1.0095640313206D+00
71  7.0000000000000D-01 -7.4020777048480D-01  1.0040313385529D+00
72  7.1000000000000D-01 -7.7852567986778D-01  1.0005118641393D+00
73  7.2000000000000D-01 -8.1217839333765D-01  9.9934520144535D-01
74  7.3000000000000D-01 -8.4103599828212D-01  1.0008229281685D+00
75  7.4000000000000D-01 -8.6500333609970D-01  1.0051811951132D+00
76  7.5000000000000D-01 -8.8402181173180D-01  1.0125942460234D+00
77  7.6000000000000D-01 -8.9807078354009D-01  1.0231690115027D+00
78  7.7000000000000D-01 -9.0716849764070D-01  1.0369409015553D+00
79  7.8000000000000D-01 -9.1137253795124D-01  1.0538709001460D+00
80  7.9000000000000D-01 -9.1077977103830D-01  1.0738440417606D+00
81  8.0000000000000D-01 -9.0552577322176D-01  1.0966693247110D+00
82  8.1000000000000D-01 -8.9578373615393D-01  1.1220810893069D+00
83  8.2000000000000D-01 -8.8176285608438D-01  1.1497418615307D+00
84  8.3000000000000D-01 -8.6370622107970D-01  1.1792466349924D+00
85  8.4000000000000D-01 -8.4188821942133D-01  1.2101285362662D+00
86  8.5000000000000D-01 -8.1661150108383D-01  1.2418657917251D+00
87  8.6000000000000D-01 -7.8820353243357D-01  1.2738898882455D+00
88  8.7000000000000D-01 -7.5701279192320D-01  1.3055947961297D+00
89  8.8000000000000D-01 -7.2340466143894D-01  1.3363471007948D+00
90  8.9000000000000D-01 -6.8775707394702D-01  1.3654968706178D+00
91  9.0000000000000D-01 -6.5045598305945D-01  1.3923890722210D+00
92  9.1000000000000D-01 -6.1189072399109D-01  1.4163753317603D+00
93  9.2000000000000D-01 -5.7244933802559D-01  1.4368258317148D+00
94  9.3000000000000D-01 -5.3251393398231D-01  1.4531411274892D+00
95  9.4000000000000D-01 -4.9245616024011D-01  1.4647636669610D+00
96  9.5000000000000D-01 -4.5263285961131D-01  1.4711887989937D+00
97  9.6000000000000D-01 -4.1338197677852D-01  1.4719750638852D+00
98  9.7000000000000D-01 -3.7501878415480D-01  1.4667535695943D+00
99  9.8000000000000D-01 -3.3783248688635D-01  1.4552362724424D+00
100  9.9000000000000D-01 -3.0208326154762D-01  1.4372229990521D+00
101  1.0000000000000D+00 -2.6799977584148D-01  1.4126070676678D+00
102  1.0100000000000D+00 -2.3577722828857D-01  1.3813793917718D+00
103  1.0200000000000D+00 -2.0557593807682D-01  1.3436309752563D+00
104  1.0300000000000D+00 -1.7752050562845D-01  1.2995537372500D+00
105  1.0400000000000D+00 -1.5169955443181D-01  1.2494396348228D+00
106  1.0500000000000D+00 -1.2816605423804D-01  1.1936780833158D+00
107  1.0600000000000D+00 -1.0693821609483D-01  1.1327517031413D+00
108  1.0700000000000D+00 -8.8000938413491D-02  1.0672304560503D+00
109  1.0800000000000D+00 -7.1307774194365D-02  9.9776426137474D-01
110  1.0900000000000D+00 -5.6783379711486D-02  9.2507421258334D-01
111  1.1000000000000D+00 -4.4326396308023D-02  8.4994254077203D-01
112  1.1100000000000D+00 -3.3812709476657D-02  7.7320149445197D-01
113  1.1200000000000D+00 -2.5099021494059D-02  6.9572132905069D-01
114  1.1300000000000D+00 -1.8026668933627D-02  6.1839761459032D-01
115  1.1400000000000D+00 -1.2425611424200D-02  5.4213808507312D-01
116  1.1500000000000D+00 -8.1185150961399D-03  4.6784926200319D-01
117  1.1600000000000D+00 -4.9248515059540D-03  3.9642309248251D-01
118  1.1700000000000D+00 -2.6649312448710D-03  3.2872384882503D-01
119  1.1800000000000D+00 -1.1637956219221D-03  2.6557551818028D-01
120  1.1900000000000D+00 -2.5494563251645D-04  2.0774971126761D-01
121  1.2000000000000D+00  2.1639019949022D-04  1.5595515366936D-01
122  1.2100000000000D+00  3.9021807450225D-04  1.1082787114906D-01
123  1.2200000000000D+00  3.8721149450453D-04  7.2923587006808D-02
124  1.2300000000000D+00  3.0391006098666D-04  4.2668269323257D-02
125  1.2400000000000D+00  2.0704603974911D-04  2.0251507901938D-02
126  1.2500000000000D+00  1.5049655844053D-04  6.4935374284281D-03
127  1.2600000000000D+00  1.2713116405161D-04  7.7434607386689D-04
128  1.2700000000000D+00  5.5192840846671D-05 -2.7621440979239D-04
129  1.2800000000000D+00 -8.4423356134664D-06  7.0107993101419D-05
130  1.2900000000000D+00 -4.7938869516100D-06  4.9463769886049D-05
131  1.3000000000000D+00  2.7240907186635D-06 -1.8860732897861D-05
132  1.3100000000000D+00 -1.4872838788924D-07 -3.8426459211331D-07
133  1.3200000000000D+00 -2.1702324052297D-07 -5.6071573276768D-07
134  1.3300000000000D+00  0.0000000000000D+00  0.0000000000000D+00
135  1.3400000000000D+00  0.0000000000000D+00  0.0000000000000D+00
136  1.3500000000000D+00  0.0000000000000D+00  0.0000000000000D+00
137  1.3600000000000D+00  0.0000000000000D+00  0.0000000000000D+00
138  1.3700000000000D+00  0.0000000000000D+00  0.0000000000000D+00
139  1.3800000000000D+00  0.0000000000000D+00  0.0000000000000D+00
140  1.3900000000000D+00  0.0000000000000D+00  0.0000000000000D+00
141  1.4000000000000D+00  0.0000000000000D+00  0.0000000000000D+00
142  1.4100000000000D+00  0.0000000000000D+00  0.0000000000000D+00
143  1.4200000000000D+00  0.0000000000000D+00  0.0000000000000D+00
144  1.4300000000000D+00  0.0000000000000D+00  0.0000000000000D+00
145  1.4400000000000D+00  0.0000000000000D+00  0.0000000000000D+00
146  1.4500000000000D+00  0.0000000000000D+00  0.0000000000000D+00
147  1.4600000000000D+00  0.0000000000000D+00  0.0000000000000D+00
148  1.4700000000000D+00  0.0000000000000D+00  0.0000000000000D+00
149  1.4800000000000D+00  0.0000000000000D+00  0.0000000000000D+00
150  1.4900000000000D+00  0.0000000000000D+00  0.0000000000000D+00
151  1.5000000000000D+00  0.0000000000000D+00  0.0000000000000D+00
152  1.5100000000000D+00  0.0000000000000D+00  0.0000000000000D+00
153  1.5200000000000D+00  0.0000000000000D+00  0.0000000000000D+00
154  1.5300000000000D+00  0.0000000000000D+00  0.0000000000000D+00
155  1.5400000000000D+00  0.0000000000000D+00  0.0000000000000D+00
156  1.5500000000000D+00  0.0000000000000D+00  0.0000000000000D+00
157  1.5600000000000D+00  0.0000000000000D+00  0.0000000000000D+00
158  1.5700000000000D+00  0.0000000000000D+00  0.0000000000000D+00
159  1.5800000000000D+00  0.0000000000000D+00  0.0000000000000D+00
160  1.5900000000000D+00  0.0000000000000D+00  0.0000000000000D+00
161  1.6000000000000D+00  0.0000000000000D+00  0.0000000000000D+00
162  1.6100000000000D+00  0.0000000000000D+00  0.0000000000000D+00
163  1.6200000000000D+00  0.0000000000000D+00  0.0000000000000D+00
164  1.6300000000000D+00  0.0000000000000D+00  0.0000000000000D+00
165  1.6400000000000D+00  0.0000000000000D+00  0.0000000000000D+00
166  1.6500000000000D+00  0.0000000000000D+00  0.0000000000000D+00
167  1.6600000000000D+00  0.0000000000000D+00  0.0000000000000D+00
168  1.6700000000000D+00  0.0000000000000D+00  0.0000000000000D+00
169  1.6800000000000D+00  0.0000000000000D+00  0.0000000000000D+00
170  1.6900000000000D+00  0.0000000000000D+00  0.0000000000000D+00
171  1.7000000000000D+00  0.0000000000000D+00  0.0000000000000D+00
172  1.7100000000000D+00  0.0000000000000D+00  0.0000000000000D+00
173  1.7200000000000D+00  0.0000000000000D+00  0.0000000000000D+00
174  1.7300000000000D+00  0.0000000000000D+00  0.0000000000000D+00
175  1.7400000000000D+00  0.0000000000000D+00  0.0000000000000D+00
176  1.7500000000000D+00  0.0000000000000D+00  0.0000000000000D+00
177  1.7600000000000D+00  0.0000000000000D+00  0.0000000000000D+00
178  1.7700000000000D+00  0.0000000000000D+00  0.0000000000000D+00
179  1.7800000000000D+00  0.0000000000000D+00  0.0000000000000D+00
180  1.7900000000000D+00  0.0000000000000D+00  0.0000000000000D+00
181  1.8000000000000D+00  0.0000000000000D+00  0.0000000000000D+00
182  1.8100000000000D+00  0.0000000000000D+00  0.0000000000000D+00
183  1.8200000000000D+00  0.0000000000000D+00  0.0000000000000D+00
184  1.8300000000000D+00  0.0000000000000D+00  0.0000000000000D+00
185  1.8400000000000D+00  0.0000000000000D+00  0.0000000000000D+00
186  1.8500000000000D+00  0.0000000000000D+00  0.0000000000000D+00
187  1.8600000000000D+00  0.0000000000000D+00  0.0000000000000D+00
188  1.8700000000000D+00  0.0000000000000D+00  0.0000000000000D+00
189  1.8800000000000D+00  0.0000000000000D+00  0.0000000000000D+00
190  1.8900000000000D+00  0.0000000000000D+00  0.0000000000000D+00
191  1.9000000000000D+00  0.0000000000000D+00  0.0000000000000D+00
192  1.9100000000000D+00  0.0000000000000D+00  0.0000000000000D+00
193  1.9200000000000D+00  0.0000000000000D+00  0.0000000000000D+00
194  1.9300000000000D+00  0.0000000000000D+00  0.0000000000000D+00
195  1.9400000000000D+00  0.0000000000000D+00  0.0000000000000D+00
196  1.9500000000000D+00  0.0000000000000D+00  0.0000000000000D+00
197  1.9600000000000D+00  0.0000000000000D+00  0.0000000000000D+00
198  1.9700000000000D+00  0.0000000000000D+00  0.0000000000000D+00
199  1.9800000000000D+00  0.0000000000000D+00  0.0000000000000D+00
200  1.9900000000000D+00  0.0000000000000D+00  0.0000000000000D+00
201  2.0000000000000D+00  0.0000000000000D+00  0.0000000000000D+00
202  2.0100000000000D+00  0.0000000000000D+00  0.0000000000000D+00
203  2.0200000000000D+00  0.0000000000000D+00  0.0000000000000D+00
204  2.0300000000000D+00  0.0000000000000D+00  0.0000000000000D+00
205  2.0400000000000D+00  0.0000000000000D+00  0.0000000000000D+00
206  2.0500000000000D+00  0.0000000000000D+00  0.0000000000000D+00
207  2.0600000000000D+00  0.0000000000000D+00  0.0000000000000D+00
208  2.0700000000000D+00  0.0000000000000D+00  0.0000000000000D+00
209  2.0800000000000D+00  0.0000000000000D+00  0.0000000000000D+00
210  2.0900000000000D+00  0.0000000000000D+00  0.0000000000000D+00
211  2.1000000000000D+00  0.0000000000000D+00  0.0000000000000D+00
212  2.1100000000000D+00  0.0000000000000D+00  0.0000000000000D+00
213  2.1200000000000D+00  0.0000000000000D+00  0.0000000000000D+00
214  2.1300000000000D+00  0.0000000000000D+00  0.0000000000000D+00
215  2.1400000000000D+00  0.0000000000000D+00  0.0000000000000D+00
216  2.1500000000000D+00  0.0000000000000D+00  0.0000000000000D+00
217  2.1600000000000D+00  0.0000000000000D+00  0.0000000000000D+00
218  2.1700000000000D+00  0.0000000000000D+00  0.0000000000000D+00
219  2.1800000000000D+00  0.0000000000000D+00  0.0000000000000D+00
220  2.1900000000000D+00  0.0000000000000D+00  0.0000000000000D+00
221  2.2000000000000D+00  0.0000000000000D+00  0.0000000000000D+00
222  2.2100000000000D+00  0.0000000000000D+00  0.0000000000000D+00
223  2.2200000000000D+00  0.0000000000000D+00  0.0000000000000D+00
224  2.2300000000000D+00  0.0000000000000D+00  0.0000000000000D+00
225  2.2400000000000D+00  0.0000000000000D+00  0.0000000000000D+00
226  2.2500000000000D+00  0.0000000000000D+00  0.0000000000000D+00
227  2.2600000000000D+00  0.0000000000000D+00  0.0000000000000D+00
228  2.2700000000000D+00  0.0000000000000D+00  0.0000000000000D+00
229  2.2800000000000D+00  0.0000000000000D+00  0.0000000000000D+00
230  2.2900000000000D+00  0.0000000000000D+00  0.0000000000000D+00
231  2.3000000000000D+00  0.0000000000000D+00  0.0000000000000D+00
232  2.3100000000000D+00  0.0000000000000D+00  0.0000000000000D+00
233  2.3200000000000D+00  0.0000000000000D+00  0.0000000000000D+00
234  2.3300000000000D+00  0.0000000000000D+00  0.0000000000000D+00
235  2.3400000000000D+00  0.0000000000000D+00  0.0000000000000D+00
236  2.3500000000000D+00  0.0000000000000D+00  0.0000000000000D+00
237  2.3600000000000D+00  0.0000000000000D+00  0.0000000000000D+00
238  2.3700000000000D+00  0.0000000000000D+00  0.0000000000000D+00
239  2.3800000000000D+00  0.0000000000000D+00  0.0000000000000D+00
240  2.3900000000000D+00  0.0000000000000D+00  0.0000000000000D+00
241  2.4000000000000D+00  0.0000000000000D+00  0.0000000000000D+00
242  2.4100000000000D+00  0.0000000000000D+00  0.0000000000000D+00
243  2.4200000000000D+00  0.0000000000000D+00  0.0000000000000D+00
244  2.4300000000000D+00  0.0000000000000D+00  0.0000000000000D+00
245  2.4400000000000D+00  0.0000000000000D+00  0.0000000000000D+00
246  2.4500000000000D+00  0.0000000000000D+00  0.0000000000000D+00
247  2.4600000000000D+00  0.0000000000000D+00  0.0000000000000D+00
248  2.4700000000000D+00  0.0000000000000D+00  0.0000000000000D+00
249  2.4800000000000D+00  0.0000000000000D+00  0.0000000000000D+00
250  2.4900000000000D+00  0.0000000000000D+00  0.0000000000000D+00
251  2.5000000000000D+00  0.0000000000000D+00  0.0000000000000D+00
252  2.5100000000000D+00  0.0000000000000D+00  0.0000000000000D+00
253  2.5200000000000D+00  0.0000000000000D+00  0.0000000000000D+00
254  2.5300000000000D+00  0.0000000000000D+00  0.0000000000000D+00
255  2.5400000000000D+00  0.0000000000000D+00  0.0000000000000D+00
256  2.5500000000000D+00  0.0000000000000D+00  0.0000000000000D+00
257  2.5600000000000D+00  0.0000000000000D+00  0.0000000000000D+00
258  2.5700000000000D+00  0.0000000000000D+00  0.0000000000000D+00
259  2.5800000000000D+00  0.0000000000000D+00  0.0000000000000D+00
260  2.5900000000000D+00  0.0000000000000D+00  0.0000000000000D+00
261  2.6000000000000D+00  0.0000000000000D+00  0.0000000000000D+00
262  2.6100000000000D+00  0.0000000000000D+00  0.0000000000000D+00
263  2.6200000000000D+00  0.0000000000000D+00  0.0000000000000D+00
264  2.6300000000000D+00  0.0000000000000D+00  0.0000000000000D+00
265  2.6400000000000D+00  0.0000000000000D+00  0.0000000000000D+00
266  2.6500000000000D+00  0.0000000000000D+00  0.0000000000000D+00
267  2.6600000000000D+00  0.0000000000000D+00  0.0000000000000D+00
268  2.6700000000000D+00  0.0000000000000D+00  0.0000000000000D+00
269  2.6800000000000D+00  0.0000000000000D+00  0.0000000000000D+00
270  2.6900000000000D+00  0.0000000000000D+00  0.0000000000000D+00
271  2.7000000000000D+00  0.0000000000000D+00  0.0000000000000D+00
272  2.7100000000000D+00  0.0000000000000D+00  0.0000000000000D+00
273  2.7200000000000D+00  0.0000000000000D+00  0.0000000000000D+00
274  2.7300000000000D+00  0.0000000000000D+00  0.0000000000000D+00
275  2.7400000000000D+00  0.0000000000000D+00  0.0000000000000D+00
276  2.7500000000000D+00  0.0000000000000D+00  0.0000000000000D+00
277  2.7600000000000D+00  0.0000000000000D+00  0.0000000000000D+00
278  2.7700000000000D+00  0.0000000000000D+00  0.0000000000000D+00
279  2.7800000000000D+00  0.0000000000000D+00  0.0000000000000D+00
280  2.7900000000000D+00  0.0000000000000D+00  0.0000000000000D+00
281  2.8000000000000D+00  0.0000000000000D+00  0.0000000000000D+00
282  2.8100000000000D+00  0.0000000000000D+00  0.0000000000000D+00
283  2.8200000000000D+00  0.0000000000000D+00  0.0000000000000D+00
284  2.8300000000000D+00  0.0000000000000D+00  0.0000000000000D+00
285  2.8400000000000D+00  0.0000000000000D+00  0.0000000000000D+00
286  2.8500000000000D+00  0.0000000000000D+00  0.0000000000000D+00
287  2.8600000000000D+00  0.0000000000000D+00  0.0000000000000D+00
288  2.8700000000000D+00  0.0000000000000D+00  0.0000000000000D+00
289  2.8800000000000D+00  0.0000000000000D+00  0.0000000000000D+00
290  2.8900000000000D+00  0.0000000000000D+00  0.0000000000000D+00
291  2.9000000000000D+00  0.0000000000000D+00  0.0000000000000D+00
292  2.9100000000000D+00  0.0000000000000D+00  0.0000000000000D+00
293  2.9200000000000D+00  0.0000000000000D+00  0.0000000000000D+00
294  2.9300000000000D+00  0.0000000000000D+00  0.0000000000000D+00
295  2.9400000000000D+00  0.0000000000000D+00  0.0000000000000D+00
296  2.9500000000000D+00  0.0000000000000D+00  0.0000000000000D+00
297  2.9600000000000D+00  0.0000000000000D+00  0.0000000000000D+00
298  2.9700000000000D+00  0.0000000000000D+00  0.0000000000000D+00
299  2.9800000000000D+00  0.0000000000000D+00  0.0000000000000D+00
300  2.9900000000000D+00  0.0000000000000D+00  0.0000000000000D+00
301  3.0000000000000D+00  0.0000000000000D+00  0.0000000000000D+00
302  3.0100000000000D+00  0.0000000000000D+00  0.0000000000000D+00
303  3.0200000000000D+00  0.0000000000000D+00  0.0000000000000D+00
304  3.0300000000000D+00  0.0000000000000D+00  0.0000000000000D+00
305  3.0400000000000D+00  0.0000000000000D+00  0.0000000000000D+00
306  3.0500000000000D+00  0.0000000000000D+00  0.0000000000000D+00
307  3.0600000000000D+00  0.0000000000000D+00  0.0000000000000D+00
308  3.0700000000000D+00  0.0000000000000D+00  0.0000000000000D+00
309  3.0800000000000D+00  0.0000000000000D+00  0.0000000000000D+00
310  3.0900000000000D+00  0.0000000000000D+00  0.0000000000000D+00
311  3.1000000000000D+00  0.0000000000000D+00  0.0000000000000D+00
312  3.1100000000000D+00  0.0000000000000D+00  0.0000000000000D+00
313  3.1200000000000D+00  0.0000000000000D+00  0.0000000000000D+00
314  3.1300000000000D+00  0.0000000000000D+00  0.0000000000000D+00
315  3.1400000000000D+00  0.0000000000000D+00  0.0000000000000D+00
316  3.1500000000000D+00  0.0000000000000D+00  0.0000000000000D+00
317  3.1600000000000D+00  0.0000000000000D+00  0.0000000000000D+00
318  3.1700000000000D+00  0.0000000000000D+00  0.0000000000000D+00
319  3.1800000000000D+00  0.0000000000000D+00  0.0000000000000D+00
320  3.1900000000000D+00  0.0000000000000D+00  0.0000000000000D+00
321  3.2000000000000D+00  0.0000000000000D+00  0.0000000000000D+00
322  3.2100000000000D+00  0.0000000000000D+00  0.0000000000000D+00
323  3.2200000000000D+00  0.0000000000000D+00  0.0000000000000D+00
324  3.2300000000000D+00  0.0000000000000D+00  0.0000000000000D+00
325  3.2400000000000D+00  0.0000000000000D+00  0.0000000000000D+00
326  3.2500000000000D+00  0.0000000000000D+00  0.0000000000000D+00
327  3.2600000000000D+00  0.0000000000000D+00  0.0000000000000D+00
328  3.2700000000000D+00  0.0000000000000D+00  0.0000000000000D+00
329  3.2800000000000D+00  0.0000000000000D+00  0.0000000000000D+00
330  3.2900000000000D+00  0.0000000000000D+00  0.0000000000000D+00
331  3.3000000000000D+00  0.0000000000000D+00  0.0000000000000D+00
332  3.3100000000000D+00  0.0000000000000D+00  0.0000000000000D+00
333  3.3200000000000D+00  0.0000000000000D+00  0.0000000000000D+00
334  3.3300000000000D+00  0.0000000000000D+00  0.0000000000000D+00
335  3.3400000000000D+00  0.0000000000000D+00  0.0000000000000D+00
336  3.3500000000000D+00  0.0000000000000D+00  0.0000000000000D+00
337  3.3600000000000D+00  0.0000000000000D+00  0.0000000000000D+00
338  3.3700000000000D+00  0.0000000000000D+00  0.0000000000000D+00
339  3.3800000000000D+00  0.0000000000000D+00  0.0000000000000D+00
340  3.3900000000000D+00  0.0000000000000D+00  0.0000000000000D+00
341  3.4000000000000D+00  0.0000000000000D+00  0.0000000000000D+00
342  3.4100000000000D+00  0.0000000000000D+00  0.0000000000000D+00
343  3.4200000000000D+00  0.0000000000000D+00  0.0000000000000D+00
344  3.4300000000000D+00  0.0000000000000D+00  0.0000000000000D+00
345  3.4400000000000D+00  0.0000000000000D+00  0.0000000000000D+00
346  3.4500000000000D+00  0.0000000000000D+00  0.0000000000000D+00
347  3.4600000000000D+00  0.0000000000000D+00  0.0000000000000D+00
348  3.4700000000000D+00  0.0000000000000D+00  0.0000000000000D+00
349  3.4800000000000D+00  0.0000000000000D+00  0.0000000000000D+00
350  3.4900000000000D+00  0.0000000000000D+00  0.0000000000000D+00
351  3.5000000000000D+00  0.0000000000000D+00  0.0000000000000D+00
352  3.5100000000000D+00  0.0000000000000D+00  0.0000000000000D+00
353  3.5200000000000D+00  0.0000000000000D+00  0.0000000000000D+00
354  3.5300000000000D+00  0.0000000000000D+00  0.0000000000000D+00
355  3.5400000000000D+00  0.0000000000000D+00  0.0000000000000D+00
356  3.5500000000000D+00  0.0000000000000D+00  0.0000000000000D+00
357  3.5600000000000D+00  0.0000000000000D+00  0.0000000000000D+00
358  3.5700000000000D+00  0.0000000000000D+00  0.0000000000000D+00
359  3.5800000000000D+00  0.0000000000000D+00  0.0000000000000D+00
360  3.5900000000000D+00  0.0000000000000D+00  0.0000000000000D+00
361  3.6000000000000D+00  0.0000000000000D+00  0.0000000000000D+00
362  3.6100000000000D+00  0.0000000000000D+00  0.0000000000000D+00
363  3.6200000000000D+00  0.0000000000000D+00  0.0000000000000D+00
364  3.6300000000000D+00  0.0000000000000D+00  0.0000000000000D+00
365  3.6400000000000D+00  0.0000000000000D+00  0.0000000000000D+00
366  3.6500000000000D+00  0.0000000000000D+00  0.0000000000000D+00
367  3.6600000000000D+00  0.0000000000000D+00  0.0000000000000D+00
368  3.6700000000000D+00  0.0000000000000D+00  0.0000000000000D+00
369  3.6800000000000D+00  0.0000000000000D+00  0.0000000000000D+00
370  3.6900000000000D+00  0.0000000000000D+00  0.0000000000000D+00
371  3.7000000000000D+00  0.0000000000000D+00  0.0000000000000D+00
372  3.7100000000000D+00  0.0000000000000D+00  0.0000000000000D+00
373  3.7200000000000D+00  0.0000000000000D+00  0.0000000000000D+00
374  3.7300000000000D+00  0.0000000000000D+00  0.0000000000000D+00
375  3.7400000000000D+00  0.0000000000000D+00  0.0000000000000D+00
376  3.7500000000000D+00  0.0000000000000D+00  0.0000000000000D+00
377  3.7600000000000D+00  0.0000000000000D+00  0.0000000000000D+00
378  3.7700000000000D+00  0.0000000000000D+00  0.0000000000000D+00
379  3.7800000000000D+00  0.0000000000000D+00  0.0000000000000D+00
380  3.7900000000000D+00  0.0000000000000D+00  0.0000000000000D+00
381  3.8000000000000D+00  0.0000000000000D+00  0.0000000000000D+00
382  3.8100000000000D+00  0.0000000000000D+00  0.0000000000000D+00
383  3.8200000000000D+00  0.0000000000000D+00  0.0000000000000D+00
384  3.8300000000000D+00  0.0000000000000D+00  0.0000000000000D+00
385  3.8400000000000D+00  0.0000000000000D+00  0.0000000000000D+00
386  3.8500000000000D+00  0.0000000000000D+00  0.0000000000000D+00
387  3.8600000000000D+00  0.0000000000000D+00  0.0000000000000D+00
388  3.8700000000000D+00  0.0000000000000D+00  0.0000000000000D+00
389  3.8800000000000D+00  0.0000000000000D+00  0.0000000000000D+00
390  3.8900000000000D+00  0.0000000000000D+00  0.0000000000000D+00
391  3.9000000000000D+00  0.0000000000000D+00  0.0000000000000D+00
392  3.9100000000000D+00  0.0000000000000D+00  0.0000000000000D+00
393  3.9200000000000D+00  0.0000000000000D+00  0.0000000000000D+00
394  3.9300000000000D+00  0.0000000000000D+00  0.0000000000000D+00
395  3.9400000000000D+00  0.0000000000000D+00  0.0000000000000D+00
396  3.9500000000000D+00  0.0000000000000D+00  0.0000000000000D+00
397  3.9600000000000D+00  0.0000000000000D+00  0.0000000000000D+00
398  3.9700000000000D+00  0.0000000000000D+00  0.0000000000000D+00
399  3.9800000000000D+00  0.0000000000000D+00  0.0000000000000D+00
400  3.9900000000000D+00  0.0000000000000D+00  0.0000000000000D+00
401  4.0000000000000D+00  0.0000000000000D+00  0.0000000000000D+00
402  4.0100000000000D+00  0.0000000000000D+00  0.0000000000000D+00
403  4.0200000000000D+00  0.0000000000000D+00  0.0000000000000D+00
404  4.0300000000000D+00  0.0000000000000D+00  0.0000000000000D+00
405  4.0400000000000D+00  0.0000000000000D+00  0.0000000000000D+00
406  4.0500000000000D+00  0.0000000000000D+00  0.0000000000000D+00
407  4.0600000000000D+00  0.0000000000000D+00  0.0000000000000D+00
408  4.0700000000000D+00  0.0000000000000D+00  0.0000000000000D+00
409  4.0800000000000D+00  0.0000000000000D+00  0.0000000000000D+00
410  4.0900000000000D+00  0.0000000000000D+00  0.0000000000000D+00
411  4.1000000000000D+00  0.0000000000000D+00  0.0000000000000D+00
412  4.1100000000000D+00  0.0000000000000D+00  0.0000000000000D+00
413  4.1200000000000D+00  0.0000000000000D+00  0.0000000000000D+00
414  4.1300000000000D+00  0.0000000000000D+00  0.0000000000000D+00
415  4.1400000000000D+00  0.0000000000000D+00  0.0000000000000D+00
416  4.1500000000000D+00  0.0000000000000D+00  0.0000000000000D+00
417  4.1600000000000D+00  0.0000000000000D+00  0.0000000000000D+00
418  4.1700000000000D+00  0.0000000000000D+00  0.0000000000000D+00
419  4.1800000000000D+00  0.0000000000000D+00  0.0000000000000D+00
420  4.1900000000000D+00  0.0000000000000D+00  0.0000000000000D+00
421  4.2000000000000D+00  0.0000000000000D+00  0.0000000000000D+00
422  4.2100000000000D+00  0.0000000000000D+00  0.0000000000000D+00
423  4.2200000000000D+00  0.0000000000000D+00  0.0000000000000D+00
424  4.2300000000000D+00  0.0000000000000D+00  0.0000000000000D+00
425  4.2400000000000D+00  0.0000000000000D+00  0.0000000000000D+00
426  4.2500000000000D+00  0.0000000000000D+00  0.0000000000000D+00
427  4.2600000000000D+00  0.0000000000000D+00  0.0000000000000D+00
428  4.2700000000000D+00  0.0000000000000D+00  0.0000000000000D+00
429  4.2800000000000D+00  0.0000000000000D+00  0.0000000000000D+00
430  4.2900000000000D+00  0.0000000000000D+00  0.0000000000000D+00
431  4.3000000000000D+00  0.0000000000000D+00  0.0000000000000D+00
432  4.3100000000000D+00  0.0000000000000D+00  0.0000000000000D+00
433  4.3200000000000D+00  0.0000000000000D+00  0.0000000000000D+00
434  4.3300000000000D+00  0.0000000000000D+00  0.0000000000000D+00
435  4.3400000000000D+00  0.0000000000000D+00  0.0000000000000D+00
436  4.3500000000000D+00  0.0000000000000D+00  0.0000000000000D+00
437  4.3600000000000D+00  0.0000000000000D+00  0.0000000000000D+00
438  4.3700000000000D+00  0.0000000000000D+00  0.0000000000000D+00
439  4.3800000000000D+00  0.0000000000000D+00  0.0000000000000D+00
440  4.3900000000000D+00  0.0000000000000D+00  0.0000000000000D+00
441  4.4000000000000D+00  0.0000000000000D+00  0.0000000000000D+00
442  4.4100000000000D+00  0.0000000000000D+00  0.0000000000000D+00
443  4.4200000000000D+00  0.0000000000000D+00  0.0000000000000D+00