Cr    ONCVPSP  r_core=  1.31  1.31  1.72
24.0000     14.0000      161004    zatom,zion,pspd
8 -116133   2     4   600     0    pspcod,pspxc,lmax,lloc,mmax,r2well
5.99000000  5.00000000  0.00000000    rchrg fchrg qchrg
2     2     2     0     0    nproj
1                 extension_switch
0                         6.4508691286951D+00 -9.6623105795024D-01
1  0.0000000000000D+00  1.9307168086513D-09  2.8454529954480D-08
2  1.0000000000000D-02  7.6088034450973D-02 -9.8262735463798D-02
3  2.0000000000000D-02  1.5206061992961D-01 -1.9516073889423D-01
4  3.0000000000000D-02  2.2780137615977D-01 -2.8935236450502D-01
5  4.0000000000000D-02  3.0319208662386D-01 -3.7954172407046D-01
6  5.0000000000000D-02  3.7811184585290D-01 -4.6450053580951D-01
7  6.0000000000000D-02  4.5243628380459D-01 -5.4308875808891D-01
8  7.0000000000000D-02  5.2603689071100D-01 -6.1427363698483D-01
9  8.0000000000000D-02  5.9878046384678D-01 -6.7714682519717D-01
10  9.0000000000000D-02  6.7052869532066D-01 -7.3093926442549D-01
11  1.0000000000000D-01  7.4113791726952D-01 -7.7503356348235D-01
12  1.1000000000000D-01  8.1045901778405D-01 -8.0897364942684D-01
13  1.2000000000000D-01  8.7833753757235D-01 -8.3247151805578D-01
14  1.3000000000000D-01  9.4461395383268D-01 -8.4541096232232D-01
15  1.4000000000000D-01  1.0091241541218D+00 -8.4784821173791D-01
16  1.5000000000000D-01  1.0717000992383D+00 -8.4000947158710D-01
17  1.6000000000000D-01  1.1321706703566D+00 -8.2228540685371D-01
18  1.7000000000000D-01  1.1903626919203D+00 -7.9522267112360D-01
19  1.8000000000000D-01  1.2461021181935D+00 -7.5951263440619D-01
20  1.9000000000000D-01  1.2992153679501D+00 -7.1597751484127D-01
21  2.0000000000000D-01  1.3495307886091D+00 -6.6555416671481D-01
22  2.1000000000000D-01  1.3968802282624D+00 -6.0927582024060D-01
23  2.2000000000000D-01  1.4411006915428D+00 -5.4825210639232D-01
24  2.3000000000000D-01  1.4820360531881D+00 -4.8364773200411D-01
25  2.4000000000000D-01  1.5195388015180D+00 -4.1666019580459D-01
26  2.5000000000000D-01  1.5534717828822D+00 -3.4849695453719D-01
27  2.6000000000000D-01  1.5837099174869D+00 -2.8035245948882D-01
28  2.7000000000000D-01  1.6101418568780D+00 -2.1338548737659D-01
29  2.8000000000000D-01  1.6326715537581D+00 -1.4869718553058D-01
30  2.9000000000000D-01  1.6512197157395D+00 -8.7310239702674D-02
31  3.0000000000000D-01  1.6657251160735D+00 -3.0149553799184D-02
32  3.1000000000000D-01  1.6761457363255D+00  2.1975195309587D-02
33  3.2000000000000D-01  1.6824597183576D+00  6.8384797578196D-02
34  3.3000000000000D-01  1.6846661057944D+00  1.0854325279825D-01
35  3.4000000000000D-01  1.6827853583403D+00  1.4206776986991D-01
36  3.5000000000000D-01  1.6768596258319D+00  1.6873582446761D-01
37  3.6000000000000D-01  1.6669527726900D+00  1.8848913017391D-01
38  3.7000000000000D-01  1.6531501474185D+00  2.0143443400030D-01
39  3.8000000000000D-01  1.6355580959107D+00  2.0784110498943D-01
40  3.9000000000000D-01  1.6143032215006D+00  2.0813554326455D-01
41  4.0000000000000D-01  1.5895313988629D+00  2.0289249542636D-01
42  4.1000000000000D-01  1.5614065529487D+00  1.9282341953396D-01
43  4.2000000000000D-01  1.5301092180700D+00  1.7876209801712D-01
44  4.3000000000000D-01  1.4958348959529D+00  1.6164774874687D-01
45  4.4000000000000D-01  1.4587922349885D+00  1.4250593219358D-01
46  4.5000000000000D-01  1.4192010559748D+00  1.2242759523690D-01
47  4.6000000000000D-01  1.3772902522947D+00  1.0254662897070D-01
48  4.7000000000000D-01  1.3332955946733D+00  8.4016348060995D-02
49  4.8000000000000D-01  1.2874574723559D+00  6.7985322282737D-02
50  4.9000000000000D-01  1.2400186037193D+00  5.5573006319530D-02
51  5.0000000000000D-01  1.1912217499404D+00  4.7845621417261D-02
52  5.1000000000000D-01  1.1413074653955D+00  4.5792741859957D-02
53  5.2000000000000D-01  1.0905119179364D+00  5.0305030424128D-02
54  5.3000000000000D-01  1.0390648110942D+00  6.2153550054718D-02
55  5.4000000000000D-01  9.8718743862078D-01  8.1971054258517D-02
56  5.5000000000000D-01  9.3509089960354D-01  1.1023562649709D-01
57  5.6000000000000D-01  8.8297449972881D-01  1.4725699963675D-01
58  5.7000000000000D-01  8.3102436116395D-01  1.9316584114596D-01
59  5.8000000000000D-01  7.7941226001398D-01  2.4790623853757D-01
60  5.9000000000000D-01  7.2829470648317D-01  3.1123156410295D-01
61  6.0000000000000D-01  6.7781227874001D-01  3.8270383828887D-01
62  6.1000000000000D-01  6.2808921719417D-01  4.6169664930958D-01
63  6.2000000000000D-01  5.7923328143401D-01  5.4740162259964D-01
64  6.3000000000000D-01  5.3133586760161D-01  6.3883836978653D-01
65  6.4000000000000D-01  4.8447237952031D-01  7.3486778333243D-01
66  6.5000000000000D-01  4.3870284253319D-01  8.3420848122184D-01
67  6.6000000000000D-01  3.9407274486184D-01  9.3545614756195D-01
68  6.7000000000000D-01  3.5061408737877D-01  1.0371054600705D+00
69  6.8000000000000D-01  3.0834661911560D-01  1.1375742457661D+00
70  6.9000000000000D-01  2.6727923265065D-01  1.2352294624403D+00
71  7.0000000000000D-01  2.2741149079490D-01  1.3284145665466D+00
72  7.1000000000000D-01  1.8873525376235D-01  1.4154777985369D+00
73  7.2000000000000D-01  1.5123637433827D-01  1.4948008953812D+00
74  7.3000000000000D-01  1.1489642745365D-01  1.5648277271017D+00
75  7.4000000000000D-01  7.9694440070621D-02  1.6240923501214D+00
76  7.5000000000000D-01  4.5608587389585D-02  1.6712459751557D+00
77  7.6000000000000D-01  1.2617822110608D-02  1.7050823613365D+00
78  7.7000000000000D-01 -1.9296595198545D-02  1.7245611709515D+00
79  7.8000000000000D-01 -5.0149694672430D-02  1.7288288503725D+00
80  7.9000000000000D-01 -7.9951552248253D-02  1.7172366419210D+00
81  8.0000000000000D-01 -1.0870622592777D-01  1.6893553779386D+00
82  8.1000000000000D-01 -1.3641089441299D-01  1.6449867614429D+00
83  8.2000000000000D-01 -1.6305521550991D-01  1.5841708965564D+00
84  8.3000000000000D-01 -1.8862091754473D-01  1.5071898953998D+00
85  8.4000000000000D-01 -2.1308163262647D-01  1.4145674552717D+00
86  8.5000000000000D-01 -2.3640297600141D-01  1.3070643694699D+00
87  8.6000000000000D-01 -2.5854287105434D-01  1.1856700059055D+00
88  8.7000000000000D-01 -2.7945211480082D-01  1.0515898585223D+00
89  8.8000000000000D-01 -2.9907517408970D-01  9.0622934587443D-01
90  8.9000000000000D-01 -3.1735119824211D-01  7.5117409837089D-01
91  9.0000000000000D-01 -3.3421522961181D-01  5.8816703888146D-01
92  9.1000000000000D-01 -3.4959958961669D-01  4.1908261982991D-01
93  9.2000000000000D-01 -3.6343541424424D-01  2.4589863236149D-01
94  9.3000000000000D-01 -3.7565430993963D-01  7.0666048725593D-02
95  9.4000000000000D-01 -3.8619009820212D-01 -1.0452260320188D-01
96  9.5000000000000D-01 -3.9498061519443D-01 -2.7756580504289D-01
97  9.6000000000000D-01 -4.0196953124944D-01 -4.4638600425471D-01
98  9.7000000000000D-01 -4.0710815436993D-01 -6.0896240252098D-01
99  9.8000000000000D-01 -4.1035718167268D-01 -7.6336301599299D-01
100  9.9000000000000D-01 -4.1168836326112D-01 -9.0777545628058D-01
101  1.0000000000000D+00 -4.1108604416505D-01 -1.0405358994793D+00
102  1.0100000000000D+00 -4.0854855176052D-01 -1.1601557381802D+00
103  1.0200000000000D+00 -4.0408939854996D-01 -1.2653454494195D+00
104  1.0300000000000D+00 -3.9773827310809D-01 -1.3550352563107D+00
105  1.0400000000000D+00 -3.8954179549198D-01 -1.4283922143626D+00
106  1.0500000000000D+00 -3.7956401743987D-01 -1.4848334146695D+00
107  1.0600000000000D+00 -3.6788665191550D-01 -1.5240350603333D+00
108  1.0700000000000D+00 -3.5460902116590D-01 -1.5459372422818D+00
109  1.0800000000000D+00 -3.3984771758244D-01 -1.5507443180564D+00
110  1.0900000000000D+00 -3.2373597641843D-01 -1.5389208690505D+00
111  1.1000000000000D+00 -3.0642276484839D-01 -1.5111832936179D+00
112  1.1100000000000D+00 -2.8807159637049D-01 -1.4684871615457D+00
113  1.1200000000000D+00 -2.6885908500789D-01 -1.4120105375644D+00
114  1.1300000000000D+00 -2.4897325833414D-01 -1.3431335503802D+00
115  1.1400000000000D+00 -2.2861165283717D-01 -1.2634145513187D+00
116  1.1500000000000D+00 -2.0797921889097D-01 -1.1745632632288D+00
117  1.1600000000000D+00 -1.8728606650635D-01 -1.0784113790642D+00
118  1.1700000000000D+00 -1.6674508624116D-01 -9.7688111796144D-01
119  1.1800000000000D+00 -1.4656948192232D-01 -8.7195228099048D-01
120  1.1900000000000D+00 -1.2697025354797D-01 -7.6562837470022D-01
121  1.2000000000000D+00 -1.0815367062073D-01 -6.5990239922037D-01
122  1.2100000000000D+00 -9.0318776184813D-02 -5.5672289835999D-01
123  1.2200000000000D+00 -7.3654961593549D-02 -4.5796086586281D-01
124  1.2300000000000D+00 -5.8339652060303D-02 -3.6537810268652D-01
125  1.2400000000000D+00 -4.4536140692845D-02 -2.8059758561364D-01
126  1.2500000000000D+00 -3.2391605961257D-02 -2.0507636681292D-01
127  1.2600000000000D+00 -2.2035347459609D-02 -1.4008152278988D-01
128  1.2700000000000D+00 -1.3582381565315D-02 -8.6702693882210D-02
129  1.2800000000000D+00 -7.0799869762800D-03 -4.5492663904182D-02
130  1.2900000000000D+00 -2.6869917095704D-03 -1.7644245126812D-02
131  1.3000000000000D+00 -5.0130947177234D-04 -3.8652124973303D-03
132  1.3100000000000D+00  1.1217415320318D-04  2.1888190175101D-04
133  1.3200000000000D+00  2.6633142781729D-05  1.1358305251650D-04
134  1.3300000000000D+00 -3.7974861045668D-05 -1.7567603902715D-04
135  1.3400000000000D+00  3.8181115030771D-06  1.5535114203095D-05
136  1.3500000000000D+00  4.2339044905854D-06  1.7995709592554D-05
137  1.3600000000000D+00  1.5826364168822D-08  1.8654269820053D-06
138  1.3700000000000D+00  0.0000000000000D+00  0.0000000000000D+00
139  1.3800000000000D+00  0.0000000000000D+00  0.0000000000000D+00
140  1.3900000000000D+00  0.0000000000000D+00  0.0000000000000D+00
141  1.4000000000000D+00  0.0000000000000D+00  0.0000000000000D+00
142  1.4100000000000D+00  0.0000000000000D+00  0.0000000000000D+00
143  1.4200000000000D+00  0.0000000000000D+00  0.0000000000000D+00
144  1.4300000000000D+00  0.0000000000000D+00  0.0000000000000D+00
145  1.4400000000000D+00  0.0000000000000D+00  0.0000000000000D+00
146  1.4500000000000D+00  0.0000000000000D+00  0.0000000000000D+00
147  1.4600000000000D+00  0.0000000000000D+00  0.0000000000000D+00
148  1.4700000000000D+00  0.0000000000000D+00  0.0000000000000D+00
149  1.4800000000000D+00  0.0000000000000D+00  0.0000000000000D+00
150  1.4900000000000D+00  0.0000000000000D+00  0.0000000000000D+00
151  1.5000000000000D+00  0.0000000000000D+00  0.0000000000000D+00
152  1.5100000000000D+00  0.0000000000000D+00  0.0000000000000D+00
153  1.5200000000000D+00  0.0000000000000D+00  0.0000000000000D+00
154  1.5300000000000D+00  0.0000000000000D+00  0.0000000000000D+00
155  1.5400000000000D+00  0.0000000000000D+00  0.0000000000000D+00
156  1.5500000000000D+00  0.0000000000000D+00  0.0000000000000D+00
157  1.5600000000000D+00  0.0000000000000D+00  0.0000000000000D+00
158  1.5700000000000D+00  0.0000000000000D+00  0.0000000000000D+00
159  1.5800000000000D+00  0.0000000000000D+00  0.0000000000000D+00
160  1.5900000000000D+00  0.0000000000000D+00  0.0000000000000D+00
161  1.6000000000000D+00  0.0000000000000D+00  0.0000000000000D+00
162  1.6100000000000D+00  0.0000000000000D+00  0.0000000000000D+00
163  1.6200000000000D+00  0.0000000000000D+00  0.0000000000000D+00
164  1.6300000000000D+00  0.0000000000000D+00  0.0000000000000D+00
165  1.6400000000000D+00  0.0000000000000D+00  0.0000000000000D+00
166  1.6500000000000D+00  0.0000000000000D+00  0.0000000000000D+00
167  1.6600000000000D+00  0.0000000000000D+00  0.0000000000000D+00
168  1.6700000000000D+00  0.0000000000000D+00  0.0000000000000D+00
169  1.6800000000000D+00  0.0000000000000D+00  0.0000000000000D+00
170  1.6900000000000D+00  0.0000000000000D+00  0.0000000000000D+00
171  1.7000000000000D+00  0.0000000000000D+00  0.0000000000000D+00
172  1.7100000000000D+00  0.0000000000000D+00  0.0000000000000D+00
173  1.7200000000000D+00  0.0000000000000D+00  0.0000000000000D+00
174  1.7300000000000D+00  0.0000000000000D+00  0.0000000000000D+00
175  1.7400000000000D+00  0.0000000000000D+00  0.0000000000000D+00
176  1.7500000000000D+00  0.0000000000000D+00  0.0000000000000D+00
177  1.7600000000000D+00  0.0000000000000D+00  0.0000000000000D+00
178  1.7700000000000D+00  0.0000000000000D+00  0.0000000000000D+00
179  1.7800000000000D+00  0.0000000000000D+00  0.0000000000000D+00
180  1.7900000000000D+00  0.0000000000000D+00  0.0000000000000D+00
181  1.8000000000000D+00  0.0000000000000D+00  0.0000000000000D+00
182  1.8100000000000D+00  0.0000000000000D+00  0.0000000000000D+00
183  1.8200000000000D+00  0.0000000000000D+00  0.0000000000000D+00
184  1.8300000000000D+00  0.0000000000000D+00  0.0000000000000D+00
185  1.8400000000000D+00  0.0000000000000D+00  0.0000000000000D+00
186  1.8500000000000D+00  0.0000000000000D+00  0.0000000000000D+00
187  1.8600000000000D+00  0.0000000000000D+00  0.0000000000000D+00
188  1.8700000000000D+00  0.0000000000000D+00  0.0000000000000D+00
189  1.8800000000000D+00  0.0000000000000D+00  0.0000000000000D+00
190  1.8900000000000D+00  0.0000000000000D+00  0.0000000000000D+00
191  1.9000000000000D+00  0.0000000000000D+00  0.0000000000000D+00
192  1.9100000000000D+00  0.0000000000000D+00  0.0000000000000D+00
193  1.9200000000000D+00  0.0000000000000D+00  0.0000000000000D+00
194  1.9300000000000D+00  0.0000000000000D+00  0.0000000000000D+00
195  1.9400000000000D+00  0.0000000000000D+00  0.0000000000000D+00
196  1.9500000000000D+00  0.0000000000000D+00  0.0000000000000D+00
197  1.9600000000000D+00  0.0000000000000D+00  0.0000000000000D+00
198  1.9700000000000D+00  0.0000000000000D+00  0.0000000000000D+00
199  1.9800000000000D+00  0.0000000000000D+00  0.0000000000000D+00
200  1.9900000000000D+00  0.0000000000000D+00  0.0000000000000D+00
201  2.0000000000000D+00  0.0000000000000D+00  0.0000000000000D+00
202  2.0100000000000D+00  0.0000000000000D+00  0.0000000000000D+00
203  2.0200000000000D+00  0.0000000000000D+00  0.0000000000000D+00
204  2.0300000000000D+00  0.0000000000000D+00  0.0000000000000D+00
205  2.0400000000000D+00  0.0000000000000D+00  0.0000000000000D+00
206  2.0500000000000D+00  0.0000000000000D+00  0.0000000000000D+00
207  2.0600000000000D+00  0.0000000000000D+00  0.0000000000000D+00
208  2.0700000000000D+00  0.0000000000000D+00  0.0000000000000D+00
209  2.0800000000000D+00  0.0000000000000D+00  0.0000000000000D+00
210  2.0900000000000D+00  0.0000000000000D+00  0.0000000000000D+00
211  2.1000000000000D+00  0.0000000000000D+00  0.0000000000000D+00
212  2.1100000000000D+00  0.0000000000000D+00  0.0000000000000D+00
213  2.1200000000000D+00  0.0000000000000D+00  0.0000000000000D+00
214  2.1300000000000D+00  0.0000000000000D+00  0.0000000000000D+00
215  2.1400000000000D+00  0.0000000000000D+00  0.0000000000000D+00
216  2.1500000000000D+00  0.0000000000000D+00  0.0000000000000D+00
217  2.1600000000000D+00  0.0000000000000D+00  0.0000000000000D+00
218  2.1700000000000D+00  0.0000000000000D+00  0.0000000000000D+00
219  2.1800000000000D+00  0.0000000000000D+00  0.0000000000000D+00
220  2.1900000000000D+00  0.0000000000000D+00  0.0000000000000D+00
221  2.2000000000000D+00  0.0000000000000D+00  0.0000000000000D+00
222  2.2100000000000D+00  0.0000000000000D+00  0.0000000000000D+00
223  2.2200000000000D+00  0.0000000000000D+00  0.0000000000000D+00
224  2.2300000000000D+00  0.0000000000000D+00  0.0000000000000D+00
225  2.2400000000000D+00  0.0000000000000D+00  0.0000000000000D+00
226  2.2500000000000D+00  0.0000000000000D+00  0.0000000000000D+00
227  2.2600000000000D+00  0.0000000000000D+00  0.0000000000000D+00
228  2.2700000000000D+00  0.0000000000000D+00  0.0000000000000D+00
229  2.2800000000000D+00  0.0000000000000D+00  0.0000000000000D+00
230  2.2900000000000D+00  0.0000000000000D+00  0.0000000000000D+00
231  2.3000000000000D+00  0.0000000000000D+00  0.0000000000000D+00
232  2.3100000000000D+00  0.0000000000000D+00  0.0000000000000D+00
233  2.3200000000000D+00  0.0000000000000D+00  0.0000000000000D+00
234  2.3300000000000D+00  0.0000000000000D+00  0.0000000000000D+00
235  2.3400000000000D+00  0.0000000000000D+00  0.0000000000000D+00
236  2.3500000000000D+00  0.0000000000000D+00  0.0000000000000D+00
237  2.3600000000000D+00  0.0000000000000D+00  0.0000000000000D+00
238  2.3700000000000D+00  0.0000000000000D+00  0.0000000000000D+00
239  2.3800000000000D+00  0.0000000000000D+00  0.0000000000000D+00
240  2.3900000000000D+00  0.0000000000000D+00  0.0000000000000D+00
241  2.4000000000000D+00  0.0000000000000D+00  0.0000000000000D+00
242  2.4100000000000D+00  0.0000000000000D+00  0.0000000000000D+00
243  2.4200000000000D+00  0.0000000000000D+00  0.0000000000000D+00
244  2.4300000000000D+00  0.0000000000000D+00  0.0000000000000D+00
245  2.4400000000000D+00  0.0000000000000D+00  0.0000000000000D+00
246  2.4500000000000D+00  0.0000000000000D+00  0.0000000000000D+00
247  2.4600000000000D+00  0.0000000000000D+00  0.0000000000000D+00
248  2.4700000000000D+00  0.0000000000000D+00  0.0000000000000D+00
249  2.4800000000000D+00  0.0000000000000D+00  0.0000000000000D+00
250  2.4900000000000D+00  0.0000000000000D+00  0.0000000000000D+00
251  2.5000000000000D+00  0.0000000000000D+00  0.0000000000000D+00
252  2.5100000000000D+00  0.0000000000000D+00  0.0000000000000D+00
253  2.5200000000000D+00  0.0000000000000D+00  0.0000000000000D+00
254  2.5300000000000D+00  0.0000000000000D+00  0.0000000000000D+00
255  2.5400000000000D+00  0.0000000000000D+00  0.0000000000000D+00
256  2.5500000000000D+00  0.0000000000000D+00  0.0000000000000D+00
257  2.5600000000000D+00  0.0000000000000D+00  0.0000000000000D+00
258  2.5700000000000D+00  0.0000000000000D+00  0.0000000000000D+00
259  2.5800000000000D+00  0.0000000000000D+00  0.0000000000000D+00
260  2.5900000000000D+00  0.0000000000000D+00  0.0000000000000D+00
261  2.6000000000000D+00  0.0000000000000D+00  0.0000000000000D+00
262  2.6100000000000D+00  0.0000000000000D+00  0.0000000000000D+00
263  2.6200000000000D+00  0.0000000000000D+00  0.0000000000000D+00
264  2.6300000000000D+00  0.0000000000000D+00  0.0000000000000D+00
265  2.6400000000000D+00  0.0000000000000D+00  0.0000000000000D+00
266  2.6500000000000D+00  0.0000000000000D+00  0.0000000000000D+00
267  2.6600000000000D+00  0.0000000000000D+00  0.0000000000000D+00
268  2.6700000000000D+00  0.0000000000000D+00  0.0000000000000D+00
269  2.6800000000000D+00  0.0000000000000D+00  0.0000000000000D+00
270  2.6900000000000D+00  0.0000000000000D+00  0.0000000000000D+00
271  2.7000000000000D+00  0.0000000000000D+00  0.0000000000000D+00
272  2.7100000000000D+00  0.0000000000000D+00  0.0000000000000D+00
273  2.7200000000000D+00  0.0000000000000D+00  0.0000000000000D+00
274  2.7300000000000D+00  0.0000000000000D+00  0.0000000000000D+00
275  2.7400000000000D+00  0.0000000000000D+00  0.0000000000000D+00
276  2.7500000000000D+00  0.0000000000000D+00  0.0000000000000D+00
277  2.7600000000000D+00  0.0000000000000D+00  0.0000000000000D+00
278  2.7700000000000D+00  0.0000000000000D+00  0.0000000000000D+00
279  2.7800000000000D+00  0.0000000000000D+00  0.0000000000000D+00
280  2.7900000000000D+00  0.0000000000000D+00  0.0000000000000D+00
281  2.8000000000000D+00  0.0000000000000D+00  0.0000000000000D+00
282  2.8100000000000D+00  0.0000000000000D+00  0.0000000000000D+00
283  2.8200000000000D+00  0.0000000000000D+00  0.0000000000000D+00
284  2.8300000000000D+00  0.0000000000000D+00  0.0000000000000D+00
285  2.8400000000000D+00  0.0000000000000D+00  0.0000000000000D+00
286  2.8500000000000D+00  0.0000000000000D+00  0.0000000000000D+00
287  2.8600000000000D+00  0.0000000000000D+00  0.0000000000000D+00
288  2.8700000000000D+00  0.0000000000000D+00  0.0000000000000D+00
289  2.8800000000000D+00  0.0000000000000D+00  0.0000000000000D+00
290  2.8900000000000D+00  0.0000000000000D+00  0.0000000000000D+00
291  2.9000000000000D+00  0.0000000000000D+00  0.0000000000000D+00
292  2.9100000000000D+00  0.0000000000000D+00  0.0000000000000D+00
293  2.9200000000000D+00  0.0000000000000D+00  0.0000000000000D+00
294  2.9300000000000D+00  0.0000000000000D+00  0.0000000000000D+00
295  2.9400000000000D+00  0.0000000000000D+00  0.0000000000000D+00
296  2.9500000000000D+00  0.0000000000000D+00  0.0000000000000D+00
297  2.9600000000000D+00  0.0000000000000D+00  0.0000000000000D+00
298  2.9700000000000D+00  0.0000000000000D+00  0.0000000000000D+00
299  2.9800000000000D+00  0.0000000000000D+00  0.0000000000000D+00
300  2.9900000000000D+00  0.0000000000000D+00  0.0000000000000D+00
301  3.0000000000000D+00  0.0000000000000D+00  0.0000000000000D+00
302  3.0100000000000D+00  0.0000000000000D+00  0.0000000000000D+00
303  3.0200000000000D+00  0.0000000000000D+00  0.0000000000000D+00
304  3.0300000000000D+00  0.0000000000000D+00  0.0000000000000D+00
305  3.0400000000000D+00  0.0000000000000D+00  0.0000000000000D+00
306  3.0500000000000D+00  0.0000000000000D+00  0.0000000000000D+00
307  3.0600000000000D+00  0.0000000000000D+00  0.0000000000000D+00
308  3.0700000000000D+00  0.0000000000000D+00  0.0000000000000D+00
309  3.0800000000000D+00  0.0000000000000D+00  0.0000000000000D+00
310  3.0900000000000D+00  0.0000000000000D+00  0.0000000000000D+00
311  3.1000000000000D+00  0.0000000000000D+00  0.0000000000000D+00
312  3.1100000000000D+00  0.0000000000000D+00  0.0000000000000D+00
313  3.1200000000000D+00  0.0000000000000D+00  0.0000000000000D+00
314  3.1300000000000D+00  0.0000000000000D+00  0.0000000000000D+00
315  3.1400000000000D+00  0.0000000000000D+00  0.0000000000000D+00
316  3.1500000000000D+00  0.0000000000000D+00  0.0000000000000D+00
317  3.1600000000000D+00  0.0000000000000D+00  0.0000000000000D+00
318  3.1700000000000D+00  0.0000000000000D+00  0.0000000000000D+00
319  3.1800000000000D+00  0.0000000000000D+00  0.0000000000000D+00
320  3.1900000000000D+00  0.0000000000000D+00  0.0000000000000D+00
321  3.2000000000000D+00  0.0000000000000D+00  0.0000000000000D+00
322  3.2100000000000D+00  0.0000000000000D+00  0.0000000000000D+00
323  3.2200000000000D+00  0.0000000000000D+00  0.0000000000000D+00
324  3.2300000000000D+00  0.0000000000000D+00  0.0000000000000D+00
325  3.2400000000000D+00  0.0000000000000D+00  0.0000000000000D+00
326  3.2500000000000D+00  0.0000000000000D+00  0.0000000000000D+00
327  3.2600000000000D+00  0.0000000000000D+00  0.0000000000000D+00
328  3.2700000000000D+00  0.0000000000000D+00  0.0000000000000D+00
329  3.2800000000000D+00  0.0000000000000D+00  0.0000000000000D+00
330  3.2900000000000D+00  0.0000000000000D+00  0.0000000000000D+00
331  3.3000000000000D+00  0.0000000000000D+00  0.0000000000000D+00
332  3.3100000000000D+00  0.0000000000000D+00  0.0000000000000D+00
333  3.3200000000000D+00  0.0000000000000D+00  0.0000000000000D+00
334  3.3300000000000D+00  0.0000000000000D+00  0.0000000000000D+00
335  3.3400000000000D+00  0.0000000000000D+00  0.0000000000000D+00
336  3.3500000000000D+00  0.0000000000000D+00  0.0000000000000D+00
337  3.3600000000000D+00  0.0000000000000D+00  0.0000000000000D+00
338  3.3700000000000D+00  0.0000000000000D+00  0.0000000000000D+00
339  3.3800000000000D+00  0.0000000000000D+00  0.0000000000000D+00
340  3.3900000000000D+00  0.0000000000000D+00  0.0000000000000D+00
341  3.4000000000000D+00  0.0000000000000D+00  0.0000000000000D+00
342  3.4100000000000D+00  0.0000000000000D+00  0.0000000000000D+00
343  3.4200000000000D+00  0.0000000000000D+00  0.0000000000000D+00
344  3.4300000000000D+00  0.0000000000000D+00  0.0000000000000D+00
345  3.4400000000000D+00  0.0000000000000D+00  0.0000000000000D+00
346  3.4500000000000D+00  0.0000000000000D+00  0.0000000000000D+00
347  3.4600000000000D+00  0.0000000000000D+00  0.0000000000000D+00
348  3.4700000000000D+00  0.0000000000000D+00  0.0000000000000D+00
349  3.4800000000000D+00  0.0000000000000D+00  0.0000000000000D+00
350  3.4900000000000D+00  0.0000000000000D+00  0.0000000000000D+00
351  3.5000000000000D+00  0.0000000000000D+00  0.0000000000000D+00
352  3.5100000000000D+00  0.0000000000000D+00  0.0000000000000D+00
353  3.5200000000000D+00  0.0000000000000D+00  0.0000000000000D+00
354  3.5300000000000D+00  0.0000000000000D+00  0.0000000000000D+00
355  3.5400000000000D+00  0.0000000000000D+00  0.0000000000000D+00
356  3.5500000000000D+00  0.0000000000000D+00  0.0000000000000D+00
357  3.5600000000000D+00  0.0000000000000D+00  0.0000000000000D+00
358  3.5700000000000D+00  0.0000000000000D+00  0.0000000000000D+00
359  3.5800000000000D+00  0.0000000000000D+00  0.0000000000000D+00
360  3.5900000000000D+00  0.0000000000000D+00  0.0000000000000D+00
361  3.6000000000000D+00  0.0000000000000D+00  0.0000000000000D+00
362  3.6100000000000D+00  0.0000000000000D+00  0.0000000000000D+00
363  3.6200000000000D+00  0.0000000000000D+00  0.0000000000000D+00
364  3.6300000000000D+00  0.0000000000000D+00  0.0000000000000D+00
365  3.6400000000000D+00  0.0000000000000D+00  0.0000000000000D+00
366  3.6500000000000D+00  0.0000000000000D+00  0.0000000000000D+00
367  3.6600000000000D+00  0.0000000000000D+00  0.0000000000000D+00
368  3.6700000000000D+00  0.0000000000000D+00  0.0000000000000D+00
369  3.6800000000000D+00  0.0000000000000D+00  0.0000000000000D+00
370  3.6900000000000D+00  0.0000000000000D+00  0.0000000000000D+00
371  3.7000000000000D+00  0.0000000000000D+00  0.0000000000000D+00
372  3.7100000000000D+00  0.0000000000000D+00  0.0000000000000D+00
373  3.7200000000000D+00  0.0000000000000D+00  0.0000000000000D+00
374  3.7300000000000D+00  0.0000000000000D+00  0.0000000000000D+00
375  3.7400000000000D+00  0.0000000000000D+00  0.0000000000000D+00
376  3.7500000000000D+00  0.0000000000000D+00  0.0000000000000D+00
377  3.7600000000000D+00  0.0000000000000D+00  0.0000000000000D+00
378  3.7700000000000D+00  0.0000000000000D+00  0.0000000000000D+00
379  3.7800000000000D+00  0.0000000000000D+00  0.0000000000000D+00
380  3.7900000000000D+00  0.0000000000000D+00  0.0000000000000D+00
381  3.8000000000000D+00  0.0000000000000D+00  0.0000000000000D+00
382  3.8100000000000D+00  0.0000000000000D+00  0.0000000000000D+00
383  3.8200000000000D+00  0.0000000000000D+00  0.0000000000000D+00
384  3.8300000000000D+00  0.0000000000000D+00  0.0000000000000D+00
385  3.8400000000000D+00  0.0000000000000D+00  0.0000000000000D+00
386  3.8500000000000D+00  0.0000000000000D+00  0.0000000000000D+00
387  3.8600000000000D+00  0.0000000000000D+00  0.0000000000000D+00
388  3.8700000000000D+00  0.0000000000000D+00  0.0000000000000D+00
389  3.8800000000000D+00  0.0000000000000D+00  0.0000000000000D+00
390  3.8900000000000D+00  0.0000000000000D+00  0.0000000000000D+00
391  3.9000000000000D+00  0.0000000000000D+00  0.0000000000000D+00
392  3.9100000000000D+00  0.0000000000000D+00  0.0000000000000D+00
393  3.9200000000000D+00  0.0000000000000D+00  0.0000000000000D+00
394  3.9300000000000D+00  0.0000000000000D+00  0.0000000000000D+00
395  3.9400000000000D+00  0.0000000000000D+00  0.0000000000000D+00
396  3.9500000000000D+00  0.0000000000000D+00  0.0000000000000D+00
397  3.9600000000000D+00  0.0000000000000D+00  0.0000000000000D+00
398  3.9700000000000D+00  0.0000000000000D+00  0.0000000000000D+00
399  3.9800000000000D+00  0.0000000000000D+00  0.0000000000000D+00
400  3.9900000000000D+00  0.0000000000000D+00  0.0000000000000D+00
401  4.0000000000000D+00  0.0000000000000D+00  0.0000000000000D+00
402  4.0100000000000D+00  0.0000000000000D+00  0.0000000000000D+00
403  4.0200000000000D+00  0.0000000000000D+00  0.0000000000000D+00
404  4.0300000000000D+00  0.0000000000000D+00  0.0000000000000D+00
405  4.0400000000000D+00  0.0000000000000D+00  0.0000000000000D+00
406  4.0500000000000D+00  0.0000000000000D+00  0.0000000000000D+00
407  4.0600000000000D+00  0.0000000000000D+00  0.0000000000000D+00
408  4.0700000000000D+00  0.0000000000000D+00  0.0000000000000D+00
409  4.0800000000000D+00  0.0000000000000D+00  0.0000000000000D+00
410  4.0900000000000D+00  0.0000000000000D+00  0.0000000000000D+00
411  4.1000000000000D+00  0.0000000000000D+00  0.0000000000000D+00
412  4.1100000000000D+00  0.0000000000000D+00  0.0000000000000D+00
413  4.1200000000000D+00  0.0000000000000D+00  0.0000000000000D+00
414  4.1300000000000D+00  0.0000000000000D+00  0.0000000000000D+00
415  4.1400000000000D+00  0.0000000000000D+00  0.0000000000000D+00
416  4.1500000000000D+00  0.0000000000000D+00  0.0000000000000D+00
417  4.1600000000000D+00  0.0000000000000D+00  0.0000000000000D+00
418  4.1700000000000D+00  0.0000000000000D+00  0.0000000000000D+00
419  4.1800000000000D+00  0.0000000000000D+00  0.0000000000000D+00
420  4.1900000000000D+00  0.0000000000000D+00  0.0000000000000D+00
421  4.2000000000000D+00  0.0000000000000D+00  0.0000000000000D+00
422  4.2100000000000D+00  0.0000000000000D+00  0.0000000000000D+00
423  4.2200000000000D+00  0.0000000000000D+00  0.0000000000000D+00
424  4.2300000000000D+00  0.0000000000000D+00  0.0000000000000D+00
425  4.2400000000000D+00  0.0000000000000D+00  0.0000000000000D+00
426  4.2500000000000D+00  0.0000000000000D+00  0.0000000000000D+00
427  4.2600000000000D+00  0.0000000000000D+00  0.0000000000000D+00
428  4.2700000000000D+00  0.0000000000000D+00  0.0000000000000D+00
429  4.2800000000000D+00  0.0000000000000D+00  0.0000000000000D+00
430  4.2900000000000D+00  0.0000000000000D+00  0.0000000000000D+00
431  4.3000000000000D+00  0.0000000000000D+00  0.0000000000000D+00
432  4.3100000000000D+00  0.0000000000000D+00  0.0000000000000D+00
433  4.3200000000000D+00  0.0000000000000D+00  0.0000000000000D+00
434  4.3300000000000D+00  0.0000000000000D+00  0.0000000000000D+00
435  4.3400000000000D+00  0.0000000000000D+00  0.0000000000000D+00
436  4.3500000000000D+00  0.0000000000000D+00  0.0000000000000D+00
437  4.3600000000000D+00  0.0000000000000D+00  0.0000000000000D+00
438  4.3700000000000D+00  0.0000000000000D+00  0.0000000000000D+00
439  4.3800000000000D+00  0.0000000000000D+00  0.0000000000000D+00
440  4.3900000000000D+00  0.0000000000000D+00  0.0000000000000D+00
441  4.4000000000000D+00  0.0000000000000D+00  0.0000000000000D+00
442  4.4100000000000D+00  0.0000000000000D+00  0.0000000000000D+00
443  4.4200000000000D+00  0.0000000000000D+00  0.0000000000000D+00
444  4.4300000000000D+00  0.0000000000000D+00  0.0000000000000D+00