Cl    ONCVPSP-3.3.0  r_core=   1.40128   1.56009   1.80017
17.0000     15.0000      180112    zatom,zion,pspd
8 -116133   2     4   600     0    pspcod,pspxc,lmax,lloc,mmax,r2well
5.99000000  0.00000000  0.00000000    rchrg fchrg qchrg
2     2     2     0     0    nproj
1     1           extension_switch
0                        -7.7791442491389D+00 -1.7882650775352D+00
1  0.0000000000000D+00 -9.6734287247102D-11  1.0536308492348D-09
2  1.0000000000000D-02  7.8968116854924D-02 -6.4205833833360D-02
3  2.0000000000000D-02  1.5774279008864D-01 -1.2803668880315D-01
4  3.0000000000000D-02  2.3613124830700D-01 -1.9111994835606D-01
5  4.0000000000000D-02  3.1394206135385D-01 -2.5308769906005D-01
6  5.0000000000000D-02  3.9098580291451D-01 -3.1357902869037D-01
7  6.0000000000000D-02  4.6707570357029D-01 -3.7224226090748D-01
8  7.0000000000000D-02  5.4202829123580D-01 -4.2873710664821D-01
9  8.0000000000000D-02  6.1566401600794D-01 -4.8273671340498D-01
10  9.0000000000000D-02  6.8780785657366D-01 -5.3392959485535D-01
11  1.0000000000000D-01  7.5828990546302D-01 -5.8202142480672D-01
12  1.1000000000000D-01  8.2694593059199D-01 -6.2673668111587D-01
13  1.2000000000000D-01  8.9361791071391D-01 -6.6782012710580D-01
14  1.3000000000000D-01  9.5815454258871D-01 -7.0503812000516D-01
15  1.4000000000000D-01  1.0204117178806D+00 -7.3817973804935D-01
16  1.5000000000000D-01  1.0802529680075D+00 -7.6705772007575D-01
17  1.6000000000000D-01  1.1375498753858D+00 -7.9150921368666D-01
18  1.7000000000000D-01  1.1921824497389D+00 -8.1139633030945D-01
19  1.8000000000000D-01  1.2440394683658D+00 -8.2660650772179D-01
20  1.9000000000000D-01  1.2930187794948D+00 -8.3705268279742D-01
21  2.0000000000000D-01  1.3390275680732D+00 -8.4267327933449D-01
22  2.1000000000000D-01  1.3819825835636D+00 -8.4343201782236D-01
23  2.2000000000000D-01  1.4218103295345D+00 -8.3931755585732D-01
24  2.3000000000000D-01  1.4584472150365D+00 -8.3034296960618D-01
25  2.4000000000000D-01  1.4918396679505D+00 -8.1654508821519D-01
26  2.5000000000000D-01  1.5219442106777D+00 -7.9798369435235D-01
27  2.6000000000000D-01  1.5487274987102D+00 -7.7474060513437D-01
28  2.7000000000000D-01  1.5721663227718D+00 -7.4691864851441D-01
29  2.8000000000000D-01  1.5922475753615D+00 -7.1464055078287D-01
30  2.9000000000000D-01  1.6089681826499D+00 -6.7804775115599D-01
31  3.0000000000000D-01  1.6223350027858D+00 -6.3729915949522D-01
32  3.1000000000000D-01  1.6323646917575D+00 -5.9256987301571D-01
33  3.2000000000000D-01  1.6390835380270D+00 -5.4404986741464D-01
34  3.3000000000000D-01  1.6425272672088D+00 -4.9194267718693D-01
35  3.4000000000000D-01  1.6427408181098D+00 -4.3646407901541D-01
36  3.5000000000000D-01  1.6397780914700D+00 -3.7784079104098D-01
37  3.6000000000000D-01  1.6337016727608D+00 -3.1630919955781D-01
38  3.7000000000000D-01  1.6245825304019D+00 -2.5211412326469D-01
39  3.8000000000000D-01  1.6124996907468D+00 -1.8550762366180D-01
40  3.9000000000000D-01  1.5975398911799D+00 -1.1674786854349D-01
41  4.0000000000000D-01  1.5797972126408D+00 -4.6098053830802D-02
42  4.1000000000000D-01  1.5593726928736D+00  2.6174612753084D-02
43  4.2000000000000D-01  1.5363739216691D+00  9.9799864405734D-02
44  4.3000000000000D-01  1.5109146193430D+00  1.7450526432127D-01
45  4.4000000000000D-01  1.4831141996680D+00  2.5001703272579D-01
46  4.5000000000000D-01  1.4530973184583D+00  3.2606081503758D-01
47  4.6000000000000D-01  1.4209934089864D+00  4.0236239575376D-01
48  4.7000000000000D-01  1.3869362054054D+00  4.7864836395134D-01
49  4.8000000000000D-01  1.3510632553472D+00  5.5464673740296D-01
50  4.9000000000000D-01  1.3135154228737D+00  6.3008755322311D-01
51  5.0000000000000D-01  1.2744363829771D+00  7.0470343366226D-01
52  5.1000000000000D-01  1.2339721088506D+00  7.7823013613825D-01
53  5.2000000000000D-01  1.1922703531898D+00  8.5040709682734D-01
54  5.3000000000000D-01  1.1494801248313D+00  9.2097797712418D-01
55  5.4000000000000D-01  1.1057511620945D+00  9.8969122201909D-01
56  5.5000000000000D-01  1.0612334042568D+00  1.0563006389366D+00
57  5.6000000000000D-01  1.0160764626702D+00  1.1205660048345D+00
58  5.7000000000000D-01  9.7042909310508D-01  1.1822537083970D+00
59  5.8000000000000D-01  9.2443867099750D-01  1.2411374329722D+00
60  5.9000000000000D-01  8.7825067136266D-01  1.2969988845420D+00
61  6.0000000000000D-01  8.3200815523079D-01  1.3496285674720D+00
62  6.1000000000000D-01  7.8585126455032D-01  1.3988266091224D+00
63  6.2000000000000D-01  7.3991672759047D-01  1.4444036326153D+00
64  6.3000000000000D-01  6.9433737695524D-01  1.4861816752025D+00
65  6.4000000000000D-01  6.4924168239314D-01  1.5239951477812D+00
66  6.5000000000000D-01  6.0475330064716D-01  1.5576918292016D+00
67  6.6000000000000D-01  5.6099064463605D-01  1.5871338871561D+00
68  6.7000000000000D-01  5.1806647428841D-01  1.6121989156328D+00
69  6.8000000000000D-01  4.7608751136208D-01  1.6327809772395D+00
70  6.9000000000000D-01  4.3515408057178D-01  1.6487916371613D+00
71  7.0000000000000D-01  3.9535977931515D-01  1.6601609741527D+00
72  7.1000000000000D-01  3.5679117822938D-01  1.6668385528125D+00
73  7.2000000000000D-01  3.1952755472742D-01  1.6687943404834D+00
74  7.3000000000000D-01  2.8364066155068D-01  1.6660195514675D+00
75  7.4000000000000D-01  2.4919453223742D-01  1.6585274008985D+00
76  7.5000000000000D-01  2.1624532523757D-01  1.6463537505502D+00
77  7.6000000000000D-01  1.8484120821002D-01  1.6295576291333D+00
78  7.7000000000000D-01  1.5502228381587D-01  1.6082216102162D+00
79  7.8000000000000D-01  1.2682055807199D-01  1.5824520318228D+00
80  7.9000000000000D-01  1.0025995205587D-01  1.5523790429988D+00
81  8.0000000000000D-01  7.5356357456197D-02  1.5181564641888D+00
82  8.1000000000000D-01  5.2117736147543D-02  1.4799614501181D+00
83  8.2000000000000D-01  3.0544263633094D-02  1.4379939460041D+00
84  8.3000000000000D-01  1.0628515852703D-02  1.3924759303016D+00
85  8.4000000000000D-01 -7.6443015059807D-03  1.3436504397984D+00
86  8.5000000000000D-01 -2.4296082419096D-02  1.2917803756716D+00
87  8.6000000000000D-01 -3.9355510253750D-02  1.2371470920581D+00
88  8.7000000000000D-01 -5.2857709768098D-02  1.1800487717493D+00
89  8.8000000000000D-01 -6.4843863699225D-02  1.1207985967360D+00
90  8.9000000000000D-01 -7.5360796599637D-02  1.0597227244571D+00
91  9.0000000000000D-01 -8.4460528913990D-02  9.9715808371691D-01
92  9.1000000000000D-01 -9.2199804594435D-02  9.3345000722579D-01
93  9.2000000000000D-01 -9.8639595839524D-02  8.6894972063257D-01
94  9.3000000000000D-01 -1.0384458879354D-01  8.0401171059894D-01
95  9.4000000000000D-01 -1.0788265426411D-01  7.3899099694859D-01
96  9.5000000000000D-01 -1.1082430769884D-01  6.7424033612540D-01
97  9.6000000000000D-01 -1.1274216280336D-01  6.1010738508498D-01
98  9.7000000000000D-01 -1.1371038328212D-01  5.4693185628216D-01
99  9.8000000000000D-01 -1.1380413723514D-01  4.8504269557309D-01
100  9.9000000000000D-01 -1.1309905874954D-01  4.2475531559848D-01
101  1.0000000000000D+00 -1.1167072117664D-01  3.6636891750841D-01
102  1.0100000000000D+00 -1.0959412649819D-01  3.1016393378228D-01
103  1.0200000000000D+00 -1.0694321503551D-01  2.5639962428305D-01
104  1.0300000000000D+00 -1.0379039956558D-01  2.0531185663243D-01
105  1.0400000000000D+00 -1.0020612766864D-01  1.5711110048920D-01
106  1.0500000000000D+00 -9.6258475849786D-02  1.1198066338497D-01
107  1.0600000000000D+00 -9.2012778628684D-02  7.0075193223642D-02
108  1.0700000000000D+00 -8.7531295475306D-02  3.1519470173242D-02
109  1.0800000000000D+00 -8.2872918005899D-02 -3.5924929496439D-03
110  1.0900000000000D+00 -7.8092919463468D-02 -3.5198025848846D-02
111  1.1000000000000D+00 -7.3242748028533D-02 -6.3266039436790D-02
112  1.1100000000000D+00 -6.8369865022117D-02 -8.7796920058920D-02
113  1.1200000000000D+00 -6.3517628620318D-02 -1.0882207500988D-01
114  1.1300000000000D+00 -5.8725223112268D-02 -1.2640313015131D-01
115  1.1400000000000D+00 -5.4027633295074D-02 -1.4063078425830D-01
116  1.1500000000000D+00 -4.9455663044291D-02 -1.5162332959474D-01
117  1.1600000000000D+00 -4.5035996716166D-02 -1.5952485158853D-01
118  1.1700000000000D+00 -4.0791301408512D-02 -1.6450312609616D-01
119  1.1800000000000D+00 -3.6740367913118D-02 -1.6674723395639D-01
120  1.1900000000000D+00 -3.2898287286681D-02 -1.6646492253105D-01
121  1.2000000000000D+00 -2.9276657641868D-02 -1.6387976968270D-01
122  1.2100000000000D+00 -2.5883824862640D-02 -1.5922809759991D-01
123  1.2200000000000D+00 -2.2725161961602D-02 -1.5275555852955D-01
124  1.2300000000000D+00 -1.9803201337976D-02 -1.4471568794702D-01
125  1.2400000000000D+00 -1.7117776315060D-02 -1.3536840608307D-01
126  1.2500000000000D+00 -1.4666185619895D-02 -1.2497829608720D-01
127  1.2600000000000D+00 -1.2443527935451D-02 -1.1381087137069D-01
128  1.2700000000000D+00 -1.0443019991102D-02 -1.0212914781636D-01
129  1.2800000000000D+00 -8.6563138428753D-03 -9.0190316676061D-02
130  1.2900000000000D+00 -7.0738128366151D-03 -7.8242501964267D-02
131  1.3000000000000D+00 -5.6849799818189D-03 -6.6521666564005D-02
132  1.3100000000000D+00 -4.4786340082053D-03 -5.5248711058905D-02
133  1.3200000000000D+00 -3.4432289430471D-03 -4.4626801966564D-02
134  1.3300000000000D+00 -2.5671135252149D-03 -3.4838962186973D-02
135  1.3400000000000D+00 -1.8387672793550D-03 -2.6045951726809D-02
136  1.3500000000000D+00 -1.2470096782865D-03 -1.8384470467961D-02
137  1.3600000000000D+00 -7.8139702194005D-04 -1.1969716829554D-02
138  1.3700000000000D+00 -4.3091687561901D-04 -6.8669801632857D-03
139  1.3800000000000D+00 -1.8697503763446D-04 -3.1449096692088D-03
140  1.3900000000000D+00 -4.6376961460480D-05 -9.3664626542029D-04
141  1.4000000000000D+00  8.6261484832039D-06 -3.3482401008262D-05
142  1.4100000000000D+00  1.0630317023406D-05  9.5155815820137D-05
143  1.4200000000000D+00 -1.3417475463563D-06 -1.3598553480185D-05
144  1.4300000000000D+00 -2.1608423892624D-06 -2.3261401092604D-05
145  1.4400000000000D+00  5.0896066828456D-07  4.8397371484633D-06
146  1.4500000000000D+00  2.3078081710138D-07  2.2546811622946D-06
147  1.4600000000000D+00 -3.1308812905073D-08 -3.8902565715800D-08
148  1.4700000000000D+00  0.0000000000000D+00  0.0000000000000D+00
149  1.4800000000000D+00  0.0000000000000D+00  0.0000000000000D+00
150  1.4900000000000D+00  0.0000000000000D+00  0.0000000000000D+00
151  1.5000000000000D+00  0.0000000000000D+00  0.0000000000000D+00
152  1.5100000000000D+00  0.0000000000000D+00  0.0000000000000D+00
153  1.5200000000000D+00  0.0000000000000D+00  0.0000000000000D+00
154  1.5300000000000D+00  0.0000000000000D+00  0.0000000000000D+00
155  1.5400000000000D+00  0.0000000000000D+00  0.0000000000000D+00
156  1.5500000000000D+00  0.0000000000000D+00  0.0000000000000D+00
157  1.5600000000000D+00  0.0000000000000D+00  0.0000000000000D+00
158  1.5700000000000D+00  0.0000000000000D+00  0.0000000000000D+00
159  1.5800000000000D+00  0.0000000000000D+00  0.0000000000000D+00
160  1.5900000000000D+00  0.0000000000000D+00  0.0000000000000D+00
161  1.6000000000000D+00  0.0000000000000D+00  0.0000000000000D+00
162  1.6100000000000D+00  0.0000000000000D+00  0.0000000000000D+00
163  1.6200000000000D+00  0.0000000000000D+00  0.0000000000000D+00
164  1.6300000000000D+00  0.0000000000000D+00  0.0000000000000D+00
165  1.6400000000000D+00  0.0000000000000D+00  0.0000000000000D+00
166  1.6500000000000D+00  0.0000000000000D+00  0.0000000000000D+00
167  1.6600000000000D+00  0.0000000000000D+00  0.0000000000000D+00
168  1.6700000000000D+00  0.0000000000000D+00  0.0000000000000D+00
169  1.6800000000000D+00  0.0000000000000D+00  0.0000000000000D+00
170  1.6900000000000D+00  0.0000000000000D+00  0.0000000000000D+00
171  1.7000000000000D+00  0.0000000000000D+00  0.0000000000000D+00
172  1.7100000000000D+00  0.0000000000000D+00  0.0000000000000D+00
173  1.7200000000000D+00  0.0000000000000D+00  0.0000000000000D+00
174  1.7300000000000D+00  0.0000000000000D+00  0.0000000000000D+00
175  1.7400000000000D+00  0.0000000000000D+00  0.0000000000000D+00
176  1.7500000000000D+00  0.0000000000000D+00  0.0000000000000D+00
177  1.7600000000000D+00  0.0000000000000D+00  0.0000000000000D+00
178  1.7700000000000D+00  0.0000000000000D+00  0.0000000000000D+00
179  1.7800000000000D+00  0.0000000000000D+00  0.0000000000000D+00
180  1.7900000000000D+00  0.0000000000000D+00  0.0000000000000D+00
181  1.8000000000000D+00  0.0000000000000D+00  0.0000000000000D+00
182  1.8100000000000D+00  0.0000000000000D+00  0.0000000000000D+00
183  1.8200000000000D+00  0.0000000000000D+00  0.0000000000000D+00
184  1.8300000000000D+00  0.0000000000000D+00  0.0000000000000D+00
185  1.8400000000000D+00  0.0000000000000D+00  0.0000000000000D+00
186  1.8500000000000D+00  0.0000000000000D+00  0.0000000000000D+00
187  1.8600000000000D+00  0.0000000000000D+00  0.0000000000000D+00
188  1.8700000000000D+00  0.0000000000000D+00  0.0000000000000D+00
189  1.8800000000000D+00  0.0000000000000D+00  0.0000000000000D+00
190  1.8900000000000D+00  0.0000000000000D+00  0.0000000000000D+00
191  1.9000000000000D+00  0.0000000000000D+00  0.0000000000000D+00
192  1.9100000000000D+00  0.0000000000000D+00  0.0000000000000D+00
193  1.9200000000000D+00  0.0000000000000D+00  0.0000000000000D+00
194  1.9300000000000D+00  0.0000000000000D+00  0.0000000000000D+00
195  1.9400000000000D+00  0.0000000000000D+00  0.0000000000000D+00
196  1.9500000000000D+00  0.0000000000000D+00  0.0000000000000D+00
197  1.9600000000000D+00  0.0000000000000D+00  0.0000000000000D+00
198  1.9700000000000D+00  0.0000000000000D+00  0.0000000000000D+00
199  1.9800000000000D+00  0.0000000000000D+00  0.0000000000000D+00
200  1.9900000000000D+00  0.0000000000000D+00  0.0000000000000D+00
201  2.0000000000000D+00  0.0000000000000D+00  0.0000000000000D+00
202  2.0100000000000D+00  0.0000000000000D+00  0.0000000000000D+00
203  2.0200000000000D+00  0.0000000000000D+00  0.0000000000000D+00
204  2.0300000000000D+00  0.0000000000000D+00  0.0000000000000D+00
205  2.0400000000000D+00  0.0000000000000D+00  0.0000000000000D+00
206  2.0500000000000D+00  0.0000000000000D+00  0.0000000000000D+00
207  2.0600000000000D+00  0.0000000000000D+00  0.0000000000000D+00
208  2.0700000000000D+00  0.0000000000000D+00  0.0000000000000D+00
209  2.0800000000000D+00  0.0000000000000D+00  0.0000000000000D+00
210  2.0900000000000D+00  0.0000000000000D+00  0.0000000000000D+00
211  2.1000000000000D+00  0.0000000000000D+00  0.0000000000000D+00
212  2.1100000000000D+00  0.0000000000000D+00  0.0000000000000D+00
213  2.1200000000000D+00  0.0000000000000D+00  0.0000000000000D+00
214  2.1300000000000D+00  0.0000000000000D+00  0.0000000000000D+00
215  2.1400000000000D+00  0.0000000000000D+00  0.0000000000000D+00
216  2.1500000000000D+00  0.0000000000000D+00  0.0000000000000D+00
217  2.1600000000000D+00  0.0000000000000D+00  0.0000000000000D+00
218  2.1700000000000D+00  0.0000000000000D+00  0.0000000000000D+00
219  2.1800000000000D+00  0.0000000000000D+00  0.0000000000000D+00
220  2.1900000000000D+00  0.0000000000000D+00  0.0000000000000D+00
221  2.2000000000000D+00  0.0000000000000D+00  0.0000000000000D+00
222  2.2100000000000D+00  0.0000000000000D+00  0.0000000000000D+00
223  2.2200000000000D+00  0.0000000000000D+00  0.0000000000000D+00
224  2.2300000000000D+00  0.0000000000000D+00  0.0000000000000D+00
225  2.2400000000000D+00  0.0000000000000D+00  0.0000000000000D+00
226  2.2500000000000D+00  0.0000000000000D+00  0.0000000000000D+00
227  2.2600000000000D+00  0.0000000000000D+00  0.0000000000000D+00
228  2.2700000000000D+00  0.0000000000000D+00  0.0000000000000D+00
229  2.2800000000000D+00  0.0000000000000D+00  0.0000000000000D+00
230  2.2900000000000D+00  0.0000000000000D+00  0.0000000000000D+00
231  2.3000000000000D+00  0.0000000000000D+00  0.0000000000000D+00
232  2.3100000000000D+00  0.0000000000000D+00  0.0000000000000D+00
233  2.3200000000000D+00  0.0000000000000D+00  0.0000000000000D+00
234  2.3300000000000D+00  0.0000000000000D+00  0.0000000000000D+00
235  2.3400000000000D+00  0.0000000000000D+00  0.0000000000000D+00
236  2.3500000000000D+00  0.0000000000000D+00  0.0000000000000D+00
237  2.3600000000000D+00  0.0000000000000D+00  0.0000000000000D+00
238  2.3700000000000D+00  0.0000000000000D+00  0.0000000000000D+00
239  2.3800000000000D+00  0.0000000000000D+00  0.0000000000000D+00
240  2.3900000000000D+00  0.0000000000000D+00  0.0000000000000D+00
241  2.4000000000000D+00  0.0000000000000D+00  0.0000000000000D+00
242  2.4100000000000D+00  0.0000000000000D+00  0.0000000000000D+00
243  2.4200000000000D+00  0.0000000000000D+00  0.0000000000000D+00
244  2.4300000000000D+00  0.0000000000000D+00  0.0000000000000D+00
245  2.4400000000000D+00  0.0000000000000D+00  0.0000000000000D+00
246  2.4500000000000D+00  0.0000000000000D+00  0.0000000000000D+00
247  2.4600000000000D+00  0.0000000000000D+00  0.0000000000000D+00
248  2.4700000000000D+00  0.0000000000000D+00  0.0000000000000D+00
249  2.4800000000000D+00  0.0000000000000D+00  0.0000000000000D+00
250  2.4900000000000D+00  0.0000000000000D+00  0.0000000000000D+00
251  2.5000000000000D+00  0.0000000000000D+00  0.0000000000000D+00
252  2.5100000000000D+00  0.0000000000000D+00  0.0000000000000D+00
253  2.5200000000000D+00  0.0000000000000D+00  0.0000000000000D+00
254  2.5300000000000D+00  0.0000000000000D+00  0.0000000000000D+00
255  2.5400000000000D+00  0.0000000000000D+00  0.0000000000000D+00
256  2.5500000000000D+00  0.0000000000000D+00  0.0000000000000D+00
257  2.5600000000000D+00  0.0000000000000D+00  0.0000000000000D+00
258  2.5700000000000D+00  0.0000000000000D+00  0.0000000000000D+00
259  2.5800000000000D+00  0.0000000000000D+00  0.0000000000000D+00
260  2.5900000000000D+00  0.0000000000000D+00  0.0000000000000D+00
261  2.6000000000000D+00  0.0000000000000D+00  0.0000000000000D+00
262  2.6100000000000D+00  0.0000000000000D+00  0.0000000000000D+00
263  2.6200000000000D+00  0.0000000000000D+00  0.0000000000000D+00
264  2.6300000000000D+00  0.0000000000000D+00  0.0000000000000D+00
265  2.6400000000000D+00  0.0000000000000D+00  0.0000000000000D+00
266  2.6500000000000D+00  0.0000000000000D+00  0.0000000000000D+00
267  2.6600000000000D+00  0.0000000000000D+00  0.0000000000000D+00
268  2.6700000000000D+00  0.0000000000000D+00  0.0000000000000D+00
269  2.6800000000000D+00  0.0000000000000D+00  0.0000000000000D+00
270  2.6900000000000D+00  0.0000000000000D+00  0.0000000000000D+00
271  2.7000000000000D+00  0.0000000000000D+00  0.0000000000000D+00
272  2.7100000000000D+00  0.0000000000000D+00  0.0000000000000D+00
273  2.7200000000000D+00  0.0000000000000D+00  0.0000000000000D+00
274  2.7300000000000D+00  0.0000000000000D+00  0.0000000000000D+00
275  2.7400000000000D+00  0.0000000000000D+00  0.0000000000000D+00
276  2.7500000000000D+00  0.0000000000000D+00  0.0000000000000D+00
277  2.7600000000000D+00  0.0000000000000D+00  0.0000000000000D+00
278  2.7700000000000D+00  0.0000000000000D+00  0.0000000000000D+00
279  2.7800000000000D+00  0.0000000000000D+00  0.0000000000000D+00
280  2.7900000000000D+00  0.0000000000000D+00  0.0000000000000D+00
281  2.8000000000000D+00  0.0000000000000D+00  0.0000000000000D+00
282  2.8100000000000D+00  0.0000000000000D+00  0.0000000000000D+00
283  2.8200000000000D+00  0.0000000000000D+00  0.0000000000000D+00
284  2.8300000000000D+00  0.0000000000000D+00  0.0000000000000D+00
285  2.8400000000000D+00  0.0000000000000D+00  0.0000000000000D+00
286  2.8500000000000D+00  0.0000000000000D+00  0.0000000000000D+00
287  2.8600000000000D+00  0.0000000000000D+00  0.0000000000000D+00
288  2.8700000000000D+00  0.0000000000000D+00  0.0000000000000D+00
289  2.8800000000000D+00  0.0000000000000D+00  0.0000000000000D+00
290  2.8900000000000D+00  0.0000000000000D+00  0.0000000000000D+00
291  2.9000000000000D+00  0.0000000000000D+00  0.0000000000000D+00
292  2.9100000000000D+00  0.0000000000000D+00  0.0000000000000D+00
293  2.9200000000000D+00  0.0000000000000D+00  0.0000000000000D+00
294  2.9300000000000D+00  0.0000000000000D+00  0.0000000000000D+00
295  2.9400000000000D+00  0.0000000000000D+00  0.0000000000000D+00
296  2.9500000000000D+00  0.0000000000000D+00  0.0000000000000D+00
297  2.9600000000000D+00  0.0000000000000D+00  0.0000000000000D+00
298  2.9700000000000D+00  0.0000000000000D+00  0.0000000000000D+00
299  2.9800000000000D+00  0.0000000000000D+00  0.0000000000000D+00
300  2.9900000000000D+00  0.0000000000000D+00  0.0000000000000D+00
301  3.0000000000000D+00  0.0000000000000D+00  0.0000000000000D+00
302  3.0100000000000D+00  0.0000000000000D+00  0.0000000000000D+00
303  3.0200000000000D+00  0.0000000000000D+00  0.0000000000000D+00
304  3.0300000000000D+00  0.0000000000000D+00  0.0000000000000D+00
305  3.0400000000000D+00  0.0000000000000D+00  0.0000000000000D+00
306  3.0500000000000D+00  0.0000000000000D+00  0.0000000000000D+00
307  3.0600000000000D+00  0.0000000000000D+00  0.0000000000000D+00
308  3.0700000000000D+00  0.0000000000000D+00  0.0000000000000D+00
309  3.0800000000000D+00  0.0000000000000D+00  0.0000000000000D+00
310  3.0900000000000D+00  0.0000000000000D+00  0.0000000000000D+00
311  3.1000000000000D+00  0.0000000000000D+00  0.0000000000000D+00
312  3.1100000000000D+00  0.0000000000000D+00  0.0000000000000D+00
313  3.1200000000000D+00  0.0000000000000D+00  0.0000000000000D+00
314  3.1300000000000D+00  0.0000000000000D+00  0.0000000000000D+00
315  3.1400000000000D+00  0.0000000000000D+00  0.0000000000000D+00
316  3.1500000000000D+00  0.0000000000000D+00  0.0000000000000D+00
317  3.1600000000000D+00  0.0000000000000D+00  0.0000000000000D+00
318  3.1700000000000D+00  0.0000000000000D+00  0.0000000000000D+00
319  3.1800000000000D+00  0.0000000000000D+00  0.0000000000000D+00
320  3.1900000000000D+00  0.0000000000000D+00  0.0000000000000D+00
321  3.2000000000000D+00  0.0000000000000D+00  0.0000000000000D+00
322  3.2100000000000D+00  0.0000000000000D+00  0.0000000000000D+00
323  3.2200000000000D+00  0.0000000000000D+00  0.0000000000000D+00
324  3.2300000000000D+00  0.0000000000000D+00  0.0000000000000D+00
325  3.2400000000000D+00  0.0000000000000D+00  0.0000000000000D+00
326  3.2500000000000D+00  0.0000000000000D+00  0.0000000000000D+00
327  3.2600000000000D+00  0.0000000000000D+00  0.0000000000000D+00
328  3.2700000000000D+00  0.0000000000000D+00  0.0000000000000D+00
329  3.2800000000000D+00  0.0000000000000D+00  0.0000000000000D+00
330  3.2900000000000D+00  0.0000000000000D+00  0.0000000000000D+00
331  3.3000000000000D+00  0.0000000000000D+00  0.0000000000000D+00
332  3.3100000000000D+00  0.0000000000000D+00  0.0000000000000D+00
333  3.3200000000000D+00  0.0000000000000D+00  0.0000000000000D+00
334  3.3300000000000D+00  0.0000000000000D+00  0.0000000000000D+00
335  3.3400000000000D+00  0.0000000000000D+00  0.0000000000000D+00
336  3.3500000000000D+00  0.0000000000000D+00  0.0000000000000D+00
337  3.3600000000000D+00  0.0000000000000D+00  0.0000000000000D+00
338  3.3700000000000D+00  0.0000000000000D+00  0.0000000000000D+00
339  3.3800000000000D+00  0.0000000000000D+00  0.0000000000000D+00
340  3.3900000000000D+00  0.0000000000000D+00  0.0000000000000D+00
341  3.4000000000000D+00  0.0000000000000D+00  0.0000000000000D+00
342  3.4100000000000D+00  0.0000000000000D+00  0.0000000000000D+00
343  3.4200000000000D+00  0.0000000000000D+00  0.0000000000000D+00
344  3.4300000000000D+00  0.0000000000000D+00  0.0000000000000D+00
345  3.4400000000000D+00  0.0000000000000D+00  0.0000000000000D+00
346  3.4500000000000D+00  0.0000000000000D+00  0.0000000000000D+00
347  3.4600000000000D+00  0.0000000000000D+00  0.0000000000000D+00
348  3.4700000000000D+00  0.0000000000000D+00  0.0000000000000D+00
349  3.4800000000000D+00  0.0000000000000D+00  0.0000000000000D+00
350  3.4900000000000D+00  0.0000000000000D+00  0.0000000000000D+00
351  3.5000000000000D+00  0.0000000000000D+00  0.0000000000000D+00
352  3.5100000000000D+00  0.0000000000000D+00  0.0000000000000D+00
353  3.5200000000000D+00  0.0000000000000D+00  0.0000000000000D+00
354  3.5300000000000D+00  0.0000000000000D+00  0.0000000000000D+00
355  3.5400000000000D+00  0.0000000000000D+00  0.0000000000000D+00
356  3.5500000000000D+00  0.0000000000000D+00  0.0000000000000D+00
357  3.5600000000000D+00  0.0000000000000D+00  0.0000000000000D+00
358  3.5700000000000D+00  0.0000000000000D+00  0.0000000000000D+00
359  3.5800000000000D+00  0.0000000000000D+00  0.0000000000000D+00
360  3.5900000000000D+00  0.0000000000000D+00  0.0000000000000D+00
361  3.6000000000000D+00  0.0000000000000D+00  0.0000000000000D+00
362  3.6100000000000D+00  0.0000000000000D+00  0.0000000000000D+00
363  3.6200000000000D+00  0.0000000000000D+00  0.0000000000000D+00
364  3.6300000000000D+00  0.0000000000000D+00  0.0000000000000D+00
365  3.6400000000000D+00  0.0000000000000D+00  0.0000000000000D+00
366  3.6500000000000D+00  0.0000000000000D+00  0.0000000000000D+00
367  3.6600000000000D+00  0.0000000000000D+00  0.0000000000000D+00
368  3.6700000000000D+00  0.0000000000000D+00  0.0000000000000D+00
369  3.6800000000000D+00  0.0000000000000D+00  0.0000000000000D+00
370  3.6900000000000D+00  0.0000000000000D+00  0.0000000000000D+00
371  3.7000000000000D+00  0.0000000000000D+00  0.0000000000000D+00
372  3.7100000000000D+00  0.0000000000000D+00  0.0000000000000D+00
373  3.7200000000000D+00  0.0000000000000D+00  0.0000000000000D+00
374  3.7300000000000D+00  0.0000000000000D+00  0.0000000000000D+00
375  3.7400000000000D+00  0.0000000000000D+00  0.0000000000000D+00
376  3.7500000000000D+00  0.0000000000000D+00  0.0000000000000D+00
377  3.7600000000000D+00  0.0000000000000D+00  0.0000000000000D+00
378  3.7700000000000D+00  0.0000000000000D+00  0.0000000000000D+00
379  3.7800000000000D+00  0.0000000000000D+00  0.0000000000000D+00
380  3.7900000000000D+00  0.0000000000000D+00  0.0000000000000D+00
381  3.8000000000000D+00  0.0000000000000D+00  0.0000000000000D+00
382  3.8100000000000D+00  0.0000000000000D+00  0.0000000000000D+00
383  3.8200000000000D+00  0.0000000000000D+00  0.0000000000000D+00
384  3.8300000000000D+00  0.0000000000000D+00  0.0000000000000D+00
385  3.8400000000000D+00  0.0000000000000D+00  0.0000000000000D+00
386  3.8500000000000D+00  0.0000000000000D+00  0.0000000000000D+00
387  3.8600000000000D+00  0.0000000000000D+00  0.0000000000000D+00
388  3.8700000000000D+00  0.0000000000000D+00  0.0000000000000D+00
389  3.8800000000000D+00  0.0000000000000D+00  0.0000000000000D+00
390  3.8900000000000D+00  0.0000000000000D+00  0.0000000000000D+00
391  3.9000000000000D+00  0.0000000000000D+00  0.0000000000000D+00
392  3.9100000000000D+00  0.0000000000000D+00  0.0000000000000D+00
393  3.9200000000000D+00  0.0000000000000D+00  0.0000000000000D+00
394  3.9300000000000D+00  0.0000000000000D+00  0.0000000000000D+00
395  3.9400000000000D+00  0.0000000000000D+00  0.0000000000000D+00
396  3.9500000000000D+00  0.0000000000000D+00  0.0000000000000D+00
397  3.9600000000000D+00  0.0000000000000D+00  0.0000000000000D+00
398  3.9700000000000D+00  0.0000000000000D+00  0.0000000000000D+00
399  3.9800000000000D+00  0.0000000000000D+00  0.0000000000000D+00
400  3.9900000000000D+00  0.0000000000000D+00  0.0000000000000D+00
401  4.0000000000000D+00  0.0000000000000D+00  0.0000000000000D+00
402  4.0100000000000D+00  0.0000000000000D+00  0.0000000000000D+00
403  4.0200000000000D+00  0.0000000000000D+00  0.0000000000000D+00
404  4.0300000000000D+00  0.0000000000000D+00  0.0000000000000D+00
405  4.0400000000000D+00  0.0000000000000D+00  0.0000000000000D+00
406  4.0500000000000D+00  0.0000000000000D+00  0.0000000000000D+00
407  4.0600000000000D+00  0.0000000000000D+00  0.0000000000000D+00
408  4.0700000000000D+00  0.0000000000000D+00  0.0000000000000D+00
409  4.0800000000000D+00  0.0000000000000D+00  0.0000000000000D+00
410  4.0900000000000D+00  0.0000000000000D+00  0.0000000000000D+00
411  4.1000000000000D+00  0.0000000000000D+00  0.0000000000000D+00
412  4.1100000000000D+00  0.0000000000000D+00  0.0000000000000D+00
413  4.1200000000000D+00  0.0000000000000D+00  0.0000000000000D+00
414  4.1300000000000D+00  0.0000000000000D+00  0.0000000000000D+00
415  4.1400000000000D+00  0.0000000000000D+00  0.0000000000000D+00
416  4.1500000000000D+00  0.0000000000000D+00  0.0000000000000D+00
417  4.1600000000000D+00  0.0000000000000D+00  0.0000000000000D+00
418  4.1700000000000D+00  0.0000000000000D+00  0.0000000000000D+00
419  4.1800000000000D+00  0.0000000000000D+00  0.0000000000000D+00
420  4.1900000000000D+00  0.0000000000000D+00  0.0000000000000D+00
421  4.2000000000000D+00  0.0000000000000D+00  0.0000000000000D+00
422  4.2100000000000D+00  0.0000000000000D+00  0.0000000000000D+00
423  4.2200000000000D+00  0.0000000000000D+00  0.0000000000000D+00
424  4.2300000000000D+00  0.0000000000000D+00  0.0000000000000D+00
425  4.2400000000000D+00  0.0000000000000D+00  0.0000000000000D+00
426  4.2500000000000D+00  0.0000000000000D+00  0.0000000000000D+00
427  4.2600000000000D+00  0.0000000000000D+00  0.0000000000000D+00
428  4.2700000000000D+00  0.0000000000000D+00  0.0000000000000D+00
429  4.2800000000000D+00  0.0000000000000D+00  0.0000000000000D+00
430  4.2900000000000D+00  0.0000000000000D+00  0.0000000000000D+00
431  4.3000000000000D+00  0.0000000000000D+00  0.0000000000000D+00
432  4.3100000000000D+00  0.0000000000000D+00  0.0000000000000D+00
433  4.3200000000000D+00  0.0000000000000D+00  0.0000000000000D+00
434  4.3300000000000D+00  0.0000000000000D+00  0.0000000000000D+00
435  4.3400000000000D+00  0.0000000000000D+00  0.0000000000000D+00
436  4.3500000000000D+00  0.0000000000000D+00  0.0000000000000D+00
437  4.3600000000000D+00  0.0000000000000D+00  0.0000000000000D+00
438  4.3700000000000D+00  0.0000000000000D+00  0.0000000000000D+00
439  4.3800000000000D+00  0.0000000000000D+00  0.0000000000000D+00
440  4.3900000000000D+00  0.0000000000000D+00  0.0000000000000D+00
441  4.4000000000000D+00  0.0000000000000D+00  0.0000000000000D+00
442  4.4100000000000D+00  0.0000000000000D+00  0.0000000000000D+00
443  4.4200000000000D+00  0.0000000000000D+00  0.0000000000000D+00