Au    ONCVPSP-3.2.3  r_core=   1.45604   1.56407   1.56407   1.60183
79.0000     19.0000      170213    zatom,zion,pspd
8      11   3     4   500     0    pspcod,pspxc,lmax,lloc,mmax,r2well
4.99000000  5.00000000  0.00000000    rchrg fchrg qchrg
2     4     4     2    nproj
3     1           extension_switch
4     4     2    nprojso
0                        -1.9501972830308D-01  9.4761840142171D+00
1  0.0000000000000D+00 -5.2729097199666D-09 -5.0753268254766D-10
2  1.0000000000000D-02  4.7814964129598D-02  8.0830643905220D-02
3  2.0000000000000D-02  9.5160638752535D-02  1.6144139141192D-01
4  3.0000000000000D-02  1.4157398156524D-01  2.4161337577853D-01
5  4.0000000000000D-02  1.8660433374220D-01  3.2112978241143D-01
6  5.0000000000000D-02  2.2981935484153D-01  3.9977685542494D-01
7  6.0000000000000D-02  2.7081067301871D-01  4.7734487941149D-01
8  7.0000000000000D-02  3.0919917135425D-01  5.5362912797136D-01
9  8.0000000000000D-02  3.4463983637386D-01  6.2843077105899D-01
10  9.0000000000000D-02  3.7682610124711D-01  7.0155773379469D-01
11  1.0000000000000D-01  4.0549362358855D-01  7.7282550005872D-01
12  1.1000000000000D-01  4.3042344613397D-01  8.4205785491911D-01
13  1.2000000000000D-01  4.5144449769232D-01  9.0908756073508D-01
14  1.3000000000000D-01  4.6843540153732D-01  9.7375696261377D-01
15  1.4000000000000D-01  4.8132556865038D-01  1.0359185197675D+00
16  1.5000000000000D-01  4.9009556380036D-01  1.0954352602112D+00
17  1.6000000000000D-01  4.9477674318386D-01  1.1521811571411D+00
18  1.7000000000000D-01  4.9545017308832D-01  1.2060414262388D+00
19  1.8000000000000D-01  4.9224484961847D-01  1.2569127440310D+00
20  1.9000000000000D-01  4.8533524978326D-01  1.3047033883010D+00
21  2.0000000000000D-01  4.7493825402479D-01  1.3493333023768D+00
22  2.1000000000000D-01  4.6130948943513D-01  1.3907340859064D+00
23  2.2000000000000D-01  4.4473915131831D-01  1.4288489154578D+00
24  2.3000000000000D-01  4.2554736828783D-01  1.4636323989518D+00
25  2.4000000000000D-01  4.0407918263676D-01  1.4950503685312D+00
26  2.5000000000000D-01  3.8069922318235D-01  1.5230796169874D+00
27  2.6000000000000D-01  3.5578615209233D-01  1.5477075833064D+00
28  2.7000000000000D-01  3.2972697028471D-01  1.5689319932447D+00
29  2.8000000000000D-01  3.0291126781570D-01  1.5867604611063D+00
30  2.9000000000000D-01  2.7572550620521D-01  1.6012100590646D+00
31  3.0000000000000D-01  2.4854741889411D-01  1.6123068604499D+00
32  3.1000000000000D-01  2.2174061399397D-01  1.6200854634123D+00
33  3.2000000000000D-01  1.9564946021110D-01  1.6245885012676D+00
34  3.3000000000000D-01  1.7059433235494D-01  1.6258661456518D+00
35  3.4000000000000D-01  1.4686728723948D-01  1.6239756083383D+00
36  3.5000000000000D-01  1.2472823414420D-01  1.6189806472353D+00
37  3.6000000000000D-01  1.0440165641133D-01  1.6109510816648D+00
38  3.7000000000000D-01  8.6073932335845D-02  1.5999623215562D+00
39  3.8000000000000D-01  6.9891294371145D-02  1.5860949146598D+00
40  3.9000000000000D-01  5.5958455966371D-02  1.5694341153137D+00
41  4.0000000000000D-01  4.4337925206543D-02  1.5500694776927D+00
42  4.1000000000000D-01  3.5050013995300D-02  1.5280944758331D+00
43  4.2000000000000D-01  2.8073540950515D-02  1.5036061520814D+00
44  4.3000000000000D-01  2.3347215630985D-02  1.4767047949566D+00
45  4.4000000000000D-01  2.0771681327110D-02  1.4474936467658D+00
46  4.5000000000000D-01  2.0212183584212D-02  1.4160786406773D+00
47  4.6000000000000D-01  2.1501822025700D-02  1.3825681663364D+00
48  4.7000000000000D-01  2.4445334046454D-02  1.3470728625304D+00
49  4.8000000000000D-01  2.8823350685189D-02  1.3097054348662D+00
50  4.9000000000000D-01  3.4397057576862D-02  1.2705804959297D+00
51  5.0000000000000D-01  4.0913187444099D-02  1.2298144249606D+00
52  5.1000000000000D-01  4.8109265204536D-02  1.1875252437006D+00
53  5.2000000000000D-01  5.5719022527267D-02  1.1438325047623D+00
54  5.3000000000000D-01  6.3477895637341D-02  1.0988571886352D+00
55  5.4000000000000D-01  7.1128518385429D-02  1.0527216052783D+00
56  5.5000000000000D-01  7.8426122103660D-02  1.0055492961695D+00
57  5.6000000000000D-01  8.5143754576191D-02  9.5746493267290D-01
58  5.7000000000000D-01  9.1077232546194D-02  9.0859420666114D-01
59  5.8000000000000D-01  9.6049745564370D-02  8.5906370947722D-01
60  5.9000000000000D-01  9.9916033573112D-02  8.0900079554511D-01
61  6.0000000000000D-01  1.0256606641976D-01  7.5853342723542D-01
62  6.1000000000000D-01  1.0392816035433D-01  7.0778999795361D-01
63  6.2000000000000D-01  1.0397147446953D-01  6.5689913084262D-01
64  6.3000000000000D-01  1.0270783884773D-01  6.0598945097135D-01
65  6.4000000000000D-01  1.0019287573378D-01  5.5518932940511D-01
66  6.5000000000000D-01  9.6526385345152D-02  5.0462659812332D-01
67  6.6000000000000D-01  9.1851978665940D-02  4.5442823534563D-01
68  6.7000000000000D-01  8.6355950702498D-02  4.0472002144719D-01
69  6.8000000000000D-01  8.0265399063449D-02  3.5562616627845D-01
70  6.9000000000000D-01  7.3845604123902D-02  3.0726890933901D-01
71  7.0000000000000D-01  6.7396698320929D-02  2.5976809488329D-01
72  7.1000000000000D-01  6.1249663205486D-02  2.1324072464882D-01
73  7.2000000000000D-01  5.5761703480279D-02  1.6780049148315D-01
74  7.3000000000000D-01  5.1311057287662D-02  1.2355729769403D-01
75  7.4000000000000D-01  4.8291311339073D-02  8.0616762453233D-02
76  7.5000000000000D-01  4.7105297889295D-02  3.9079723033281D-02
77  7.6000000000000D-01  4.8158658036473D-02 -9.5826495169998D-04
78  7.7000000000000D-01  5.1853162129942D-02 -3.9407422810302D-02
79  7.8000000000000D-01  5.8579883176684D-02 -7.6184233805452D-02
80  7.9000000000000D-01  6.8712322929836D-02 -1.1121191204881D-01
81  8.0000000000000D-01  8.2599592754066D-02 -1.4442084927042D-01
82  8.1000000000000D-01  1.0055975234115D-01 -1.7574903348016D-01
83  8.2000000000000D-01  1.2287340885811D-01 -2.0514243362999D-01
84  8.3000000000000D-01  1.4977767714014D-01 -2.3255534456771D-01
85  8.4000000000000D-01  1.8146059809505D-01 -2.5795068684318D-01
86  8.5000000000000D-01  2.1805610759389D-01 -2.8130025628428D-01
87  8.6000000000000D-01  2.5963964183234D-01 -3.0258491869938D-01
88  8.7000000000000D-01  3.0622445752829D-01 -3.2179474558117D-01
89  8.8000000000000D-01  3.5775873645864D-01 -3.3892908727754D-01
90  8.9000000000000D-01  4.1412353384509D-01 -3.5399658075145D-01
91  9.0000000000000D-01  4.7513161909190D-01 -3.6701508976656D-01
92  9.1000000000000D-01  5.4052724550835D-01 -3.7801157609836D-01
93  9.2000000000000D-01  6.0998687306167D-01 -3.8702190117332D-01
94  9.3000000000000D-01  6.8312085507660D-01 -3.9409055836919D-01
95  9.4000000000000D-01  7.5947608630156D-01 -3.9927033705819D-01
96  9.5000000000000D-01  8.3853959608575D-01 -4.0262192032879D-01
97  9.6000000000000D-01  9.1974305674805D-01 -4.0421341916970D-01
98  9.7000000000000D-01  1.0024681637757D+00 -4.0411984672859D-01
99  9.8000000000000D-01  1.0860528313825D+00 -4.0242253706090D-01
100  9.9000000000000D-01  1.1697981345693D+00 -3.9920851353702D-01
101  1.0000000000000D+00  1.2529759172233D+00 -3.9456981277610D-01
102  1.0100000000000D+00  1.3348369748452D+00 -3.8860277062808D-01
103  1.0200000000000D+00  1.4146197111591D+00 -3.8140727727557D-01
104  1.0300000000000D+00  1.4915591594656D+00 -3.7308600901389D-01
105  1.0400000000000D+00  1.5648962527477D+00 -3.6374364465533D-01
106  1.0500000000000D+00  1.6338872212536D+00 -3.5348607478890D-01
107  1.0600000000000D+00  1.6978129926891D+00 -3.4241961230989D-01
108  1.0700000000000D+00  1.7559884680006D+00 -3.3065021271464D-01
109  1.0800000000000D+00  1.8077715458149D+00 -3.1828271260619D-01
110  1.0900000000000D+00  1.8525717701747D+00 -3.0542009470606D-01
111  1.1000000000000D+00  1.8898584800798D+00 -2.9216278737510D-01
112  1.1100000000000D+00  1.9191683435981D+00 -2.7860800633519D-01
113  1.1200000000000D+00  1.9401121676926D+00 -2.6484914570178D-01
114  1.1300000000000D+00  1.9523808825381D+00 -2.5097522491942D-01
115  1.1400000000000D+00  1.9557506113968D+00 -2.3707039736923D-01
116  1.1500000000000D+00  1.9500867447819D+00 -2.2321352590581D-01
117  1.1600000000000D+00  1.9353469556335D+00 -2.0947782939661D-01
118  1.1700000000000D+00  1.9115831034497D+00 -1.9593060360556D-01
119  1.1800000000000D+00  1.8789419926130D+00 -1.8263301863813D-01
120  1.1900000000000D+00  1.8376649615493D+00 -1.6963999442446D-01
121  1.2000000000000D+00  1.7880863022642D+00 -1.5700015424068D-01
122  1.2100000000000D+00  1.7306305241901D+00 -1.4475585534705D-01
123  1.2200000000000D+00  1.6658084888381D+00 -1.3294329501417D-01
124  1.2300000000000D+00  1.5942124644599D+00 -1.2159268875662D-01
125  1.2400000000000D+00  1.5165101655742D+00 -1.1072851659909D-01
126  1.2500000000000D+00  1.4334378538274D+00 -1.0036983246068D-01
127  1.2600000000000D+00  1.3457925933009D+00 -9.0530630685412D-02
128  1.2700000000000D+00  1.2544237717940D+00 -8.1220262582983D-02
129  1.2800000000000D+00  1.1602240047711D+00 -7.2443895518706D-02
130  1.2900000000000D+00  1.0641195521587D+00 -6.4203006237647D-02
131  1.3000000000000D+00  9.6706039221753D-01 -5.6495899227056D-02
132  1.3100000000000D+00  8.7001009576641D-01 -4.9318240981340D-02
133  1.3200000000000D+00  7.7393565604976D-01 -4.2663600278553D-02
134  1.3300000000000D+00  6.7979743085622D-01 -3.6523984500160D-02
135  1.3400000000000D+00  5.8853935272102D-01 -3.0890362072579D-02
136  1.3500000000000D+00  5.0107956865667D-01 -2.5753160762261D-02
137  1.3600000000000D+00  4.1830169260640D-01 -2.1102731204983D-02
138  1.3700000000000D+00  3.4104658948000D-01 -1.6929774073938D-02
139  1.3800000000000D+00  2.7010579719154D-01 -1.3225686823080D-02
140  1.3900000000000D+00  2.0621306301905D-01 -9.9829582049896D-03
141  1.4000000000000D+00  1.5004360822265D-01 -7.1952458247942D-03
142  1.4100000000000D+00  1.0223488994603D-01 -4.8587069232858D-03
143  1.4200000000000D+00  6.3243898298403D-02 -2.9678720412863D-03
144  1.4300000000000D+00  3.3306531236720D-02 -1.5169425608185D-03
145  1.4400000000000D+00  1.3423330442902D-02 -5.4056926449825D-04
146  1.4500000000000D+00  3.4975584308867D-03 -3.9809178964318D-05
147  1.4600000000000D+00  1.7213887136592D-04  9.1078483756072D-05
148  1.4700000000000D+00 -1.2927034058033D-04  2.9137791276997D-05
149  1.4800000000000D+00  1.1249272901604D-04 -1.8636183846014D-05
150  1.4900000000000D+00  2.3393203919277D-05 -3.3581868742390D-06
151  1.5000000000000D+00 -1.7208591413240D-05  3.7955649926956D-06
152  1.5100000000000D+00 -5.1622986929434D-07 -3.9885041217209D-08
153  1.5200000000000D+00 -2.5518672214617D-06 -1.9716280549201D-07
154  1.5300000000000D+00  0.0000000000000D+00  0.0000000000000D+00
155  1.5400000000000D+00  0.0000000000000D+00  0.0000000000000D+00
156  1.5500000000000D+00  0.0000000000000D+00  0.0000000000000D+00
157  1.5600000000000D+00  0.0000000000000D+00  0.0000000000000D+00
158  1.5700000000000D+00  0.0000000000000D+00  0.0000000000000D+00
159  1.5800000000000D+00  0.0000000000000D+00  0.0000000000000D+00
160  1.5900000000000D+00  0.0000000000000D+00  0.0000000000000D+00
161  1.6000000000000D+00  0.0000000000000D+00  0.0000000000000D+00
162  1.6100000000000D+00  0.0000000000000D+00  0.0000000000000D+00
163  1.6200000000000D+00  0.0000000000000D+00  0.0000000000000D+00
164  1.6300000000000D+00  0.0000000000000D+00  0.0000000000000D+00
165  1.6400000000000D+00  0.0000000000000D+00  0.0000000000000D+00
166  1.6500000000000D+00  0.0000000000000D+00  0.0000000000000D+00
167  1.6600000000000D+00  0.0000000000000D+00  0.0000000000000D+00
168  1.6700000000000D+00  0.0000000000000D+00  0.0000000000000D+00
169  1.6800000000000D+00  0.0000000000000D+00  0.0000000000000D+00
170  1.6900000000000D+00  0.0000000000000D+00  0.0000000000000D+00
171  1.7000000000000D+00  0.0000000000000D+00  0.0000000000000D+00
172  1.7100000000000D+00  0.0000000000000D+00  0.0000000000000D+00
173  1.7200000000000D+00  0.0000000000000D+00  0.0000000000000D+00
174  1.7300000000000D+00  0.0000000000000D+00  0.0000000000000D+00
175  1.7400000000000D+00  0.0000000000000D+00  0.0000000000000D+00
176  1.7500000000000D+00  0.0000000000000D+00  0.0000000000000D+00
177  1.7600000000000D+00  0.0000000000000D+00  0.0000000000000D+00
178  1.7700000000000D+00  0.0000000000000D+00  0.0000000000000D+00
179  1.7800000000000D+00  0.0000000000000D+00  0.0000000000000D+00
180  1.7900000000000D+00  0.0000000000000D+00  0.0000000000000D+00
181  1.8000000000000D+00  0.0000000000000D+00  0.0000000000000D+00
182  1.8100000000000D+00  0.0000000000000D+00  0.0000000000000D+00
183  1.8200000000000D+00  0.0000000000000D+00  0.0000000000000D+00
184  1.8300000000000D+00  0.0000000000000D+00  0.0000000000000D+00
185  1.8400000000000D+00  0.0000000000000D+00  0.0000000000000D+00
186  1.8500000000000D+00  0.0000000000000D+00  0.0000000000000D+00
187  1.8600000000000D+00  0.0000000000000D+00  0.0000000000000D+00
188  1.8700000000000D+00  0.0000000000000D+00  0.0000000000000D+00
189  1.8800000000000D+00  0.0000000000000D+00  0.0000000000000D+00
190  1.8900000000000D+00  0.0000000000000D+00  0.0000000000000D+00
191  1.9000000000000D+00  0.0000000000000D+00  0.0000000000000D+00
192  1.9100000000000D+00  0.0000000000000D+00  0.0000000000000D+00
193  1.9200000000000D+00  0.0000000000000D+00  0.0000000000000D+00
194  1.9300000000000D+00  0.0000000000000D+00  0.0000000000000D+00
195  1.9400000000000D+00  0.0000000000000D+00  0.0000000000000D+00
196  1.9500000000000D+00  0.0000000000000D+00  0.0000000000000D+00
197  1.9600000000000D+00  0.0000000000000D+00  0.0000000000000D+00
198  1.9700000000000D+00  0.0000000000000D+00  0.0000000000000D+00
199  1.9800000000000D+00  0.0000000000000D+00  0.0000000000000D+00
200  1.9900000000000D+00  0.0000000000000D+00  0.0000000000000D+00
201  2.0000000000000D+00  0.0000000000000D+00  0.0000000000000D+00
202  2.0100000000000D+00  0.0000000000000D+00  0.0000000000000D+00
203  2.0200000000000D+00  0.0000000000000D+00  0.0000000000000D+00
204  2.0300000000000D+00  0.0000000000000D+00  0.0000000000000D+00
205  2.0400000000000D+00  0.0000000000000D+00  0.0000000000000D+00
206  2.0500000000000D+00  0.0000000000000D+00  0.0000000000000D+00
207  2.0600000000000D+00  0.0000000000000D+00  0.0000000000000D+00
208  2.0700000000000D+00  0.0000000000000D+00  0.0000000000000D+00
209  2.0800000000000D+00  0.0000000000000D+00  0.0000000000000D+00
210  2.0900000000000D+00  0.0000000000000D+00  0.0000000000000D+00
211  2.1000000000000D+00  0.0000000000000D+00  0.0000000000000D+00
212  2.1100000000000D+00  0.0000000000000D+00  0.0000000000000D+00
213  2.1200000000000D+00  0.0000000000000D+00  0.0000000000000D+00
214  2.1300000000000D+00  0.0000000000000D+00  0.0000000000000D+00
215  2.1400000000000D+00  0.0000000000000D+00  0.0000000000000D+00
216  2.1500000000000D+00  0.0000000000000D+00  0.0000000000000D+00
217  2.1600000000000D+00  0.0000000000000D+00  0.0000000000000D+00
218  2.1700000000000D+00  0.0000000000000D+00  0.0000000000000D+00
219  2.1800000000000D+00  0.0000000000000D+00  0.0000000000000D+00
220  2.1900000000000D+00  0.0000000000000D+00  0.0000000000000D+00
221  2.2000000000000D+00  0.0000000000000D+00  0.0000000000000D+00
222  2.2100000000000D+00  0.0000000000000D+00  0.0000000000000D+00
223  2.2200000000000D+00  0.0000000000000D+00  0.0000000000000D+00
224  2.2300000000000D+00  0.0000000000000D+00  0.0000000000000D+00
225  2.2400000000000D+00  0.0000000000000D+00  0.0000000000000D+00
226  2.2500000000000D+00  0.0000000000000D+00  0.0000000000000D+00
227  2.2600000000000D+00  0.0000000000000D+00  0.0000000000000D+00
228  2.2700000000000D+00  0.0000000000000D+00  0.0000000000000D+00
229  2.2800000000000D+00  0.0000000000000D+00  0.0000000000000D+00
230  2.2900000000000D+00  0.0000000000000D+00  0.0000000000000D+00
231  2.3000000000000D+00  0.0000000000000D+00  0.0000000000000D+00
232  2.3100000000000D+00  0.0000000000000D+00  0.0000000000000D+00
233  2.3200000000000D+00  0.0000000000000D+00  0.0000000000000D+00
234  2.3300000000000D+00  0.0000000000000D+00  0.0000000000000D+00
235  2.3400000000000D+00  0.0000000000000D+00  0.0000000000000D+00
236  2.3500000000000D+00  0.0000000000000D+00  0.0000000000000D+00
237  2.3600000000000D+00  0.0000000000000D+00  0.0000000000000D+00
238  2.3700000000000D+00  0.0000000000000D+00  0.0000000000000D+00
239  2.3800000000000D+00  0.0000000000000D+00  0.0000000000000D+00
240  2.3900000000000D+00  0.0000000000000D+00  0.0000000000000D+00
241  2.4000000000000D+00  0.0000000000000D+00  0.0000000000000D+00
242  2.4100000000000D+00  0.0000000000000D+00  0.0000000000000D+00
243  2.4200000000000D+00  0.0000000000000D+00  0.0000000000000D+00
244  2.4300000000000D+00  0.0000000000000D+00  0.0000000000000D+00
245  2.4400000000000D+00  0.0000000000000D+00  0.0000000000000D+00
246  2.4500000000000D+00  0.0000000000000D+00  0.0000000000000D+00
247  2.4600000000000D+00  0.0000000000000D+00  0.0000000000000D+00
248  2.4700000000000D+00  0.0000000000000D+00  0.0000000000000D+00
249  2.4800000000000D+00  0.0000000000000D+00  0.0000000000000D+00
250  2.4900000000000D+00  0.0000000000000D+00  0.0000000000000D+00
251  2.5000000000000D+00  0.0000000000000D+00  0.0000000000000D+00
252  2.5100000000000D+00  0.0000000000000D+00  0.0000000000000D+00
253  2.5200000000000D+00  0.0000000000000D+00  0.0000000000000D+00
254  2.5300000000000D+00  0.0000000000000D+00  0.0000000000000D+00
255  2.5400000000000D+00  0.0000000000000D+00  0.0000000000000D+00
256  2.5500000000000D+00  0.0000000000000D+00  0.0000000000000D+00
257  2.5600000000000D+00  0.0000000000000D+00  0.0000000000000D+00
258  2.5700000000000D+00  0.0000000000000D+00  0.0000000000000D+00
259  2.5800000000000D+00  0.0000000000000D+00  0.0000000000000D+00
260  2.5900000000000D+00  0.0000000000000D+00  0.0000000000000D+00
261  2.6000000000000D+00  0.0000000000000D+00  0.0000000000000D+00
262  2.6100000000000D+00  0.0000000000000D+00  0.0000000000000D+00
263  2.6200000000000D+00  0.0000000000000D+00  0.0000000000000D+00
264  2.6300000000000D+00  0.0000000000000D+00  0.0000000000000D+00
265  2.6400000000000D+00  0.0000000000000D+00  0.0000000000000D+00
266  2.6500000000000D+00  0.0000000000000D+00  0.0000000000000D+00
267  2.6600000000000D+00  0.0000000000000D+00  0.0000000000000D+00
268  2.6700000000000D+00  0.0000000000000D+00  0.0000000000000D+00
269  2.6800000000000D+00  0.0000000000000D+00  0.0000000000000D+00
270  2.6900000000000D+00  0.0000000000000D+00  0.0000000000000D+00
271  2.7000000000000D+00  0.0000000000000D+00  0.0000000000000D+00
272  2.7100000000000D+00  0.0000000000000D+00  0.0000000000000D+00
273  2.7200000000000D+00  0.0000000000000D+00  0.0000000000000D+00
274  2.7300000000000D+00  0.0000000000000D+00  0.0000000000000D+00
275  2.7400000000000D+00  0.0000000000000D+00  0.0000000000000D+00
276  2.7500000000000D+00  0.0000000000000D+00  0.0000000000000D+00
277  2.7600000000000D+00  0.0000000000000D+00  0.0000000000000D+00
278  2.7700000000000D+00  0.0000000000000D+00  0.0000000000000D+00
279  2.7800000000000D+00  0.0000000000000D+00  0.0000000000000D+00
280  2.7900000000000D+00  0.0000000000000D+00  0.0000000000000D+00
281  2.8000000000000D+00  0.0000000000000D+00  0.0000000000000D+00
282  2.8100000000000D+00  0.0000000000000D+00  0.0000000000000D+00
283  2.8200000000000D+00  0.0000000000000D+00  0.0000000000000D+00
284  2.8300000000000D+00  0.0000000000000D+00  0.0000000000000D+00
285  2.8400000000000D+00  0.0000000000000D+00  0.0000000000000D+00
286  2.8500000000000D+00  0.0000000000000D+00  0.0000000000000D+00
287  2.8600000000000D+00  0.0000000000000D+00  0.0000000000000D+00
288  2.8700000000000D+00  0.0000000000000D+00  0.0000000000000D+00
289  2.8800000000000D+00  0.0000000000000D+00  0.0000000000000D+00
290  2.8900000000000D+00  0.0000000000000D+00  0.0000000000000D+00
291  2.9000000000000D+00  0.0000000000000D+00  0.0000000000000D+00
292  2.9100000000000D+00  0.0000000000000D+00  0.0000000000000D+00
293  2.9200000000000D+00  0.0000000000000D+00  0.0000000000000D+00
294  2.9300000000000D+00  0.0000000000000D+00  0.0000000000000D+00
295  2.9400000000000D+00  0.0000000000000D+00  0.0000000000000D+00
296  2.9500000000000D+00  0.0000000000000D+00  0.0000000000000D+00
297  2.9600000000000D+00  0.0000000000000D+00  0.0000000000000D+00
298  2.9700000000000D+00  0.0000000000000D+00  0.0000000000000D+00
299  2.9800000000000D+00  0.0000000000000D+00  0.0000000000000D+00
300  2.9900000000000D+00  0.0000000000000D+00  0.0000000000000D+00
301  3.0000000000000D+00  0.0000000000000D+00  0.0000000000000D+00
302  3.0100000000000D+00  0.0000000000000D+00  0.0000000000000D+00
303  3.0200000000000D+00  0.0000000000000D+00  0.0000000000000D+00
304  3.0300000000000D+00  0.0000000000000D+00  0.0000000000000D+00
305  3.0400000000000D+00  0.0000000000000D+00  0.0000000000000D+00
306  3.0500000000000D+00  0.0000000000000D+00  0.0000000000000D+00
307  3.0600000000000D+00  0.0000000000000D+00  0.0000000000000D+00
308  3.0700000000000D+00  0.0000000000000D+00  0.0000000000000D+00
309  3.0800000000000D+00  0.0000000000000D+00  0.0000000000000D+00
310  3.0900000000000D+00  0.0000000000000D+00  0.0000000000000D+00
311  3.1000000000000D+00  0.0000000000000D+00  0.0000000000000D+00
312  3.1100000000000D+00  0.0000000000000D+00  0.0000000000000D+00
313  3.1200000000000D+00  0.0000000000000D+00  0.0000000000000D+00
314  3.1300000000000D+00  0.0000000000000D+00  0.0000000000000D+00
315  3.1400000000000D+00  0.0000000000000D+00  0.0000000000000D+00
316  3.1500000000000D+00  0.0000000000000D+00  0.0000000000000D+00
317  3.1600000000000D+00  0.0000000000000D+00  0.0000000000000D+00
318  3.1700000000000D+00  0.0000000000000D+00  0.0000000000000D+00
319  3.1800000000000D+00  0.0000000000000D+00  0.0000000000000D+00
320  3.1900000000000D+00  0.0000000000000D+00  0.0000000000000D+00
321  3.2000000000000D+00  0.0000000000000D+00  0.0000000000000D+00
322  3.2100000000000D+00  0.0000000000000D+00  0.0000000000000D+00
323  3.2200000000000D+00  0.0000000000000D+00  0.0000000000000D+00
324  3.2300000000000D+00  0.0000000000000D+00  0.0000000000000D+00
325  3.2400000000000D+00  0.0000000000000D+00  0.0000000000000D+00
326  3.2500000000000D+00  0.0000000000000D+00  0.0000000000000D+00
327  3.2600000000000D+00  0.0000000000000D+00  0.0000000000000D+00
328  3.2700000000000D+00  0.0000000000000D+00  0.0000000000000D+00
329  3.2800000000000D+00  0.0000000000000D+00  0.0000000000000D+00
330  3.2900000000000D+00  0.0000000000000D+00  0.0000000000000D+00
331  3.3000000000000D+00  0.0000000000000D+00  0.0000000000000D+00
332  3.3100000000000D+00  0.0000000000000D+00  0.0000000000000D+00
333  3.3200000000000D+00  0.0000000000000D+00  0.0000000000000D+00
334  3.3300000000000D+00  0.0000000000000D+00  0.0000000000000D+00
335  3.3400000000000D+00  0.0000000000000D+00  0.0000000000000D+00
336  3.3500000000000D+00  0.0000000000000D+00  0.0000000000000D+00
337  3.3600000000000D+00  0.0000000000000D+00  0.0000000000000D+00
338  3.3700000000000D+00  0.0000000000000D+00  0.0000000000000D+00
339  3.3800000000000D+00  0.0000000000000D+00  0.0000000000000D+00
340  3.3900000000000D+00  0.0000000000000D+00  0.0000000000000D+00
341  3.4000000000000D+00  0.0000000000000D+00  0.0000000000000D+00
342  3.4100000000000D+00  0.0000000000000D+00  0.0000000000000D+00
343  3.4200000000000D+00  0.0000000000000D+00  0.0000000000000D+00
344  3.4300000000000D+00  0.0000000000000D+00  0.0000000000000D+00
345  3.4400000000000D+00  0.0000000000000D+00  0.0000000000000D+00
346  3.4500000000000D+00  0.0000000000000D+00  0.0000000000000D+00
347  3.4600000000000D+00  0.0000000000000D+00  0.0000000000000D+00
348  3.4700000000000D+00  0.0000000000000D+00  0.0000000000000D+00
349  3.4800000000000D+00  0.0000000000000D+00  0.0000000000000D+00
350  3.4900000000000D+00  0.0000000000000D+00  0.0000000000000D+00
351  3.5000000000000D+00  0.0000000000000D+00  0.0000000000000D+00
352  3.5100000000000D+00  0.0000000000000D+00  0.0000000000000D+00
353  3.5200000000000D+00  0.0000000000000D+00  0.0000000000000D+00
354  3.5300000000000D+00  0.0000000000000D+00  0.0000000000000D+00
355  3.5400000000000D+00  0.0000000000000D+00  0.0000000000000D+00
356  3.5500000000000D+00  0.0000000000000D+00  0.0000000000000D+00
357  3.5600000000000D+00  0.0000000000000D+00  0.0000000000000D+00
358  3.5700000000000D+00  0.0000000000000D+00  0.0000000000000D+00
359  3.5800000000000D+00  0.0000000000000D+00  0.0000000000000D+00
360  3.5900000000000D+00  0.0000000000000D+00  0.0000000000000D+00
361  3.6000000000000D+00  0.0000000000000D+00  0.0000000000000D+00
362  3.6100000000000D+00  0.0000000000000D+00  0.0000000000000D+00
363  3.6200000000000D+00  0.0000000000000D+00  0.0000000000000D+00
364  3.6300000000000D+00  0.0000000000000D+00  0.0000000000000D+00
365  3.6400000000000D+00  0.0000000000000D+00  0.0000000000000D+00
366  3.6500000000000D+00  0.0000000000000D+00  0.0000000000000D+00
367  3.6600000000000D+00  0.0000000000000D+00  0.0000000000000D+00
368  3.6700000000000D+00  0.0000000000000D+00  0.0000000000000D+00
369  3.6800000000000D+00  0.0000000000000D+00  0.0000000000000D+00
370  3.6900000000000D+00  0.0000000000000D+00  0.0000000000000D+00
371  3.7000000000000D+00  0.0000000000000D+00  0.0000000000000D+00
372  3.7100000000000D+00  0.0000000000000D+00  0.0000000000000D+00
373  3.7200000000000D+00  0.0000000000000D+00  0.0000000000000D+00
374  3.7300000000000D+00  0.0000000000000D+00  0.0000000000000D+00
375  3.7400000000000D+00  0.0000000000000D+00  0.0000000000000D+00
376  3.7500000000000D+00  0.0000000000000D+00  0.0000000000000D+00
377  3.7600000000000D+00  0.0000000000000D+00  0.0000000000000D+00
378  3.7700000000000D+00  0.0000000000000D+00  0.0000000000000D+00
379  3.7800000000000D+00  0.0000000000000D+00  0.0000000000000D+00
380  3.7900000000000D+00  0.0000000000000D+00  0.0000000000000D+00
381  3.8000000000000D+00  0.0000000000000D+00  0.0000000000000D+00
382  3.8100000000000D+00  0.0000000000000D+00  0.0000000000000D+00
383  3.8200000000000D+00  0.0000000000000D+00  0.0000000000000D+00
384  3.8300000000000D+00  0.0000000000000D+00  0.0000000000000D+00
385  3.8400000000000D+00  0.0000000000000D+00  0.0000000000000D+00
386  3.8500000000000D+00  0.0000000000000D+00  0.0000000000000D+00
387  3.8600000000000D+00  0.0000000000000D+00  0.0000000000000D+00
388  3.8700000000000D+00  0.0000000000000D+00  0.0000000000000D+00
389  3.8800000000000D+00  0.0000000000000D+00  0.0000000000000D+00
390  3.8900000000000D+00  0.0000000000000D+00  0.0000000000000D+00
391  3.9000000000000D+00  0.0000000000000D+00  0.0000000000000D+00
392  3.9100000000000D+00  0.0000000000000D+00  0.0000000000000D+00
393  3.9200000000000D+00  0.0000000000000D+00  0.0000000000000D+00
394  3.9300000000000D+00  0.0000000000000D+00  0.0000000000000D+00
395  3.9400000000000D+00  0.0000000000000D+00  0.0000000000000D+00
396  3.9500000000000D+00  0.0000000000000D+00  0.0000000000000D+00
397  3.9600000000000D+00  0.0000000000000D+00  0.0000000000000D+00
398  3.9700000000000D+00  0.0000000000000D+00  0.0000000000000D+00
399  3.9800000000000D+00  0.0000000000000D+00  0.0000000000000D+00
400  3.9900000000000D+00  0.0000000000000D+00  0.0000000000000D+00
401  4.0000000000000D+00  0.0000000000000D+00  0.0000000000000D+00
402  4.0100000000000D+00  0.0000000000000D+00  0.0000000000000D+00
403  4.0200000000000D+00  0.0000000000000D+00  0.0000000000000D+00
404  4.0300000000000D+00  0.0000000000000D+00  0.0000000000000D+00
405  4.0400000000000D+00  0.0000000000000D+00  0.0000000000000D+00
406  4.0500000000000D+00  0.0000000000000D+00  0.0000000000000D+00
407  4.0600000000000D+00  0.0000000000000D+00  0.0000000000000D+00
408  4.0700000000000D+00  0.0000000000000D+00  0.0000000000000D+00
409  4.0800000000000D+00  0.0000000000000D+00  0.0000000000000D+00
410  4.0900000000000D+00  0.0000000000000D+00  0.0000000000000D+00
411  4.1000000000000D+00  0.0000000000000D+00  0.0000000000000D+00
412  4.1100000000000D+00  0.0000000000000D+00  0.0000000000000D+00
413  4.1200000000000D+00  0.0000000000000D+00  0.0000000000000D+00
414  4.1300000000000D+00  0.0000000000000D+00  0.0000000000000D+00
415  4.1400000000000D+00  0.0000000000000D+00  0.0000000000000D+00
416  4.1500000000000D+00  0.0000000000000D+00  0.0000000000000D+00
417  4.1600000000000D+00  0.0000000000000D+00  0.0000000000000D+00
418  4.1700000000000D+00  0.0000000000000D+00  0.0000000000000D+00
419  4.1800000000000D+00  0.0000000000000D+00  0.0000000000000D+00
420  4.1900000000000D+00  0.0000000000000D+00  0.0000000000000D+00
421  4.2000000000000D+00  0.0000000000000D+00  0.0000000000000D+00
422  4.2100000000000D+00  0.0000000000000D+00  0.0000000000000D+00
423  4.2200000000000D+00  0.0000000000000D+00  0.0000000000000D+00
424  4.2300000000000D+00  0.0000000000000D+00  0.0000000000000D+00
425  4.2400000000000D+00  0.0000000000000D+00  0.0000000000000D+00
426  4.2500000000000D+00  0.0000000000000D+00  0.0000000000000D+00
427  4.2600000000000D+00  0.0000000000000D+00  0.0000000000000D+00
428  4.2700000000000D+00  0.0000000000000D+00  0.0000000000000D+00
429  4.2800000000000D+00  0.0000000000000D+00  0.0000000000000D+00
430  4.2900000000000D+00  0.0000000000000D+00  0.0000000000000D+00
431  4.3000000000000D+00  0.0000000000000D+00  0.0000000000000D+00
432  4.3100000000000D+00  0.0000000000000D+00  0.0000000000000D+00
433  4.3200000000000D+00  0.0000000000000D+00  0.0000000000000D+00
434  4.3300000000000D+00  0.0000000000000D+00  0.0000000000000D+00
435  4.3400000000000D+00  0.0000000000000D+00  0.0000000000000D+00
436  4.3500000000000D+00  0.0000000000000D+00  0.0000000000000D+00
437  4.3600000000000D+00  0.0000000000000D+00  0.0000000000000D+00
438  4.3700000000000D+00  0.0000000000000D+00  0.0000000000000D+00
439  4.3800000000000D+00  0.0000000000000D+00  0.0000000000000D+00
440  4.3900000000000D+00  0.0000000000000D+00  0.0000000000000D+00
441  4.4000000000000D+00  0.0000000000000D+00  0.0000000000000D+00
442  4.4100000000000D+00  0.0000000000000D+00  0.0000000000000D+00
443  4.4200000000000D+00  0.0000000000000D+00  0.0000000000000D+00