Zn    ONCVPSP  r_core=  1.36  1.66  1.85
     30.0000     20.0000      141003    zatom,zion,pspd
     8     2     2     4   601     0    pspcod,pspxc,lmax,lloc,mmax,r2well
  6.00000000  0.00000000  0.00000000    rchrg fchrg qchrg
     2     2     2     0     0    nproj
     0                 extension_switch
   0                         2.4442408501269D+00 -1.4463571669256D+00
     1  0.0000000000000D+00  0.0000000000000D+00  0.0000000000000D+00
     2  1.0000000000000D-02  6.5653061049495D-02  2.8222946754109D-02
     3  2.0000000000000D-02  1.3145230298698D-01  5.6478301731471D-02
     4  3.0000000000000D-02  1.9753443400535D-01  8.4797752673935D-02
     5  4.0000000000000D-02  2.6401746649774D-01  1.1321156006869D-01
     6  5.0000000000000D-02  3.3099198713759D-01  1.4174787749032D-01
     7  6.0000000000000D-02  3.9851315189615D-01  1.7043211187091D-01
     8  7.0000000000000D-02  4.6659362029666D-01  1.9928633563374D-01
     9  8.0000000000000D-02  5.3519762065932D-01  2.2832876149402D-01
    10  9.0000000000000D-02  6.0423631078313D-01  2.5757328935497D-01
    11  1.0000000000000D-01  6.7356456731947D-01  2.8702913315720D-01
    12  1.1000000000000D-01  7.4297930257584D-01  3.1670053380107D-01
    13  1.2000000000000D-01  8.1221937043046D-01  3.4658656238347D-01
    14  1.3000000000000D-01  8.8096708460438D-01  3.7668101604847D-01
    15  1.4000000000000D-01  9.4885133308186D-01  4.0697240676109D-01
    16  1.5000000000000D-01  1.0154522338289D+00  4.3744404129945D-01
    17  1.6000000000000D-01  1.0803072381395D+00  4.6807418886326D-01
    18  1.7000000000000D-01  1.1429185539930D+00  4.9883633082303D-01
    19  1.8000000000000D-01  1.2027617254116D+00  5.2969948540725D-01
    20  1.9000000000000D-01  1.2592951830241D+00  5.6062859880952D-01
    21  2.0000000000000D-01  1.3119705334385D+00  5.9158499211568D-01
    22  2.1000000000000D-01  1.3602433853952D+00  6.2252685418902D-01
    23  2.2000000000000D-01  1.4035844165265D+00  6.5340976686268D-01
    24  2.3000000000000D-01  1.4414904660139D+00  6.8418725168544D-01
    25  2.4000000000000D-01  1.4734953499762D+00  7.1481132375847D-01
    26  2.5000000000000D-01  1.4991802127915D+00  7.4523304329607D-01
    27  2.6000000000000D-01  1.5181830379811D+00  7.7540304655387D-01
    28  2.7000000000000D-01  1.5302072747980D+00  8.0527205359159D-01
    29  2.8000000000000D-01  1.5350291568115D+00  8.3479133170160D-01
    30  2.9000000000000D-01  1.5325037034265D+00  8.6391311369401D-01
    31  3.0000000000000D-01  1.5225691625894D+00  8.9259095857511D-01
    32  3.1000000000000D-01  1.5052497922948D+00  9.2078004888411D-01
    33  3.2000000000000D-01  1.4806568795287D+00  9.4843741828481D-01
    34  3.3000000000000D-01  1.4489880430224D+00  9.7552211246031D-01
    35  3.4000000000000D-01  1.4105246925620D+00  1.0019952747886D+00
    36  3.5000000000000D-01  1.3656277365475D+00  1.0278201571102D+00
    37  3.6000000000000D-01  1.3147317063960D+00  1.0529620728180D+00
    38  3.7000000000000D-01  1.2583372456066D+00  1.0773882742560D+00
    39  3.8000000000000D-01  1.1970023185120D+00  1.1010677777942D+00
    40  3.9000000000000D-01  1.1313320848971D+00  1.1239711427056D+00
    41  4.0000000000000D-01  1.0619679289192D+00  1.1460702019559D+00
    42  4.1000000000000D-01  9.8957569976922D-01  1.1673377679022D+00
    43  4.2000000000000D-01  9.1483347565821D-01  1.1877473176636D+00
    44  4.3000000000000D-01  8.3841912708295D-01  1.2072726710579D+00
    45  4.4000000000000D-01  7.6099795703434D-01  1.2258876733086D+00
    46  4.5000000000000D-01  6.8321069724269D-01  1.2435658945988D+00
    47  4.6000000000000D-01  6.0566213522030D-01  1.2602803582696D+00
    48  4.7000000000000D-01  5.2891063799221D-01  1.2760033089177D+00
    49  4.8000000000000D-01  4.5345908615094D-01  1.2907060352607D+00
    50  4.9000000000000D-01  3.7974613556486D-01  1.3043587333537D+00
    51  5.0000000000000D-01  3.0814022505334D-01  1.3169304592890D+00
    52  5.1000000000000D-01  2.3893501207420D-01  1.3283891479096D+00
    53  5.2000000000000D-01  1.7234609661482D-01  1.3387016977979D+00
    54  5.3000000000000D-01  1.0850917437915D-01  1.3478341377888D+00
    55  5.4000000000000D-01  4.7482396318944D-02  1.3557518880202D+00
    56  5.5000000000000D-01 -1.0752909693558D-02  1.3624200742394D+00
    57  5.6000000000000D-01 -6.6286302376804D-02  1.3678039317695D+00
    58  5.7000000000000D-01 -1.1927306909089D-01  1.3718692700133D+00
    59  5.8000000000000D-01 -1.6992596276595D-01  1.3745829915022D+00
    60  5.9000000000000D-01 -2.1850652271274D-01  1.3759136839019D+00
    61  6.0000000000000D-01 -2.6531459524786D-01  1.3758321775574D+00
    62  6.1000000000000D-01 -3.1067705094332D-01  1.3743122903061D+00
    63  6.2000000000000D-01 -3.5493661953050D-01  1.3713313158941D+00
    64  6.3000000000000D-01 -3.9843866754262D-01  1.3668708359984D+00
    65  6.4000000000000D-01 -4.4151932605810D-01  1.3609172742952D+00
    66  6.5000000000000D-01 -4.8449466364672D-01  1.3534624014411D+00
    67  6.6000000000000D-01 -5.2764678189337D-01  1.3445040836877D+00
    68  6.7000000000000D-01 -5.7121433285921D-01  1.3340466616157D+00
    69  6.8000000000000D-01 -6.1538324902708D-01  1.3221013449002D+00
    70  6.9000000000000D-01 -6.6027930400616D-01  1.3086864955293D+00
    71  7.0000000000000D-01 -7.0595726423488D-01  1.2938281231537D+00
    72  7.1000000000000D-01 -7.5239972539814D-01  1.2775597635180D+00
    73  7.2000000000000D-01 -7.9951271543632D-01  1.2599225824195D+00
    74  7.3000000000000D-01 -8.4712438706393D-01  1.2409652900630D+00
    75  7.4000000000000D-01 -8.9498621283216D-01  1.2207439154000D+00
    76  7.5000000000000D-01 -9.4277434582918D-01  1.1993215608424D+00
    77  7.6000000000000D-01 -9.9009541165255D-01  1.1767679120936D+00
    78  7.7000000000000D-01 -1.0364934663021D+00  1.1531586875619D+00
    79  7.8000000000000D-01 -1.0814581628274D+00  1.1285750149633D+00
    80  7.9000000000000D-01 -1.1244348242089D+00  1.1031027021487D+00
    81  8.0000000000000D-01 -1.1648359147880D+00  1.0768314293760D+00
    82  8.1000000000000D-01 -1.2020536610610D+00  1.0498538766523D+00
    83  8.2000000000000D-01 -1.2354735429546D+00  1.0222648012701D+00
    84  8.3000000000000D-01 -1.2644883534429D+00  9.9416008183620D-01
    85  8.4000000000000D-01 -1.2885125079927D+00  9.6563574592710D-01
    86  8.5000000000000D-01 -1.3069962760975D+00  9.3678699898111D-01
    87  8.6000000000000D-01 -1.3194396051952D+00  9.0770727215437D-01
    88  8.7000000000000D-01 -1.3254052125522D+00  8.7848730662687D-01
    89  8.8000000000000D-01 -1.3245306331542D+00  8.4921429124561D-01
    90  8.9000000000000D-01 -1.3165389311177D+00  8.1997106944614D-01
    91  9.0000000000000D-01 -1.3012478084749D+00  7.9083543010554D-01
    92  9.1000000000000D-01 -1.2785768781465D+00  7.6187949535954D-01
    93  9.2000000000000D-01 -1.2485529072537D+00  7.3316921647473D-01
    94  9.3000000000000D-01 -1.2113128821944D+00  7.0476398662011D-01
    95  9.4000000000000D-01 -1.1671047975028D+00  6.7671637685839D-01
    96  9.5000000000000D-01 -1.1162861254256D+00  6.4907199891884D-01
    97  9.6000000000000D-01 -1.0593184548456D+00  6.2186965553563D-01
    98  9.7000000000000D-01 -9.9676623977805D-01  5.9514100319306D-01
    99  9.8000000000000D-01 -9.2928468732117D-01  5.6891110913786D-01
   100  9.9000000000000D-01 -8.5760932826992D-01  5.4319883645555D-01
   101  1.0000000000000D+00 -7.8254450377580D-01  5.1801724993205D-01
   102  1.0100000000000D+00 -7.0494972786322D-01  4.9337417429641D-01
   103  1.0200000000000D+00 -6.2572495722728D-01  4.6927283541983D-01
   104  1.0300000000000D+00 -5.4579779170059D-01  4.4571258233215D-01
   105  1.0400000000000D+00 -4.6610025246748D-01  4.2268938592360D-01
   106  1.0500000000000D+00 -3.8755540583752D-01  4.0019705093204D-01
   107  1.0600000000000D+00 -3.1106036283231D-01  3.7822786056215D-01
   108  1.0700000000000D+00 -2.3747042647276D-01  3.5677336611227D-01
   109  1.0800000000000D+00 -1.6759437197317D-01  3.3582487134140D-01
   110  1.0900000000000D+00 -1.0214956680083D-01  3.1537492818361D-01
   111  1.1000000000000D+00 -4.1774471557636D-02  2.9541754146674D-01
   112  1.1100000000000D+00  1.2988032350618D-02  2.7594885561269D-01
   113  1.1200000000000D+00  6.1688777195441D-02  2.5696729826764D-01
   114  1.1300000000000D+00  1.0400877667740D-01  2.3847503232897D-01
   115  1.1400000000000D+00  1.3974936167076D-01  2.2047791503712D-01
   116  1.1500000000000D+00  1.6882518565106D-01  2.0298537763744D-01
   117  1.1600000000000D+00  1.9125594725013D-01  1.8601018789137D-01
   118  1.1700000000000D+00  2.0720878964134D-01  1.6957026534536D-01
   119  1.1800000000000D+00  2.1695389082907D-01  1.5368711012413D-01
   120  1.1900000000000D+00  2.2085697732536D-01  1.3838553881720D-01
   121  1.2000000000000D+00  2.1938339705832D-01  1.2369392260267D-01
   122  1.2100000000000D+00  2.1309673120865D-01  1.0964433595798D-01
   123  1.2200000000000D+00  2.0261741173185D-01  9.6270823703042D-02
   124  1.2300000000000D+00  1.8862436535021D-01  8.3609440706295D-02
   125  1.2400000000000D+00  1.7184528334259D-01  7.1698191913676D-02
   126  1.2500000000000D+00  1.5302060231482D-01  6.0575312782051D-02
   127  1.2600000000000D+00  1.3291354945450D-01  5.0279669863908D-02
   128  1.2700000000000D+00  1.1226230695792D-01  4.0849103817317D-02
   129  1.2800000000000D+00  9.1775721478931D-02  3.2319976366600D-02
   130  1.2900000000000D+00  7.2153960158811D-02  2.4727978277576D-02
   131  1.3000000000000D+00  5.3994395075647D-02  1.8104656624794D-02
   132  1.3100000000000D+00  3.7835558680381D-02  1.2478342870828D-02
   133  1.3200000000000D+00  2.4161284096259D-02  7.8736069973704D-03
   134  1.3300000000000D+00  1.3344122849785D-02  4.3154175787604D-03
   135  1.3400000000000D+00  5.6813304454487D-03  1.8224051762522D-03
   136  1.3500000000000D+00  1.5703441234744D-03  4.8785856567442D-04
   137  1.3600000000000D+00  2.1063849457934D-05 -1.0815703301541D-05
   138  1.3700000000000D+00 -1.4639853108539D-04 -5.2709640730461D-05
   139  1.3800000000000D+00 -1.1110586831897D-05 -2.3550738919155D-06
   140  1.3900000000000D+00 -1.8853167770388D-06 -3.9962428508706D-07
   141  1.4000000000000D+00  0.0000000000000D+00  0.0000000000000D+00
   142  1.4100000000000D+00  0.0000000000000D+00  0.0000000000000D+00
   143  1.4200000000000D+00  0.0000000000000D+00  0.0000000000000D+00
   144  1.4300000000000D+00  0.0000000000000D+00  0.0000000000000D+00
   145  1.4400000000000D+00  0.0000000000000D+00  0.0000000000000D+00
   146  1.4500000000000D+00  0.0000000000000D+00  0.0000000000000D+00
   147  1.4600000000000D+00  0.0000000000000D+00  0.0000000000000D+00
   148  1.4700000000000D+00  0.0000000000000D+00  0.0000000000000D+00
   149  1.4800000000000D+00  0.0000000000000D+00  0.0000000000000D+00
   150  1.4900000000000D+00  0.0000000000000D+00  0.0000000000000D+00
   151  1.5000000000000D+00  0.0000000000000D+00  0.0000000000000D+00
   152  1.5100000000000D+00  0.0000000000000D+00  0.0000000000000D+00
   153  1.5200000000000D+00  0.0000000000000D+00  0.0000000000000D+00
   154  1.5300000000000D+00  0.0000000000000D+00  0.0000000000000D+00
   155  1.5400000000000D+00  0.0000000000000D+00  0.0000000000000D+00
   156  1.5500000000000D+00  0.0000000000000D+00  0.0000000000000D+00
   157  1.5600000000000D+00  0.0000000000000D+00  0.0000000000000D+00
   158  1.5700000000000D+00  0.0000000000000D+00  0.0000000000000D+00
   159  1.5800000000000D+00  0.0000000000000D+00  0.0000000000000D+00
   160  1.5900000000000D+00  0.0000000000000D+00  0.0000000000000D+00
   161  1.6000000000000D+00  0.0000000000000D+00  0.0000000000000D+00
   162  1.6100000000000D+00  0.0000000000000D+00  0.0000000000000D+00
   163  1.6200000000000D+00  0.0000000000000D+00  0.0000000000000D+00
   164  1.6300000000000D+00  0.0000000000000D+00  0.0000000000000D+00
   165  1.6400000000000D+00  0.0000000000000D+00  0.0000000000000D+00
   166  1.6500000000000D+00  0.0000000000000D+00  0.0000000000000D+00
   167  1.6600000000000D+00  0.0000000000000D+00  0.0000000000000D+00
   168  1.6700000000000D+00  0.0000000000000D+00  0.0000000000000D+00
   169  1.6800000000000D+00  0.0000000000000D+00  0.0000000000000D+00
   170  1.6900000000000D+00  0.0000000000000D+00  0.0000000000000D+00
   171  1.7000000000000D+00  0.0000000000000D+00  0.0000000000000D+00
   172  1.7100000000000D+00  0.0000000000000D+00  0.0000000000000D+00
   173  1.7200000000000D+00  0.0000000000000D+00  0.0000000000000D+00
   174  1.7300000000000D+00  0.0000000000000D+00  0.0000000000000D+00
   175  1.7400000000000D+00  0.0000000000000D+00  0.0000000000000D+00
   176  1.7500000000000D+00  0.0000000000000D+00  0.0000000000000D+00
   177  1.7600000000000D+00  0.0000000000000D+00  0.0000000000000D+00
   178  1.7700000000000D+00  0.0000000000000D+00  0.0000000000000D+00
   179  1.7800000000000D+00  0.0000000000000D+00  0.0000000000000D+00
   180  1.7900000000000D+00  0.0000000000000D+00  0.0000000000000D+00
   181  1.8000000000000D+00  0.0000000000000D+00  0.0000000000000D+00
   182  1.8100000000000D+00  0.0000000000000D+00  0.0000000000000D+00
   183  1.8200000000000D+00  0.0000000000000D+00  0.0000000000000D+00
   184  1.8300000000000D+00  0.0000000000000D+00  0.0000000000000D+00
   185  1.8400000000000D+00  0.0000000000000D+00  0.0000000000000D+00
   186  1.8500000000000D+00  0.0000000000000D+00  0.0000000000000D+00
   187  1.8600000000000D+00  0.0000000000000D+00  0.0000000000000D+00
   188  1.8700000000000D+00  0.0000000000000D+00  0.0000000000000D+00
   189  1.8800000000000D+00  0.0000000000000D+00  0.0000000000000D+00
   190  1.8900000000000D+00  0.0000000000000D+00  0.0000000000000D+00
   191  1.9000000000000D+00  0.0000000000000D+00  0.0000000000000D+00
   192  1.9100000000000D+00  0.0000000000000D+00  0.0000000000000D+00
   193  1.9200000000000D+00  0.0000000000000D+00  0.0000000000000D+00
   194  1.9300000000000D+00  0.0000000000000D+00  0.0000000000000D+00
   195  1.9400000000000D+00  0.0000000000000D+00  0.0000000000000D+00
   196  1.9500000000000D+00  0.0000000000000D+00  0.0000000000000D+00
   197  1.9600000000000D+00  0.0000000000000D+00  0.0000000000000D+00
   198  1.9700000000000D+00  0.0000000000000D+00  0.0000000000000D+00
   199  1.9800000000000D+00  0.0000000000000D+00  0.0000000000000D+00
   200  1.9900000000000D+00  0.0000000000000D+00  0.0000000000000D+00
   201  2.0000000000000D+00  0.0000000000000D+00  0.0000000000000D+00
   202  2.0100000000000D+00  0.0000000000000D+00  0.0000000000000D+00
   203  2.0200000000000D+00  0.0000000000000D+00  0.0000000000000D+00
   204  2.0300000000000D+00  0.0000000000000D+00  0.0000000000000D+00
   205  2.0400000000000D+00  0.0000000000000D+00  0.0000000000000D+00
   206  2.0500000000000D+00  0.0000000000000D+00  0.0000000000000D+00
   207  2.0600000000000D+00  0.0000000000000D+00  0.0000000000000D+00
   208  2.0700000000000D+00  0.0000000000000D+00  0.0000000000000D+00
   209  2.0800000000000D+00  0.0000000000000D+00  0.0000000000000D+00
   210  2.0900000000000D+00  0.0000000000000D+00  0.0000000000000D+00
   211  2.1000000000000D+00  0.0000000000000D+00  0.0000000000000D+00
   212  2.1100000000000D+00  0.0000000000000D+00  0.0000000000000D+00
   213  2.1200000000000D+00  0.0000000000000D+00  0.0000000000000D+00
   214  2.1300000000000D+00  0.0000000000000D+00  0.0000000000000D+00
   215  2.1400000000000D+00  0.0000000000000D+00  0.0000000000000D+00
   216  2.1500000000000D+00  0.0000000000000D+00  0.0000000000000D+00
   217  2.1600000000000D+00  0.0000000000000D+00  0.0000000000000D+00
   218  2.1700000000000D+00  0.0000000000000D+00  0.0000000000000D+00
   219  2.1800000000000D+00  0.0000000000000D+00  0.0000000000000D+00
   220  2.1900000000000D+00  0.0000000000000D+00  0.0000000000000D+00
   221  2.2000000000000D+00  0.0000000000000D+00  0.0000000000000D+00
   222  2.2100000000000D+00  0.0000000000000D+00  0.0000000000000D+00
   223  2.2200000000000D+00  0.0000000000000D+00  0.0000000000000D+00
   224  2.2300000000000D+00  0.0000000000000D+00  0.0000000000000D+00
   225  2.2400000000000D+00  0.0000000000000D+00  0.0000000000000D+00
   226  2.2500000000000D+00  0.0000000000000D+00  0.0000000000000D+00
   227  2.2600000000000D+00  0.0000000000000D+00  0.0000000000000D+00
   228  2.2700000000000D+00  0.0000000000000D+00  0.0000000000000D+00
   229  2.2800000000000D+00  0.0000000000000D+00  0.0000000000000D+00
   230  2.2900000000000D+00  0.0000000000000D+00  0.0000000000000D+00
   231  2.3000000000000D+00  0.0000000000000D+00  0.0000000000000D+00
   232  2.3100000000000D+00  0.0000000000000D+00  0.0000000000000D+00
   233  2.3200000000000D+00  0.0000000000000D+00  0.0000000000000D+00
   234  2.3300000000000D+00  0.0000000000000D+00  0.0000000000000D+00
   235  2.3400000000000D+00  0.0000000000000D+00  0.0000000000000D+00
   236  2.3500000000000D+00  0.0000000000000D+00  0.0000000000000D+00
   237  2.3600000000000D+00  0.0000000000000D+00  0.0000000000000D+00
   238  2.3700000000000D+00  0.0000000000000D+00  0.0000000000000D+00
   239  2.3800000000000D+00  0.0000000000000D+00  0.0000000000000D+00
   240  2.3900000000000D+00  0.0000000000000D+00  0.0000000000000D+00
   241  2.4000000000000D+00  0.0000000000000D+00  0.0000000000000D+00
   242  2.4100000000000D+00  0.0000000000000D+00  0.0000000000000D+00
   243  2.4200000000000D+00  0.0000000000000D+00  0.0000000000000D+00
   244  2.4300000000000D+00  0.0000000000000D+00  0.0000000000000D+00
   245  2.4400000000000D+00  0.0000000000000D+00  0.0000000000000D+00
   246  2.4500000000000D+00  0.0000000000000D+00  0.0000000000000D+00
   247  2.4600000000000D+00  0.0000000000000D+00  0.0000000000000D+00
   248  2.4700000000000D+00  0.0000000000000D+00  0.0000000000000D+00
   249  2.4800000000000D+00  0.0000000000000D+00  0.0000000000000D+00
   250  2.4900000000000D+00  0.0000000000000D+00  0.0000000000000D+00
   251  2.5000000000000D+00  0.0000000000000D+00  0.0000000000000D+00
   252  2.5100000000000D+00  0.0000000000000D+00  0.0000000000000D+00
   253  2.5200000000000D+00  0.0000000000000D+00  0.0000000000000D+00
   254  2.5300000000000D+00  0.0000000000000D+00  0.0000000000000D+00
   255  2.5400000000000D+00  0.0000000000000D+00  0.0000000000000D+00
   256  2.5500000000000D+00  0.0000000000000D+00  0.0000000000000D+00
   257  2.5600000000000D+00  0.0000000000000D+00  0.0000000000000D+00
   258  2.5700000000000D+00  0.0000000000000D+00  0.0000000000000D+00
   259  2.5800000000000D+00  0.0000000000000D+00  0.0000000000000D+00
   260  2.5900000000000D+00  0.0000000000000D+00  0.0000000000000D+00
   261  2.6000000000000D+00  0.0000000000000D+00  0.0000000000000D+00
   262  2.6100000000000D+00  0.0000000000000D+00  0.0000000000000D+00
   263  2.6200000000000D+00  0.0000000000000D+00  0.0000000000000D+00
   264  2.6300000000000D+00  0.0000000000000D+00  0.0000000000000D+00
   265  2.6400000000000D+00  0.0000000000000D+00  0.0000000000000D+00
   266  2.6500000000000D+00  0.0000000000000D+00  0.0000000000000D+00
   267  2.6600000000000D+00  0.0000000000000D+00  0.0000000000000D+00
   268  2.6700000000000D+00  0.0000000000000D+00  0.0000000000000D+00
   269  2.6800000000000D+00  0.0000000000000D+00  0.0000000000000D+00
   270  2.6900000000000D+00  0.0000000000000D+00  0.0000000000000D+00
   271  2.7000000000000D+00  0.0000000000000D+00  0.0000000000000D+00
   272  2.7100000000000D+00  0.0000000000000D+00  0.0000000000000D+00
   273  2.7200000000000D+00  0.0000000000000D+00  0.0000000000000D+00
   274  2.7300000000000D+00  0.0000000000000D+00  0.0000000000000D+00
   275  2.7400000000000D+00  0.0000000000000D+00  0.0000000000000D+00
   276  2.7500000000000D+00  0.0000000000000D+00  0.0000000000000D+00
   277  2.7600000000000D+00  0.0000000000000D+00  0.0000000000000D+00
   278  2.7700000000000D+00  0.0000000000000D+00  0.0000000000000D+00
   279  2.7800000000000D+00  0.0000000000000D+00  0.0000000000000D+00
   280  2.7900000000000D+00  0.0000000000000D+00  0.0000000000000D+00
   281  2.8000000000000D+00  0.0000000000000D+00  0.0000000000000D+00
   282  2.8100000000000D+00  0.0000000000000D+00  0.0000000000000D+00
   283  2.8200000000000D+00  0.0000000000000D+00  0.0000000000000D+00
   284  2.8300000000000D+00  0.0000000000000D+00  0.0000000000000D+00
   285  2.8400000000000D+00  0.0000000000000D+00  0.0000000000000D+00
   286  2.8500000000000D+00  0.0000000000000D+00  0.0000000000000D+00
   287  2.8600000000000D+00  0.0000000000000D+00  0.0000000000000D+00
   288  2.8700000000000D+00  0.0000000000000D+00  0.0000000000000D+00
   289  2.8800000000000D+00  0.0000000000000D+00  0.0000000000000D+00
   290  2.8900000000000D+00  0.0000000000000D+00  0.0000000000000D+00
   291  2.9000000000000D+00  0.0000000000000D+00  0.0000000000000D+00
   292  2.9100000000000D+00  0.0000000000000D+00  0.0000000000000D+00
   293  2.9200000000000D+00  0.0000000000000D+00  0.0000000000000D+00
   294  2.9300000000000D+00  0.0000000000000D+00  0.0000000000000D+00
   295  2.9400000000000D+00  0.0000000000000D+00  0.0000000000000D+00
   296  2.9500000000000D+00  0.0000000000000D+00  0.0000000000000D+00
   297  2.9600000000000D+00  0.0000000000000D+00  0.0000000000000D+00
   298  2.9700000000000D+00  0.0000000000000D+00  0.0000000000000D+00
   299  2.9800000000000D+00  0.0000000000000D+00  0.0000000000000D+00
   300  2.9900000000000D+00  0.0000000000000D+00  0.0000000000000D+00
   301  3.0000000000000D+00  0.0000000000000D+00  0.0000000000000D+00
   302  3.0100000000000D+00  0.0000000000000D+00  0.0000000000000D+00
   303  3.0200000000000D+00  0.0000000000000D+00  0.0000000000000D+00
   304  3.0300000000000D+00  0.0000000000000D+00  0.0000000000000D+00
   305  3.0400000000000D+00  0.0000000000000D+00  0.0000000000000D+00
   306  3.0500000000000D+00  0.0000000000000D+00  0.0000000000000D+00
   307  3.0600000000000D+00  0.0000000000000D+00  0.0000000000000D+00
   308  3.0700000000000D+00  0.0000000000000D+00  0.0000000000000D+00
   309  3.0800000000000D+00  0.0000000000000D+00  0.0000000000000D+00
   310  3.0900000000000D+00  0.0000000000000D+00  0.0000000000000D+00
   311  3.1000000000000D+00  0.0000000000000D+00  0.0000000000000D+00
   312  3.1100000000000D+00  0.0000000000000D+00  0.0000000000000D+00
   313  3.1200000000000D+00  0.0000000000000D+00  0.0000000000000D+00
   314  3.1300000000000D+00  0.0000000000000D+00  0.0000000000000D+00
   315  3.1400000000000D+00  0.0000000000000D+00  0.0000000000000D+00
   316  3.1500000000000D+00  0.0000000000000D+00  0.0000000000000D+00
   317  3.1600000000000D+00  0.0000000000000D+00  0.0000000000000D+00
   318  3.1700000000000D+00  0.0000000000000D+00  0.0000000000000D+00
   319  3.1800000000000D+00  0.0000000000000D+00  0.0000000000000D+00
   320  3.1900000000000D+00  0.0000000000000D+00  0.0000000000000D+00
   321  3.2000000000000D+00  0.0000000000000D+00  0.0000000000000D+00
   322  3.2100000000000D+00  0.0000000000000D+00  0.0000000000000D+00
   323  3.2200000000000D+00  0.0000000000000D+00  0.0000000000000D+00
   324  3.2300000000000D+00  0.0000000000000D+00  0.0000000000000D+00
   325  3.2400000000000D+00  0.0000000000000D+00  0.0000000000000D+00
   326  3.2500000000000D+00  0.0000000000000D+00  0.0000000000000D+00
   327  3.2600000000000D+00  0.0000000000000D+00  0.0000000000000D+00
   328  3.2700000000000D+00  0.0000000000000D+00  0.0000000000000D+00
   329  3.2800000000000D+00  0.0000000000000D+00  0.0000000000000D+00
   330  3.2900000000000D+00  0.0000000000000D+00  0.0000000000000D+00
   331  3.3000000000000D+00  0.0000000000000D+00  0.0000000000000D+00
   332  3.3100000000000D+00  0.0000000000000D+00  0.0000000000000D+00
   333  3.3200000000000D+00  0.0000000000000D+00  0.0000000000000D+00
   334  3.3300000000000D+00  0.0000000000000D+00  0.0000000000000D+00
   335  3.3400000000000D+00  0.0000000000000D+00  0.0000000000000D+00
   336  3.3500000000000D+00  0.0000000000000D+00  0.0000000000000D+00
   337  3.3600000000000D+00  0.0000000000000D+00  0.0000000000000D+00
   338  3.3700000000000D+00  0.0000000000000D+00  0.0000000000000D+00
   339  3.3800000000000D+00  0.0000000000000D+00  0.0000000000000D+00
   340  3.3900000000000D+00  0.0000000000000D+00  0.0000000000000D+00
   341  3.4000000000000D+00  0.0000000000000D+00  0.0000000000000D+00
   342  3.4100000000000D+00  0.0000000000000D+00  0.0000000000000D+00
   343  3.4200000000000D+00  0.0000000000000D+00  0.0000000000000D+00
   344  3.4300000000000D+00  0.0000000000000D+00  0.0000000000000D+00
   345  3.4400000000000D+00  0.0000000000000D+00  0.0000000000000D+00
   346  3.4500000000000D+00  0.0000000000000D+00  0.0000000000000D+00
   347  3.4600000000000D+00  0.0000000000000D+00  0.0000000000000D+00
   348  3.4700000000000D+00  0.0000000000000D+00  0.0000000000000D+00
   349  3.4800000000000D+00  0.0000000000000D+00  0.0000000000000D+00
   350  3.4900000000000D+00  0.0000000000000D+00  0.0000000000000D+00
   351  3.5000000000000D+00  0.0000000000000D+00  0.0000000000000D+00
   352  3.5100000000000D+00  0.0000000000000D+00  0.0000000000000D+00
   353  3.5200000000000D+00  0.0000000000000D+00  0.0000000000000D+00
   354  3.5300000000000D+00  0.0000000000000D+00  0.0000000000000D+00
   355  3.5400000000000D+00  0.0000000000000D+00  0.0000000000000D+00
   356  3.5500000000000D+00  0.0000000000000D+00  0.0000000000000D+00
   357  3.5600000000000D+00  0.0000000000000D+00  0.0000000000000D+00
   358  3.5700000000000D+00  0.0000000000000D+00  0.0000000000000D+00
   359  3.5800000000000D+00  0.0000000000000D+00  0.0000000000000D+00
   360  3.5900000000000D+00  0.0000000000000D+00  0.0000000000000D+00
   361  3.6000000000000D+00  0.0000000000000D+00  0.0000000000000D+00
   362  3.6100000000000D+00  0.0000000000000D+00  0.0000000000000D+00
   363  3.6200000000000D+00  0.0000000000000D+00  0.0000000000000D+00
   364  3.6300000000000D+00  0.0000000000000D+00  0.0000000000000D+00
   365  3.6400000000000D+00  0.0000000000000D+00  0.0000000000000D+00
   366  3.6500000000000D+00  0.0000000000000D+00  0.0000000000000D+00
   367  3.6600000000000D+00  0.0000000000000D+00  0.0000000000000D+00
   368  3.6700000000000D+00  0.0000000000000D+00  0.0000000000000D+00
   369  3.6800000000000D+00  0.0000000000000D+00  0.0000000000000D+00
   370  3.6900000000000D+00  0.0000000000000D+00  0.0000000000000D+00
   371  3.7000000000000D+00  0.0000000000000D+00  0.0000000000000D+00
   372  3.7100000000000D+00  0.0000000000000D+00  0.0000000000000D+00
   373  3.7200000000000D+00  0.0000000000000D+00  0.0000000000000D+00
   374  3.7300000000000D+00  0.0000000000000D+00  0.0000000000000D+00
   375  3.7400000000000D+00  0.0000000000000D+00  0.0000000000000D+00
   376  3.7500000000000D+00  0.0000000000000D+00  0.0000000000000D+00
   377  3.7600000000000D+00  0.0000000000000D+00  0.0000000000000D+00
   378  3.7700000000000D+00  0.0000000000000D+00  0.0000000000000D+00
   379  3.7800000000000D+00  0.0000000000000D+00  0.0000000000000D+00
   380  3.7900000000000D+00  0.0000000000000D+00  0.0000000000000D+00
   381  3.8000000000000D+00  0.0000000000000D+00  0.0000000000000D+00
   382  3.8100000000000D+00  0.0000000000000D+00  0.0000000000000D+00
   383  3.8200000000000D+00  0.0000000000000D+00  0.0000000000000D+00
   384  3.8300000000000D+00  0.0000000000000D+00  0.0000000000000D+00
   385  3.8400000000000D+00  0.0000000000000D+00  0.0000000000000D+00
   386  3.8500000000000D+00  0.0000000000000D+00  0.0000000000000D+00
   387  3.8600000000000D+00  0.0000000000000D+00  0.0000000000000D+00
   388  3.8700000000000D+00  0.0000000000000D+00  0.0000000000000D+00
   389  3.8800000000000D+00  0.0000000000000D+00  0.0000000000000D+00
   390  3.8900000000000D+00  0.0000000000000D+00  0.0000000000000D+00
   391  3.9000000000000D+00  0.0000000000000D+00  0.0000000000000D+00
   392  3.9100000000000D+00  0.0000000000000D+00  0.0000000000000D+00
   393  3.9200000000000D+00  0.0000000000000D+00  0.0000000000000D+00
   394  3.9300000000000D+00  0.0000000000000D+00  0.0000000000000D+00
   395  3.9400000000000D+00  0.0000000000000D+00  0.0000000000000D+00
   396  3.9500000000000D+00  0.0000000000000D+00  0.0000000000000D+00
   397  3.9600000000000D+00  0.0000000000000D+00  0.0000000000000D+00
   398  3.9700000000000D+00  0.0000000000000D+00  0.0000000000000D+00
   399  3.9800000000000D+00  0.0000000000000D+00  0.0000000000000D+00
   400  3.9900000000000D+00  0.0000000000000D+00  0.0000000000000D+00
   401  4.0000000000000D+00  0.0000000000000D+00  0.0000000000000D+00
   402  4.0100000000000D+00  0.0000000000000D+00  0.0000000000000D+00
   403  4.0200000000000D+00  0.0000000000000D+00  0.0000000000000D+00
   404  4.0300000000000D+00  0.0000000000000D+00  0.0000000000000D+00
   405  4.0400000000000D+00  0.0000000000000D+00  0.0000000000000D+00
   406  4.0500000000000D+00  0.0000000000000D+00  0.0000000000000D+00
   407  4.0600000000000D+00  0.0000000000000D+00  0.0000000000000D+00
   408  4.0700000000000D+00  0.0000000000000D+00  0.0000000000000D+00
   409  4.0800000000000D+00  0.0000000000000D+00  0.0000000000000D+00
   410  4.0900000000000D+00  0.0000000000000D+00  0.0000000000000D+00
   411  4.1000000000000D+00  0.0000000000000D+00  0.0000000000000D+00
   412  4.1100000000000D+00  0.0000000000000D+00  0.0000000000000D+00
   413  4.1200000000000D+00  0.0000000000000D+00  0.0000000000000D+00
   414  4.1300000000000D+00  0.0000000000000D+00  0.0000000000000D+00
   415  4.1400000000000D+00  0.0000000000000D+00  0.0000000000000D+00
   416  4.1500000000000D+00  0.0000000000000D+00  0.0000000000000D+00
   417  4.1600000000000D+00  0.0000000000000D+00  0.0000000000000D+00
   418  4.1700000000000D+00  0.0000000000000D+00  0.0000000000000D+00
   419  4.1800000000000D+00  0.0000000000000D+00  0.0000000000000D+00
   420  4.1900000000000D+00  0.0000000000000D+00  0.0000000000000D+00
   421  4.2000000000000D+00  0.0000000000000D+00  0.0000000000000D+00
   422  4.2100000000000D+00  0.0000000000000D+00  0.0000000000000D+00
   423  4.2200000000000D+00  0.0000000000000D+00  0.0000000000000D+00