Zn    ONCVPSP  r_core=  2.11  2.11  1.92
     30.0000     12.0000      141003    zatom,zion,pspd
     8     2     2     4   601     0    pspcod,pspxc,lmax,lloc,mmax,r2well
  6.00000000  0.00000000  0.00000000    rchrg fchrg qchrg
     2     2     2     0     0    nproj
     0                 extension_switch
   0                         5.4027093330379D+00  7.1610992303595D-01
     1  0.0000000000000D+00  0.0000000000000D+00  0.0000000000000D+00
     2  1.0000000000000D-02 -2.1969667148268D-02  5.8833031228215D-03
     3  2.0000000000000D-02 -4.3948560508759D-02  1.1705199149905D-02
     4  3.0000000000000D-02 -6.5945819113930D-02  1.7404604426324D-02
     5  4.0000000000000D-02 -8.7970407988848D-02  2.2921080779572D-02
     6  5.0000000000000D-02 -1.1003103202657D-01  2.8195154768476D-02
     7  6.0000000000000D-02 -1.3213605091491D-01  3.3168632756864D-02
     8  7.0000000000000D-02 -1.5429339545889D-01  3.7784910447418D-02
     9  8.0000000000000D-02 -1.7651048563868D-01  4.1989275531300D-02
    10  9.0000000000000D-02 -1.9879415073583D-01  4.5729202139846D-02
    11  1.0000000000000D-01 -2.2115055185345D-01  4.8954635816023D-02
    12  1.1000000000000D-01 -2.4358510714805D-01  5.1618267759437D-02
    13  1.2000000000000D-01 -2.6610242007879D-01  5.3675797149547D-02
    14  1.3000000000000D-01 -2.8870621097028D-01  5.5086180395269D-02
    15  1.4000000000000D-01 -3.1139925217772D-01  5.5811866194599D-02
    16  1.5000000000000D-01 -3.3418330711307D-01  5.5819015408445D-02
    17  1.6000000000000D-01 -3.5705907340995D-01  5.5077704692546D-02
    18  1.7000000000000D-01 -3.8002613044203D-01  5.3562113073104D-02
    19  1.8000000000000D-01 -4.0308289145354D-01  5.1250690503161D-02
    20  1.9000000000000D-01 -4.2622656045785D-01  4.8126307819556D-02
    21  2.0000000000000D-01 -4.4945309420758D-01  4.4176387009587D-02
    22  2.1000000000000D-01 -4.7275716920547D-01  3.9393011891295D-02
    23  2.2000000000000D-01 -4.9613215417725D-01  3.3773017736610D-02
    24  2.3000000000000D-01 -5.1957008790164D-01  2.7318060228031D-02
    25  2.4000000000000D-01 -5.4306166269412D-01  2.0034662760973D-02
    26  2.5000000000000D-01 -5.6659621341973D-01  1.1934242544309D-02
    27  2.6000000000000D-01 -5.9016171246298D-01  3.0331141584132D-03
    28  2.7000000000000D-01 -6.1374477023409D-01 -6.6475280119148D-03
    29  2.8000000000000D-01 -6.3733064172942D-01 -1.7081649997732D-02
    30  2.9000000000000D-01 -6.6090323877747D-01 -2.8238439867086D-02
    31  3.0000000000000D-01 -6.8444514815565D-01 -4.0082391188239D-02
    32  3.1000000000000D-01 -7.0793765550294D-01 -5.2573407937032D-02
    33  3.2000000000000D-01 -7.3136077490549D-01 -6.5666930167049D-02
    34  3.3000000000000D-01 -7.5469328420298D-01 -7.9314080704671D-02
    35  3.4000000000000D-01 -7.7791276594397D-01 -9.3461832184752D-02
    36  3.5000000000000D-01 -8.0099565325121D-01 -1.0805319130527D-01
    37  3.6000000000000D-01 -8.2391728202928D-01 -1.2302740640398D-01
    38  3.7000000000000D-01 -8.4665194726707D-01 -1.3832018842230D-01
    39  3.8000000000000D-01 -8.6917296412100D-01 -1.5386394847381D-01
    40  3.9000000000000D-01 -8.9145273580808D-01 -1.6958805991311D-01
    41  4.0000000000000D-01 -9.1346282339445D-01 -1.8541912474250D-01
    42  4.1000000000000D-01 -9.3517402132046D-01 -2.0128126002675D-01
    43  4.2000000000000D-01 -9.5655643678781D-01 -2.1709639646057D-01
    44  4.3000000000000D-01 -9.7757957290249D-01 -2.3278458858178D-01
    45  4.4000000000000D-01 -9.9821241533395D-01 -2.4826433555730D-01
    46  4.5000000000000D-01 -1.0184235222020D+00 -2.6345291127729D-01
    47  4.6000000000000D-01 -1.0381811168724D+00 -2.7826670238001D-01
    48  4.7000000000000D-01 -1.0574531832910D+00 -2.9262155264951D-01
    49  4.8000000000000D-01 -1.0762075608832D+00 -3.0643310264378D-01
    50  4.9000000000000D-01 -1.0944120505175D+00 -3.1961716701129D-01
    51  5.0000000000000D-01 -1.1120345117087D+00 -3.3209007542985D-01
    52  5.1000000000000D-01 -1.1290429620894D+00 -3.4376901881784D-01
    53  5.2000000000000D-01 -1.1454056820162D+00 -3.5457241075144D-01
    54  5.3000000000000D-01 -1.1610913288976D+00 -3.6442027920467D-01
    55  5.4000000000000D-01 -1.1760690175267D+00 -3.7323453259114D-01
    56  5.5000000000000D-01 -1.1903084519438D+00 -3.8093940603888D-01
    57  5.6000000000000D-01 -1.2037800038114D+00 -3.8746171239279D-01
    58  5.7000000000000D-01 -1.2164548312966D+00 -3.9273123291388D-01
    59  5.8000000000000D-01 -1.2283049672277D+00 -3.9668099468031D-01
    60  5.9000000000000D-01 -1.2393034335910D+00 -3.9924763519464D-01
    61  6.0000000000000D-01 -1.2494243097371D+00 -4.0037160310639D-01
    62  6.1000000000000D-01 -1.2586428741317D+00 -3.9999760358909D-01
    63  6.2000000000000D-01 -1.2669356343679D+00 -3.9807466216132D-01
    64  6.3000000000000D-01 -1.2742804736362D+00 -3.9455657254964D-01
    65  6.4000000000000D-01 -1.2806567087065D+00 -3.8940204387135D-01
    66  6.5000000000000D-01 -1.2860451490653D+00 -3.8257485053877D-01
    67  6.6000000000000D-01 -1.2904282252226D+00 -3.7404419663125D-01
    68  6.7000000000000D-01 -1.2937900315160D+00 -3.6378479951862D-01
    69  6.8000000000000D-01 -1.2961163897232D+00 -3.5177703638910D-01
    70  6.9000000000000D-01 -1.2973949008503D+00 -3.3800705057577D-01
    71  7.0000000000000D-01 -1.2976150633965D+00 -3.2246704712825D-01
    72  7.1000000000000D-01 -1.2967682665978D+00 -3.0515520674815D-01
    73  7.2000000000000D-01 -1.2948478561465D+00 -2.8607581246414D-01
    74  7.3000000000000D-01 -1.2918491764449D+00 -2.6523929869340D-01
    75  7.4000000000000D-01 -1.2877695979015D+00 -2.4266225284216D-01
    76  7.5000000000000D-01 -1.2826085707294D+00 -2.1836747860495D-01
    77  7.6000000000000D-01 -1.2763676343293D+00 -1.9238393088016D-01
    78  7.7000000000000D-01 -1.2690504288404D+00 -1.6474665270516D-01
    79  7.8000000000000D-01 -1.2606627114579D+00 -1.3549671630969D-01
    80  7.9000000000000D-01 -1.2512123612815D+00 -1.0468112674154D-01
    81  8.0000000000000D-01 -1.2407093777006D+00 -7.2352701784362D-02
    82  8.1000000000000D-01 -1.2291658723142D+00 -3.8569928604275D-02
    83  8.2000000000000D-01 -1.2165960544087D+00 -3.3967976516964D-03
    84  8.3000000000000D-01 -1.2030162100359D+00  3.3097385567777D-02
    85  8.4000000000000D-01 -1.1884446747531D+00  7.0838210157256D-02
    86  8.5000000000000D-01 -1.1729018001083D+00  1.0974639015094D-01
    87  8.6000000000000D-01 -1.1564099139715D+00  1.4973801464022D-01
    88  8.7000000000000D-01 -1.1389932748332D+00  1.9072481677125D-01
    89  8.8000000000000D-01 -1.1206780202094D+00  2.3261446060315D-01
    90  8.9000000000000D-01 -1.1014921093156D+00  2.7531084473489D-01
    91  9.0000000000000D-01 -1.0814652601902D+00  3.1871442152534D-01
    92  9.1000000000000D-01 -1.0606288814751D+00  3.6272253064143D-01
    93  9.2000000000000D-01 -1.0390159990849D+00  4.0722974557622D-01
    94  9.3000000000000D-01 -1.0166611780248D+00  4.5212823167966D-01
    95  9.4000000000000D-01 -9.9360043964802D-01  4.9730811414242D-01
    96  9.5000000000000D-01 -9.6987117467981D-01  5.4265785426874D-01
    97  9.6000000000000D-01 -9.4551206369085D-01  5.8806455127054D-01
    98  9.7000000000000D-01 -9.2056295992583D-01  6.3341451682375D-01
    99  9.8000000000000D-01 -8.9506479830523D-01  6.7859357634842D-01
   100  9.9000000000000D-01 -8.6905949954105D-01  7.2348743611294D-01
   101  1.0000000000000D+00 -8.4258986314086D-01  7.6798210430792D-01
   102  1.0100000000000D+00 -8.1569946147019D-01  8.1196428496669D-01
   103  1.0200000000000D+00 -7.8843253512775D-01  8.5532175375093D-01
   104  1.0300000000000D+00 -7.6083394145563D-01  8.9794347332180D-01
   105  1.0400000000000D+00 -7.3294886391891D-01  9.3972085754553D-01
   106  1.0500000000000D+00 -7.0482285997893D-01  9.8054733049026D-01
   107  1.0600000000000D+00 -6.7650170383818D-01  1.0203189297455D+00
   108  1.0700000000000D+00 -6.4803127671755D-01  1.0589346526120D+00
   109  1.0800000000000D+00 -6.1945758738660D-01  1.0962962593271D+00
   110  1.0900000000000D+00 -5.9082626980721D-01  1.1323102495845D+00
   111  1.1000000000000D+00 -5.6218281818647D-01  1.1668866806149D+00
   112  1.1100000000000D+00 -5.3357239006274D-01  1.1999398612800D+00
   113  1.1200000000000D+00 -5.0503984050161D-01  1.2313881162780D+00
   114  1.1300000000000D+00 -4.7662926120374D-01  1.2611554232314D+00
   115  1.1400000000000D+00 -4.4838403775251D-01  1.2891709792972D+00
   116  1.1500000000000D+00 -4.2034686417921D-01  1.3153690207752D+00
   117  1.1600000000000D+00 -3.9255982503534D-01  1.3396884683952D+00
   118  1.1700000000000D+00 -3.6506360734836D-01  1.3620755117460D+00
   119  1.1800000000000D+00 -3.3789792970860D-01  1.3824818942735D+00
   120  1.1900000000000D+00 -3.1110155332205D-01  1.4008648010228D+00
   121  1.2000000000000D+00 -2.8471207623279D-01  1.4171874552018D+00
   122  1.2100000000000D+00 -2.5876529924155D-01  1.4314208419347D+00
   123  1.2200000000000D+00 -2.3329591234829D-01  1.4435413937622D+00
   124  1.2300000000000D+00 -2.0833762532260D-01  1.4535306463889D+00
   125  1.2400000000000D+00 -1.8392167591798D-01  1.4613792625104D+00
   126  1.2500000000000D+00 -1.6007813881523D-01  1.4670830446615D+00
   127  1.2600000000000D+00 -1.3683596025592D-01  1.4706429462119D+00
   128  1.2700000000000D+00 -1.1422146356850D-01  1.4720686795074D+00
   129  1.2800000000000D+00 -9.2259553902299D-02  1.4713753006473D+00
   130  1.2900000000000D+00 -7.0974009958448D-02  1.4685826602143D+00
   131  1.3000000000000D+00 -5.0385676441819D-02  1.4637192027701D+00
   132  1.3100000000000D+00 -3.0514065002613D-02  1.4568180364948D+00
   133  1.3200000000000D+00 -1.1377369247522D-02  1.4479171408739D+00
   134  1.3300000000000D+00  7.0093086409059D-03  1.4370622905031D+00
   135  1.3400000000000D+00  2.4631890614815D-02  1.4243029744812D+00
   136  1.3500000000000D+00  4.1478273050831D-02  1.4096941829288D+00
   137  1.3600000000000D+00  5.7538957803541D-02  1.3932966495411D+00
   138  1.3700000000000D+00  7.2805340838324D-02  1.3751745221436D+00
   139  1.3800000000000D+00  8.7271606351399D-02  1.3553974669323D+00
   140  1.3900000000000D+00  1.0093357657352D-01  1.3340387222229D+00
   141  1.4000000000000D+00  1.1378837539370D-01  1.3111752657858D+00
   142  1.4100000000000D+00  1.2583608662146D-01  1.2868879240782D+00
   143  1.4200000000000D+00  1.3707749613868D-01  1.2612603679850D+00
   144  1.4300000000000D+00  1.4751593665203D-01  1.2343793237869D+00
   145  1.4400000000000D+00  1.5715625973944D-01  1.2063336451502D+00
   146  1.4500000000000D+00  1.6600466264053D-01  1.1772150655591D+00
   147  1.4600000000000D+00  1.7406978987891D-01  1.1471158039996D+00
   148  1.4700000000000D+00  1.8136089560036D-01  1.1161312849776D+00
   149  1.4800000000000D+00  1.8788974339403D-01  1.0843560333003D+00
   150  1.4900000000000D+00  1.9366889175201D-01  1.0518867356737D+00
   151  1.5000000000000D+00  1.9871267275007D-01  1.0188198762296D+00
   152  1.5100000000000D+00  2.0303672462826D-01  9.8525124285542D-01
   153  1.5200000000000D+00  2.0665782199069D-01  9.5127833564247D-01
   154  1.5300000000000D+00  2.0959426940007D-01  9.1699422508793D-01
   155  1.5400000000000D+00  2.1186515372662D-01  8.8249635032445D-01
   156  1.5500000000000D+00  2.1349100396528D-01  8.4787404832965D-01
   157  1.5600000000000D+00  2.1449308789011D-01  8.1322179461202D-01
   158  1.5700000000000D+00  2.1489374643369D-01  7.7862572565354D-01
   159  1.5800000000000D+00  2.1471611725610D-01  7.4417501647724D-01
   160  1.5900000000000D+00  2.1398410786624D-01  7.0995197790221D-01
   161  1.6000000000000D+00  2.1272233433797D-01  6.7603908328484D-01
   162  1.6100000000000D+00  2.1095603047235D-01  6.4251380128560D-01
   163  1.6200000000000D+00  2.0871090377513D-01  6.0945088820847D-01
   164  1.6300000000000D+00  2.0601325307410D-01  5.7692194143953D-01
   165  1.6400000000000D+00  2.0288951325656D-01  5.4499325136751D-01
   166  1.6500000000000D+00  1.9936676398616D-01  5.1372953646078D-01
   167  1.6600000000000D+00  1.9547183443294D-01  4.8318812859743D-01
   168  1.6700000000000D+00  1.9123227849030D-01  4.5342591485983D-01
   169  1.6800000000000D+00  1.8667502323122D-01  4.2449101789055D-01
   170  1.6900000000000D+00  1.8182776930384D-01  3.9643162730267D-01
   171  1.7000000000000D+00  1.7671728657488D-01  3.6928662942797D-01
   172  1.7100000000000D+00  1.7137107590452D-01  3.4309476629225D-01
   173  1.7200000000000D+00  1.6581553980687D-01  3.1788586023309D-01
   174  1.7300000000000D+00  1.6007761575444D-01  2.9368860251673D-01
   175  1.7400000000000D+00  1.5418317618337D-01  2.7052408923876D-01
   176  1.7500000000000D+00  1.4815821743136D-01  2.4841054089350D-01
   177  1.7600000000000D+00  1.4202796672212D-01  2.2736078336468D-01
   178  1.7700000000000D+00  1.3581709248975D-01  2.0738237378586D-01
   179  1.7800000000000D+00  1.2955010550913D-01  1.8848038040107D-01
   180  1.7900000000000D+00  1.2324995959740D-01  1.7065178387790D-01
   181  1.8000000000000D+00  1.1694041234635D-01  1.5389439042663D-01
   182  1.8100000000000D+00  1.1064233118308D-01  1.3819502519596D-01
   183  1.8200000000000D+00  1.0437870140624D-01  1.2354463449269D-01
   184  1.8300000000000D+00  9.8168003054679D-02  1.0992075886884D-01
   185  1.8400000000000D+00  9.2032321392944D-02  9.7307517756477D-02
   186  1.8500000000000D+00  8.5987994185732D-02  8.5675228968424D-02
   187  1.8600000000000D+00  8.0054869637040D-02  7.4999214582006D-02
   188  1.8700000000000D+00  7.4248277899615D-02  6.5245766787268D-02
   189  1.8800000000000D+00  6.8585079619337D-02  5.6381625874169D-02
   190  1.8900000000000D+00  6.3079780318646D-02  4.8369458384265D-02
   191  1.9000000000000D+00  5.7745872176646D-02  4.1168923373861D-02
   192  1.9100000000000D+00  5.2597179394765D-02  3.4739083143268D-02
   193  1.9200000000000D+00  4.7643601249807D-02  2.9034693857698D-02
   194  1.9300000000000D+00  4.2898155938076D-02  2.4010130769968D-02
   195  1.9400000000000D+00  3.8368178673303D-02  1.9619685349858D-02
   196  1.9500000000000D+00  3.4064121542261D-02  1.5814301783227D-02
   197  1.9600000000000D+00  2.9992886234543D-02  1.2548916925945D-02
   198  1.9700000000000D+00  2.6161853181059D-02  9.7761847440752D-03
   199  1.9800000000000D+00  2.2577731063173D-02  7.4496178046948D-03
   200  1.9900000000000D+00  1.9244786353928D-02  5.5270139701362D-03
   201  2.0000000000000D+00  1.6169518635526D-02  3.9594450835822D-03
   202  2.0100000000000D+00  1.3353827490765D-02  2.7103293485327D-03
   203  2.0200000000000D+00  1.0802066848015D-02  1.7342571077224D-03
   204  2.0300000000000D+00  8.5158641711728D-03  9.9460653718833D-04
   205  2.0400000000000D+00  6.4964634199202D-03  4.5488124604746D-04
   206  2.0500000000000D+00  4.7455690901258D-03  7.5970401777953D-05
   207  2.0600000000000D+00  3.2616306098429D-03 -1.6854107317246D-04
   208  2.0700000000000D+00  2.0453084722956D-03 -3.1602454125600D-04
   209  2.0800000000000D+00  1.0938951794904D-03 -3.8900316336254D-04
   210  2.0900000000000D+00  4.1702670193654D-04 -4.2392368711983D-04
   211  2.1000000000000D+00  1.2478771925372D-05 -4.4688414765492D-04
   212  2.1100000000000D+00 -1.8418086373405D-04 -4.2071836100867D-04
   213  2.1200000000000D+00 -1.9001875691519D-04 -2.8404908780508D-04
   214  2.1300000000000D+00 -9.0572441665815D-05 -1.1089880810895D-04
   215  2.1400000000000D+00  6.4878003465521D-06  1.3246263643151D-05
   216  2.1500000000000D+00  1.3093896633916D-05  2.6734054327242D-05
   217  2.1600000000000D+00  3.7863703890964D-06  7.7307034349854D-06
   218  2.1700000000000D+00  0.0000000000000D+00  0.0000000000000D+00
   219  2.1800000000000D+00  0.0000000000000D+00  0.0000000000000D+00
   220  2.1900000000000D+00  0.0000000000000D+00  0.0000000000000D+00
   221  2.2000000000000D+00  0.0000000000000D+00  0.0000000000000D+00
   222  2.2100000000000D+00  0.0000000000000D+00  0.0000000000000D+00
   223  2.2200000000000D+00  0.0000000000000D+00  0.0000000000000D+00
   224  2.2300000000000D+00  0.0000000000000D+00  0.0000000000000D+00
   225  2.2400000000000D+00  0.0000000000000D+00  0.0000000000000D+00
   226  2.2500000000000D+00  0.0000000000000D+00  0.0000000000000D+00
   227  2.2600000000000D+00  0.0000000000000D+00  0.0000000000000D+00
   228  2.2700000000000D+00  0.0000000000000D+00  0.0000000000000D+00
   229  2.2800000000000D+00  0.0000000000000D+00  0.0000000000000D+00
   230  2.2900000000000D+00  0.0000000000000D+00  0.0000000000000D+00
   231  2.3000000000000D+00  0.0000000000000D+00  0.0000000000000D+00
   232  2.3100000000000D+00  0.0000000000000D+00  0.0000000000000D+00
   233  2.3200000000000D+00  0.0000000000000D+00  0.0000000000000D+00
   234  2.3300000000000D+00  0.0000000000000D+00  0.0000000000000D+00
   235  2.3400000000000D+00  0.0000000000000D+00  0.0000000000000D+00
   236  2.3500000000000D+00  0.0000000000000D+00  0.0000000000000D+00
   237  2.3600000000000D+00  0.0000000000000D+00  0.0000000000000D+00
   238  2.3700000000000D+00  0.0000000000000D+00  0.0000000000000D+00
   239  2.3800000000000D+00  0.0000000000000D+00  0.0000000000000D+00
   240  2.3900000000000D+00  0.0000000000000D+00  0.0000000000000D+00
   241  2.4000000000000D+00  0.0000000000000D+00  0.0000000000000D+00
   242  2.4100000000000D+00  0.0000000000000D+00  0.0000000000000D+00
   243  2.4200000000000D+00  0.0000000000000D+00  0.0000000000000D+00
   244  2.4300000000000D+00  0.0000000000000D+00  0.0000000000000D+00
   245  2.4400000000000D+00  0.0000000000000D+00  0.0000000000000D+00
   246  2.4500000000000D+00  0.0000000000000D+00  0.0000000000000D+00
   247  2.4600000000000D+00  0.0000000000000D+00  0.0000000000000D+00
   248  2.4700000000000D+00  0.0000000000000D+00  0.0000000000000D+00
   249  2.4800000000000D+00  0.0000000000000D+00  0.0000000000000D+00
   250  2.4900000000000D+00  0.0000000000000D+00  0.0000000000000D+00
   251  2.5000000000000D+00  0.0000000000000D+00  0.0000000000000D+00
   252  2.5100000000000D+00  0.0000000000000D+00  0.0000000000000D+00
   253  2.5200000000000D+00  0.0000000000000D+00  0.0000000000000D+00
   254  2.5300000000000D+00  0.0000000000000D+00  0.0000000000000D+00
   255  2.5400000000000D+00  0.0000000000000D+00  0.0000000000000D+00
   256  2.5500000000000D+00  0.0000000000000D+00  0.0000000000000D+00
   257  2.5600000000000D+00  0.0000000000000D+00  0.0000000000000D+00
   258  2.5700000000000D+00  0.0000000000000D+00  0.0000000000000D+00
   259  2.5800000000000D+00  0.0000000000000D+00  0.0000000000000D+00
   260  2.5900000000000D+00  0.0000000000000D+00  0.0000000000000D+00
   261  2.6000000000000D+00  0.0000000000000D+00  0.0000000000000D+00
   262  2.6100000000000D+00  0.0000000000000D+00  0.0000000000000D+00
   263  2.6200000000000D+00  0.0000000000000D+00  0.0000000000000D+00
   264  2.6300000000000D+00  0.0000000000000D+00  0.0000000000000D+00
   265  2.6400000000000D+00  0.0000000000000D+00  0.0000000000000D+00
   266  2.6500000000000D+00  0.0000000000000D+00  0.0000000000000D+00
   267  2.6600000000000D+00  0.0000000000000D+00  0.0000000000000D+00
   268  2.6700000000000D+00  0.0000000000000D+00  0.0000000000000D+00
   269  2.6800000000000D+00  0.0000000000000D+00  0.0000000000000D+00
   270  2.6900000000000D+00  0.0000000000000D+00  0.0000000000000D+00
   271  2.7000000000000D+00  0.0000000000000D+00  0.0000000000000D+00
   272  2.7100000000000D+00  0.0000000000000D+00  0.0000000000000D+00
   273  2.7200000000000D+00  0.0000000000000D+00  0.0000000000000D+00
   274  2.7300000000000D+00  0.0000000000000D+00  0.0000000000000D+00
   275  2.7400000000000D+00  0.0000000000000D+00  0.0000000000000D+00
   276  2.7500000000000D+00  0.0000000000000D+00  0.0000000000000D+00
   277  2.7600000000000D+00  0.0000000000000D+00  0.0000000000000D+00
   278  2.7700000000000D+00  0.0000000000000D+00  0.0000000000000D+00
   279  2.7800000000000D+00  0.0000000000000D+00  0.0000000000000D+00
   280  2.7900000000000D+00  0.0000000000000D+00  0.0000000000000D+00
   281  2.8000000000000D+00  0.0000000000000D+00  0.0000000000000D+00
   282  2.8100000000000D+00  0.0000000000000D+00  0.0000000000000D+00
   283  2.8200000000000D+00  0.0000000000000D+00  0.0000000000000D+00
   284  2.8300000000000D+00  0.0000000000000D+00  0.0000000000000D+00
   285  2.8400000000000D+00  0.0000000000000D+00  0.0000000000000D+00
   286  2.8500000000000D+00  0.0000000000000D+00  0.0000000000000D+00
   287  2.8600000000000D+00  0.0000000000000D+00  0.0000000000000D+00
   288  2.8700000000000D+00  0.0000000000000D+00  0.0000000000000D+00
   289  2.8800000000000D+00  0.0000000000000D+00  0.0000000000000D+00
   290  2.8900000000000D+00  0.0000000000000D+00  0.0000000000000D+00
   291  2.9000000000000D+00  0.0000000000000D+00  0.0000000000000D+00
   292  2.9100000000000D+00  0.0000000000000D+00  0.0000000000000D+00
   293  2.9200000000000D+00  0.0000000000000D+00  0.0000000000000D+00
   294  2.9300000000000D+00  0.0000000000000D+00  0.0000000000000D+00
   295  2.9400000000000D+00  0.0000000000000D+00  0.0000000000000D+00
   296  2.9500000000000D+00  0.0000000000000D+00  0.0000000000000D+00
   297  2.9600000000000D+00  0.0000000000000D+00  0.0000000000000D+00
   298  2.9700000000000D+00  0.0000000000000D+00  0.0000000000000D+00
   299  2.9800000000000D+00  0.0000000000000D+00  0.0000000000000D+00
   300  2.9900000000000D+00  0.0000000000000D+00  0.0000000000000D+00
   301  3.0000000000000D+00  0.0000000000000D+00  0.0000000000000D+00
   302  3.0100000000000D+00  0.0000000000000D+00  0.0000000000000D+00
   303  3.0200000000000D+00  0.0000000000000D+00  0.0000000000000D+00
   304  3.0300000000000D+00  0.0000000000000D+00  0.0000000000000D+00
   305  3.0400000000000D+00  0.0000000000000D+00  0.0000000000000D+00
   306  3.0500000000000D+00  0.0000000000000D+00  0.0000000000000D+00
   307  3.0600000000000D+00  0.0000000000000D+00  0.0000000000000D+00
   308  3.0700000000000D+00  0.0000000000000D+00  0.0000000000000D+00
   309  3.0800000000000D+00  0.0000000000000D+00  0.0000000000000D+00
   310  3.0900000000000D+00  0.0000000000000D+00  0.0000000000000D+00
   311  3.1000000000000D+00  0.0000000000000D+00  0.0000000000000D+00
   312  3.1100000000000D+00  0.0000000000000D+00  0.0000000000000D+00
   313  3.1200000000000D+00  0.0000000000000D+00  0.0000000000000D+00
   314  3.1300000000000D+00  0.0000000000000D+00  0.0000000000000D+00
   315  3.1400000000000D+00  0.0000000000000D+00  0.0000000000000D+00
   316  3.1500000000000D+00  0.0000000000000D+00  0.0000000000000D+00
   317  3.1600000000000D+00  0.0000000000000D+00  0.0000000000000D+00
   318  3.1700000000000D+00  0.0000000000000D+00  0.0000000000000D+00
   319  3.1800000000000D+00  0.0000000000000D+00  0.0000000000000D+00
   320  3.1900000000000D+00  0.0000000000000D+00  0.0000000000000D+00
   321  3.2000000000000D+00  0.0000000000000D+00  0.0000000000000D+00
   322  3.2100000000000D+00  0.0000000000000D+00  0.0000000000000D+00
   323  3.2200000000000D+00  0.0000000000000D+00  0.0000000000000D+00
   324  3.2300000000000D+00  0.0000000000000D+00  0.0000000000000D+00
   325  3.2400000000000D+00  0.0000000000000D+00  0.0000000000000D+00
   326  3.2500000000000D+00  0.0000000000000D+00  0.0000000000000D+00
   327  3.2600000000000D+00  0.0000000000000D+00  0.0000000000000D+00
   328  3.2700000000000D+00  0.0000000000000D+00  0.0000000000000D+00
   329  3.2800000000000D+00  0.0000000000000D+00  0.0000000000000D+00
   330  3.2900000000000D+00  0.0000000000000D+00  0.0000000000000D+00
   331  3.3000000000000D+00  0.0000000000000D+00  0.0000000000000D+00
   332  3.3100000000000D+00  0.0000000000000D+00  0.0000000000000D+00
   333  3.3200000000000D+00  0.0000000000000D+00  0.0000000000000D+00
   334  3.3300000000000D+00  0.0000000000000D+00  0.0000000000000D+00
   335  3.3400000000000D+00  0.0000000000000D+00  0.0000000000000D+00
   336  3.3500000000000D+00  0.0000000000000D+00  0.0000000000000D+00
   337  3.3600000000000D+00  0.0000000000000D+00  0.0000000000000D+00
   338  3.3700000000000D+00  0.0000000000000D+00  0.0000000000000D+00
   339  3.3800000000000D+00  0.0000000000000D+00  0.0000000000000D+00
   340  3.3900000000000D+00  0.0000000000000D+00  0.0000000000000D+00
   341  3.4000000000000D+00  0.0000000000000D+00  0.0000000000000D+00
   342  3.4100000000000D+00  0.0000000000000D+00  0.0000000000000D+00
   343  3.4200000000000D+00  0.0000000000000D+00  0.0000000000000D+00
   344  3.4300000000000D+00  0.0000000000000D+00  0.0000000000000D+00
   345  3.4400000000000D+00  0.0000000000000D+00  0.0000000000000D+00
   346  3.4500000000000D+00  0.0000000000000D+00  0.0000000000000D+00
   347  3.4600000000000D+00  0.0000000000000D+00  0.0000000000000D+00
   348  3.4700000000000D+00  0.0000000000000D+00  0.0000000000000D+00
   349  3.4800000000000D+00  0.0000000000000D+00  0.0000000000000D+00
   350  3.4900000000000D+00  0.0000000000000D+00  0.0000000000000D+00
   351  3.5000000000000D+00  0.0000000000000D+00  0.0000000000000D+00
   352  3.5100000000000D+00  0.0000000000000D+00  0.0000000000000D+00
   353  3.5200000000000D+00  0.0000000000000D+00  0.0000000000000D+00
   354  3.5300000000000D+00  0.0000000000000D+00  0.0000000000000D+00
   355  3.5400000000000D+00  0.0000000000000D+00  0.0000000000000D+00
   356  3.5500000000000D+00  0.0000000000000D+00  0.0000000000000D+00
   357  3.5600000000000D+00  0.0000000000000D+00  0.0000000000000D+00
   358  3.5700000000000D+00  0.0000000000000D+00  0.0000000000000D+00
   359  3.5800000000000D+00  0.0000000000000D+00  0.0000000000000D+00
   360  3.5900000000000D+00  0.0000000000000D+00  0.0000000000000D+00
   361  3.6000000000000D+00  0.0000000000000D+00  0.0000000000000D+00
   362  3.6100000000000D+00  0.0000000000000D+00  0.0000000000000D+00
   363  3.6200000000000D+00  0.0000000000000D+00  0.0000000000000D+00
   364  3.6300000000000D+00  0.0000000000000D+00  0.0000000000000D+00
   365  3.6400000000000D+00  0.0000000000000D+00  0.0000000000000D+00
   366  3.6500000000000D+00  0.0000000000000D+00  0.0000000000000D+00
   367  3.6600000000000D+00  0.0000000000000D+00  0.0000000000000D+00
   368  3.6700000000000D+00  0.0000000000000D+00  0.0000000000000D+00
   369  3.6800000000000D+00  0.0000000000000D+00  0.0000000000000D+00
   370  3.6900000000000D+00  0.0000000000000D+00  0.0000000000000D+00
   371  3.7000000000000D+00  0.0000000000000D+00  0.0000000000000D+00
   372  3.7100000000000D+00  0.0000000000000D+00  0.0000000000000D+00
   373  3.7200000000000D+00  0.0000000000000D+00  0.0000000000000D+00
   374  3.7300000000000D+00  0.0000000000000D+00  0.0000000000000D+00
   375  3.7400000000000D+00  0.0000000000000D+00  0.0000000000000D+00
   376  3.7500000000000D+00  0.0000000000000D+00  0.0000000000000D+00
   377  3.7600000000000D+00  0.0000000000000D+00  0.0000000000000D+00
   378  3.7700000000000D+00  0.0000000000000D+00  0.0000000000000D+00
   379  3.7800000000000D+00  0.0000000000000D+00  0.0000000000000D+00
   380  3.7900000000000D+00  0.0000000000000D+00  0.0000000000000D+00
   381  3.8000000000000D+00  0.0000000000000D+00  0.0000000000000D+00
   382  3.8100000000000D+00  0.0000000000000D+00  0.0000000000000D+00
   383  3.8200000000000D+00  0.0000000000000D+00  0.0000000000000D+00
   384  3.8300000000000D+00  0.0000000000000D+00  0.0000000000000D+00
   385  3.8400000000000D+00  0.0000000000000D+00  0.0000000000000D+00
   386  3.8500000000000D+00  0.0000000000000D+00  0.0000000000000D+00
   387  3.8600000000000D+00  0.0000000000000D+00  0.0000000000000D+00
   388  3.8700000000000D+00  0.0000000000000D+00  0.0000000000000D+00
   389  3.8800000000000D+00  0.0000000000000D+00  0.0000000000000D+00
   390  3.8900000000000D+00  0.0000000000000D+00  0.0000000000000D+00
   391  3.9000000000000D+00  0.0000000000000D+00  0.0000000000000D+00
   392  3.9100000000000D+00  0.0000000000000D+00  0.0000000000000D+00
   393  3.9200000000000D+00  0.0000000000000D+00  0.0000000000000D+00
   394  3.9300000000000D+00  0.0000000000000D+00  0.0000000000000D+00
   395  3.9400000000000D+00  0.0000000000000D+00  0.0000000000000D+00
   396  3.9500000000000D+00  0.0000000000000D+00  0.0000000000000D+00
   397  3.9600000000000D+00  0.0000000000000D+00  0.0000000000000D+00
   398  3.9700000000000D+00  0.0000000000000D+00  0.0000000000000D+00
   399  3.9800000000000D+00  0.0000000000000D+00  0.0000000000000D+00
   400  3.9900000000000D+00  0.0000000000000D+00  0.0000000000000D+00
   401  4.0000000000000D+00  0.0000000000000D+00  0.0000000000000D+00
   402  4.0100000000000D+00  0.0000000000000D+00  0.0000000000000D+00
   403  4.0200000000000D+00  0.0000000000000D+00  0.0000000000000D+00
   404  4.0300000000000D+00  0.0000000000000D+00  0.0000000000000D+00
   405  4.0400000000000D+00  0.0000000000000D+00  0.0000000000000D+00
   406  4.0500000000000D+00  0.0000000000000D+00  0.0000000000000D+00
   407  4.0600000000000D+00  0.0000000000000D+00  0.0000000000000D+00
   408  4.0700000000000D+00  0.0000000000000D+00  0.0000000000000D+00
   409  4.0800000000000D+00  0.0000000000000D+00  0.0000000000000D+00
   410  4.0900000000000D+00  0.0000000000000D+00  0.0000000000000D+00
   411  4.1000000000000D+00  0.0000000000000D+00  0.0000000000000D+00
   412  4.1100000000000D+00  0.0000000000000D+00  0.0000000000000D+00
   413  4.1200000000000D+00  0.0000000000000D+00  0.0000000000000D+00
   414  4.1300000000000D+00  0.0000000000000D+00  0.0000000000000D+00
   415  4.1400000000000D+00  0.0000000000000D+00  0.0000000000000D+00
   416  4.1500000000000D+00  0.0000000000000D+00  0.0000000000000D+00
   417  4.1600000000000D+00  0.0000000000000D+00  0.0000000000000D+00
   418  4.1700000000000D+00  0.0000000000000D+00  0.0000000000000D+00
   419  4.1800000000000D+00  0.0000000000000D+00  0.0000000000000D+00
   420  4.1900000000000D+00  0.0000000000000D+00  0.0000000000000D+00
   421  4.2000000000000D+00  0.0000000000000D+00  0.0000000000000D+00
   422  4.2100000000000D+00  0.0000000000000D+00  0.0000000000000D+00
   423  4.2200000000000D+00  0.0000000000000D+00  0.0000000000000D+00