F     ONCVPSP  r_core=  1.31  1.60  1.60
9.0000      7.0000      161019    zatom,zion,pspd
8 -116133   2     4   600     0    pspcod,pspxc,lmax,lloc,mmax,r2well
5.99000000  4.00000000  0.00000000    rchrg fchrg qchrg
2     2     1     0     0    nproj
1                 extension_switch
0                         3.0943123146629D+00 -1.8454477384230D-01
1  0.0000000000000D+00 -4.9760113807196D-09 -3.8938841318004D-08
2  1.0000000000000D-02  9.5042326728934D-02  5.8440140375941D-02
3  2.0000000000000D-02  1.8964364850606D-01  1.1537901778998D-01
4  3.0000000000000D-02  2.8336770090848D-01  1.6934584251750D-01
5  4.0000000000000D-02  3.7578762532624D-01  2.1893020413122D-01
6  5.0000000000000D-02  4.6649048505665D-01  2.6281085338419D-01
7  6.0000000000000D-02  5.5508156084126D-01  2.9978282309165D-01
8  7.0000000000000D-02  6.4118835828783D-01  3.2878238100723D-01
9  8.0000000000000D-02  7.2446426459544D-01  3.4890934662805D-01
10  9.0000000000000D-02  8.0459179805693D-01  3.5944635123624D-01
11  1.0000000000000D-01  8.8128540084212D-01  3.5987467545872D-01
12  1.1000000000000D-01  9.5429373344737D-01  3.4988636023361D-01
13  1.2000000000000D-01  1.0234014377927D+00  3.2939235422584D-01
14  1.3000000000000D-01  1.0884303451088D+00  2.9852653225152D-01
15  1.4000000000000D-01  1.1492401143214D+00  2.5764549388912D-01
16  1.5000000000000D-01  1.2057282964450D+00  2.0732412785638D-01
17  1.6000000000000D-01  1.2578298303678D+00  1.4834700456371D-01
18  1.7000000000000D-01  1.3055159851760D+00  8.1695735157003D-02
19  1.8000000000000D-01  1.3487927736542D+00  8.5325089867352D-03
20  1.9000000000000D-01  1.3876988706455D+00 -6.9819908521522D-02
21  2.0000000000000D-01  1.4223030784011D+00 -1.5190137041968D-01
22  2.1000000000000D-01  1.4527013887487D+00 -2.3614032883791D-01
23  2.2000000000000D-01  1.4790136987180D+00 -3.2088214312741D-01
24  2.3000000000000D-01  1.5013802420764D+00 -4.0441921291548D-01
25  2.4000000000000D-01  1.5199578039256D+00 -4.8502239813224D-01
26  2.5000000000000D-01  1.5349157890267D+00 -5.6097316222050D-01
27  2.6000000000000D-01  1.5464322167793D+00 -6.3059585884202D-01
28  2.7000000000000D-01  1.5546897167465D+00 -6.9228957675736D-01
29  2.8000000000000D-01  1.5598715982754D+00 -7.4455896231698D-01
30  2.9000000000000D-01  1.5621580661073D+00 -7.8604345410881D-01
31  3.0000000000000D-01  1.5617226509427D+00 -8.1554438953298D-01
32  3.1000000000000D-01  1.5587289197655D+00 -8.3204947800875D-01
33  3.2000000000000D-01  1.5533275254104D+00 -8.3475417958033D-01
34  3.3000000000000D-01  1.5456536484765D+00 -8.2307958013863D-01
35  3.4000000000000D-01  1.5358248773503D+00 -7.9668641441782D-01
36  3.5000000000000D-01  1.5239395639369D+00 -7.5548495433606D-01
37  3.6000000000000D-01  1.5100756838524D+00 -6.9964055198706D-01
38  3.7000000000000D-01  1.4942902204535D+00 -6.2957470240173D-01
39  3.8000000000000D-01  1.4766190823415D+00 -5.4596156978773D-01
40  3.9000000000000D-01  1.4570775540495D+00 -4.4972000092870D-01
41  4.0000000000000D-01  1.4356612696761D+00 -3.4200112939685D-01
42  4.1000000000000D-01  1.4123476894435D+00 -2.2417175279484D-01
43  4.2000000000000D-01  1.3870980497100D+00 -9.7793741001942D-02
44  4.3000000000000D-01  1.3598597480205D+00  3.5400194979982D-02
45  4.4000000000000D-01  1.3305691164989D+00  1.7353397778316D-01
46  4.5000000000000D-01  1.2991545294189D+00  3.1461842664017D-01
47  4.6000000000000D-01  1.2655397842703D+00  4.5658380124872D-01
48  4.7000000000000D-01  1.2296476901910D+00  5.9731407593539D-01
49  4.8000000000000D-01  1.1914037933544D+00  7.3468235965324D-01
50  4.9000000000000D-01  1.1507401658713D+00  8.6658685354720D-01
51  5.0000000000000D-01  1.1075991830473D+00  9.9098672454734D-01
52  5.1000000000000D-01  1.0619372134595D+00  1.1059372709814D+00
53  5.2000000000000D-01  1.0137281473015D+00  1.2096237646347D+00
54  5.3000000000000D-01  9.6296669077590D-01  1.3003933729425D+00
55  5.4000000000000D-01  9.0967135795121D-01  1.3767845947256D+00
56  5.5000000000000D-01  8.5388709640269D-01  1.4375536827520D+00
57  5.6000000000000D-01  7.9568748901749D-01  1.4816975755609D+00
58  5.7000000000000D-01  7.3517648148851D-01  1.5084729188216D+00
59  5.8000000000000D-01  6.7248959311186D-01  1.5174108219122D+00
60  5.9000000000000D-01  6.0779457740098D-01  1.5083270672895D+00
61  6.0000000000000D-01  5.4129150859730D-01  1.4813275674640D+00
62  6.1000000000000D-01  4.7321228021380D-01  1.4368089455581D+00
63  6.2000000000000D-01  4.0381951210787D-01  1.3754541990270D+00
64  6.3000000000000D-01  3.3340487312754D-01  1.2982234912310D+00
65  6.4000000000000D-01  2.6228683678955D-01  1.2063401995935D+00
66  6.5000000000000D-01  1.9080789773019D-01  1.1012724320883D+00
67  6.6000000000000D-01  1.1933128647679D-01  9.8471030300411D-01
68  6.7000000000000D-01  4.8237229294990D-02  8.5853933335989D-01
69  6.8000000000000D-01 -2.2081191604908D-02  7.2481041034745D-01
70  6.9000000000000D-01 -9.1222514675425D-02  5.8570680132596D-01
71  7.0000000000000D-01 -1.5878164308517D-01  4.4350877102707D-01
72  7.1000000000000D-01 -2.2435478148718D-01  3.0055639436052D-01
73  7.2000000000000D-01 -2.8754448665548D-01  1.5921119098813D-01
74  7.3000000000000D-01 -3.4796475039583D-01  2.1817230673691D-02
75  7.4000000000000D-01 -4.0524603176785D-01 -1.0933762974567D-01
76  7.5000000000000D-01 -4.5904015572949D-01 -2.3205971661067D-01
77  7.6000000000000D-01 -5.0902499680304D-01 -3.4428606674456D-01
78  7.7000000000000D-01 -5.5490886929877D-01 -4.4411888420131D-01
79  7.8000000000000D-01 -5.9643454991338D-01 -5.2985733214954D-01
80  7.9000000000000D-01 -6.3338286412044D-01 -6.0002610942995D-01
81  8.0000000000000D-01 -6.6557577457972D-01 -6.5340031483810D-01
82  8.1000000000000D-01 -6.9287891770241D-01 -6.8902616450466D-01
83  8.2000000000000D-01 -7.1520354338727D-01 -7.0623719780947D-01
84  8.3000000000000D-01 -7.3250782263816D-01 -7.0466568388023D-01
85  8.4000000000000D-01 -7.4479749812100D-01 -6.8424902257313D-01
86  8.5000000000000D-01 -7.5212586354077D-01 -6.4523101950192D-01
87  8.6000000000000D-01 -7.5459306883093D-01 -5.8815800268790D-01
88  8.7000000000000D-01 -7.5234475935544D-01 -5.1386983721995D-01
89  8.8000000000000D-01 -7.4557006843407D-01 -4.2348598238526D-01
90  8.9000000000000D-01 -7.3449899332091D-01 -3.1838682152465D-01
91  9.0000000000000D-01 -7.1939919510468D-01 -2.0019057686934D-01
92  9.1000000000000D-01 -7.0057227267652D-01 -7.0726198384689D-02
93  9.2000000000000D-01 -6.7834956975605D-01  6.7997314173546D-02
94  9.3000000000000D-01 -6.5308758182308D-01  2.1382463444249D-01
95  9.4000000000000D-01 -6.2516303653104D-01  3.6449030293287D-01
96  9.5000000000000D-01 -5.9496772665835D-01  5.1765677237697D-01
97  9.6000000000000D-01 -5.6290317878852D-01  6.7095365371265D-01
98  9.7000000000000D-01 -5.2937524362555D-01  8.2201748993183D-01
99  9.8000000000000D-01 -4.9478869505021D-01  9.6853137553147D-01
100  9.9000000000000D-01 -4.5954192484340D-01  1.1082637407581D+00
101  1.0000000000000D+00 -4.2402181816809D-01  1.2391056344427D+00
102  1.0100000000000D+00 -3.8859889171186D-01  1.3591058645834D+00
103  1.0200000000000D+00 -3.5362277174203D-01  1.4665033927996D+00
104  1.0300000000000D+00 -3.1941808338948D-01  1.5597564259548D+00
105  1.0400000000000D+00 -2.8628081501654D-01  1.6375677075305D+00
106  1.0500000000000D+00 -2.5447521367712D-01  1.6989055736795D+00
107  1.0600000000000D+00 -2.2423125799102D-01  1.7430204158388D+00
108  1.0700000000000D+00 -1.9574274468459D-01  1.7694562717625D+00
109  1.0800000000000D+00 -1.6916601455265D-01  1.7780573502066D+00
110  1.0900000000000D+00 -1.4461933180752D-01  1.7689693881026D+00
111  1.1000000000000D+00 -1.2218292049546D-01  1.7426358207158D+00
112  1.1100000000000D+00 -1.0189964911247D-01  1.6997888448801D+00
113  1.1200000000000D+00 -8.3776343559750D-02  1.6414355426150D+00
114  1.1300000000000D+00 -6.7785697520495D-02  1.5688393201382D+00
115  1.1400000000000D+00 -5.3868739256365D-02  1.4834969972259D+00
116  1.1500000000000D+00 -4.1937804218428D-02  1.3871119579835D+00
117  1.1600000000000D+00 -3.1879952994142D-02  1.2815638522558D+00
118  1.1700000000000D+00 -2.3560767219134D-02  1.1688753913824D+00
119  1.1800000000000D+00 -1.6828450008303D-02  1.0511768299917D+00
120  1.1900000000000D+00 -1.1518151020628D-02  9.3066877631307D-01
121  1.2000000000000D+00 -7.4564327505787D-03  8.0958400104350D-01
122  1.2100000000000D+00 -4.4657931280322D-03  6.9014892631122D-01
123  1.2200000000000D+00 -2.3691572061070D-03  5.7454549586945D-01
124  1.2300000000000D+00 -9.9425233198928D-04  4.6487410770970D-01
125  1.2400000000000D+00 -1.7777948843517D-04  3.6311834156673D-01
126  1.2500000000000D+00  2.3065907508665D-04  2.7111150827165D-01
127  1.2600000000000D+00  3.6509544742002D-04  1.9050782321645D-01
128  1.2700000000000D+00  3.4020661832296D-04  1.2279577751172D-01
129  1.2800000000000D+00  2.4665851424354D-04  6.8996108143963D-02
130  1.2900000000000D+00  1.5067198326441D-04  3.0147301395253D-02
131  1.3000000000000D+00  1.0080813726702D-04  8.0750907598121D-03
132  1.3100000000000D+00  7.4325397983786D-05 -1.0841059897213D-05
133  1.3200000000000D+00  2.2713889418405D-05 -6.0686274037439D-04
134  1.3300000000000D+00 -6.9645860598001D-06  2.5204195505140D-04
135  1.3400000000000D+00 -1.1786795502500D-06  5.0039255315525D-05
136  1.3500000000000D+00  1.6293189025864D-06 -4.8560813776821D-05
137  1.3600000000000D+00 -1.2791925568083D-07 -3.1507482220474D-07
138  1.3700000000000D+00 -1.2640277683867D-07 -3.1133961987709D-07
139  1.3800000000000D+00  0.0000000000000D+00  0.0000000000000D+00
140  1.3900000000000D+00  0.0000000000000D+00  0.0000000000000D+00
141  1.4000000000000D+00  0.0000000000000D+00  0.0000000000000D+00
142  1.4100000000000D+00  0.0000000000000D+00  0.0000000000000D+00
143  1.4200000000000D+00  0.0000000000000D+00  0.0000000000000D+00
144  1.4300000000000D+00  0.0000000000000D+00  0.0000000000000D+00
145  1.4400000000000D+00  0.0000000000000D+00  0.0000000000000D+00
146  1.4500000000000D+00  0.0000000000000D+00  0.0000000000000D+00
147  1.4600000000000D+00  0.0000000000000D+00  0.0000000000000D+00
148  1.4700000000000D+00  0.0000000000000D+00  0.0000000000000D+00
149  1.4800000000000D+00  0.0000000000000D+00  0.0000000000000D+00
150  1.4900000000000D+00  0.0000000000000D+00  0.0000000000000D+00
151  1.5000000000000D+00  0.0000000000000D+00  0.0000000000000D+00
152  1.5100000000000D+00  0.0000000000000D+00  0.0000000000000D+00
153  1.5200000000000D+00  0.0000000000000D+00  0.0000000000000D+00
154  1.5300000000000D+00  0.0000000000000D+00  0.0000000000000D+00
155  1.5400000000000D+00  0.0000000000000D+00  0.0000000000000D+00
156  1.5500000000000D+00  0.0000000000000D+00  0.0000000000000D+00
157  1.5600000000000D+00  0.0000000000000D+00  0.0000000000000D+00
158  1.5700000000000D+00  0.0000000000000D+00  0.0000000000000D+00
159  1.5800000000000D+00  0.0000000000000D+00  0.0000000000000D+00
160  1.5900000000000D+00  0.0000000000000D+00  0.0000000000000D+00
161  1.6000000000000D+00  0.0000000000000D+00  0.0000000000000D+00
162  1.6100000000000D+00  0.0000000000000D+00  0.0000000000000D+00
163  1.6200000000000D+00  0.0000000000000D+00  0.0000000000000D+00
164  1.6300000000000D+00  0.0000000000000D+00  0.0000000000000D+00
165  1.6400000000000D+00  0.0000000000000D+00  0.0000000000000D+00
166  1.6500000000000D+00  0.0000000000000D+00  0.0000000000000D+00
167  1.6600000000000D+00  0.0000000000000D+00  0.0000000000000D+00
168  1.6700000000000D+00  0.0000000000000D+00  0.0000000000000D+00
169  1.6800000000000D+00  0.0000000000000D+00  0.0000000000000D+00
170  1.6900000000000D+00  0.0000000000000D+00  0.0000000000000D+00
171  1.7000000000000D+00  0.0000000000000D+00  0.0000000000000D+00
172  1.7100000000000D+00  0.0000000000000D+00  0.0000000000000D+00
173  1.7200000000000D+00  0.0000000000000D+00  0.0000000000000D+00
174  1.7300000000000D+00  0.0000000000000D+00  0.0000000000000D+00
175  1.7400000000000D+00  0.0000000000000D+00  0.0000000000000D+00
176  1.7500000000000D+00  0.0000000000000D+00  0.0000000000000D+00
177  1.7600000000000D+00  0.0000000000000D+00  0.0000000000000D+00
178  1.7700000000000D+00  0.0000000000000D+00  0.0000000000000D+00
179  1.7800000000000D+00  0.0000000000000D+00  0.0000000000000D+00
180  1.7900000000000D+00  0.0000000000000D+00  0.0000000000000D+00
181  1.8000000000000D+00  0.0000000000000D+00  0.0000000000000D+00
182  1.8100000000000D+00  0.0000000000000D+00  0.0000000000000D+00
183  1.8200000000000D+00  0.0000000000000D+00  0.0000000000000D+00
184  1.8300000000000D+00  0.0000000000000D+00  0.0000000000000D+00
185  1.8400000000000D+00  0.0000000000000D+00  0.0000000000000D+00
186  1.8500000000000D+00  0.0000000000000D+00  0.0000000000000D+00
187  1.8600000000000D+00  0.0000000000000D+00  0.0000000000000D+00
188  1.8700000000000D+00  0.0000000000000D+00  0.0000000000000D+00
189  1.8800000000000D+00  0.0000000000000D+00  0.0000000000000D+00
190  1.8900000000000D+00  0.0000000000000D+00  0.0000000000000D+00
191  1.9000000000000D+00  0.0000000000000D+00  0.0000000000000D+00
192  1.9100000000000D+00  0.0000000000000D+00  0.0000000000000D+00
193  1.9200000000000D+00  0.0000000000000D+00  0.0000000000000D+00
194  1.9300000000000D+00  0.0000000000000D+00  0.0000000000000D+00
195  1.9400000000000D+00  0.0000000000000D+00  0.0000000000000D+00
196  1.9500000000000D+00  0.0000000000000D+00  0.0000000000000D+00
197  1.9600000000000D+00  0.0000000000000D+00  0.0000000000000D+00
198  1.9700000000000D+00  0.0000000000000D+00  0.0000000000000D+00
199  1.9800000000000D+00  0.0000000000000D+00  0.0000000000000D+00
200  1.9900000000000D+00  0.0000000000000D+00  0.0000000000000D+00
201  2.0000000000000D+00  0.0000000000000D+00  0.0000000000000D+00
202  2.0100000000000D+00  0.0000000000000D+00  0.0000000000000D+00
203  2.0200000000000D+00  0.0000000000000D+00  0.0000000000000D+00
204  2.0300000000000D+00  0.0000000000000D+00  0.0000000000000D+00
205  2.0400000000000D+00  0.0000000000000D+00  0.0000000000000D+00
206  2.0500000000000D+00  0.0000000000000D+00  0.0000000000000D+00
207  2.0600000000000D+00  0.0000000000000D+00  0.0000000000000D+00
208  2.0700000000000D+00  0.0000000000000D+00  0.0000000000000D+00
209  2.0800000000000D+00  0.0000000000000D+00  0.0000000000000D+00
210  2.0900000000000D+00  0.0000000000000D+00  0.0000000000000D+00
211  2.1000000000000D+00  0.0000000000000D+00  0.0000000000000D+00
212  2.1100000000000D+00  0.0000000000000D+00  0.0000000000000D+00
213  2.1200000000000D+00  0.0000000000000D+00  0.0000000000000D+00
214  2.1300000000000D+00  0.0000000000000D+00  0.0000000000000D+00
215  2.1400000000000D+00  0.0000000000000D+00  0.0000000000000D+00
216  2.1500000000000D+00  0.0000000000000D+00  0.0000000000000D+00
217  2.1600000000000D+00  0.0000000000000D+00  0.0000000000000D+00
218  2.1700000000000D+00  0.0000000000000D+00  0.0000000000000D+00
219  2.1800000000000D+00  0.0000000000000D+00  0.0000000000000D+00
220  2.1900000000000D+00  0.0000000000000D+00  0.0000000000000D+00
221  2.2000000000000D+00  0.0000000000000D+00  0.0000000000000D+00
222  2.2100000000000D+00  0.0000000000000D+00  0.0000000000000D+00
223  2.2200000000000D+00  0.0000000000000D+00  0.0000000000000D+00
224  2.2300000000000D+00  0.0000000000000D+00  0.0000000000000D+00
225  2.2400000000000D+00  0.0000000000000D+00  0.0000000000000D+00
226  2.2500000000000D+00  0.0000000000000D+00  0.0000000000000D+00
227  2.2600000000000D+00  0.0000000000000D+00  0.0000000000000D+00
228  2.2700000000000D+00  0.0000000000000D+00  0.0000000000000D+00
229  2.2800000000000D+00  0.0000000000000D+00  0.0000000000000D+00
230  2.2900000000000D+00  0.0000000000000D+00  0.0000000000000D+00
231  2.3000000000000D+00  0.0000000000000D+00  0.0000000000000D+00
232  2.3100000000000D+00  0.0000000000000D+00  0.0000000000000D+00
233  2.3200000000000D+00  0.0000000000000D+00  0.0000000000000D+00
234  2.3300000000000D+00  0.0000000000000D+00  0.0000000000000D+00
235  2.3400000000000D+00  0.0000000000000D+00  0.0000000000000D+00
236  2.3500000000000D+00  0.0000000000000D+00  0.0000000000000D+00
237  2.3600000000000D+00  0.0000000000000D+00  0.0000000000000D+00
238  2.3700000000000D+00  0.0000000000000D+00  0.0000000000000D+00
239  2.3800000000000D+00  0.0000000000000D+00  0.0000000000000D+00
240  2.3900000000000D+00  0.0000000000000D+00  0.0000000000000D+00
241  2.4000000000000D+00  0.0000000000000D+00  0.0000000000000D+00
242  2.4100000000000D+00  0.0000000000000D+00  0.0000000000000D+00
243  2.4200000000000D+00  0.0000000000000D+00  0.0000000000000D+00
244  2.4300000000000D+00  0.0000000000000D+00  0.0000000000000D+00
245  2.4400000000000D+00  0.0000000000000D+00  0.0000000000000D+00
246  2.4500000000000D+00  0.0000000000000D+00  0.0000000000000D+00
247  2.4600000000000D+00  0.0000000000000D+00  0.0000000000000D+00
248  2.4700000000000D+00  0.0000000000000D+00  0.0000000000000D+00
249  2.4800000000000D+00  0.0000000000000D+00  0.0000000000000D+00
250  2.4900000000000D+00  0.0000000000000D+00  0.0000000000000D+00
251  2.5000000000000D+00  0.0000000000000D+00  0.0000000000000D+00
252  2.5100000000000D+00  0.0000000000000D+00  0.0000000000000D+00
253  2.5200000000000D+00  0.0000000000000D+00  0.0000000000000D+00
254  2.5300000000000D+00  0.0000000000000D+00  0.0000000000000D+00
255  2.5400000000000D+00  0.0000000000000D+00  0.0000000000000D+00
256  2.5500000000000D+00  0.0000000000000D+00  0.0000000000000D+00
257  2.5600000000000D+00  0.0000000000000D+00  0.0000000000000D+00
258  2.5700000000000D+00  0.0000000000000D+00  0.0000000000000D+00
259  2.5800000000000D+00  0.0000000000000D+00  0.0000000000000D+00
260  2.5900000000000D+00  0.0000000000000D+00  0.0000000000000D+00
261  2.6000000000000D+00  0.0000000000000D+00  0.0000000000000D+00
262  2.6100000000000D+00  0.0000000000000D+00  0.0000000000000D+00
263  2.6200000000000D+00  0.0000000000000D+00  0.0000000000000D+00
264  2.6300000000000D+00  0.0000000000000D+00  0.0000000000000D+00
265  2.6400000000000D+00  0.0000000000000D+00  0.0000000000000D+00
266  2.6500000000000D+00  0.0000000000000D+00  0.0000000000000D+00
267  2.6600000000000D+00  0.0000000000000D+00  0.0000000000000D+00
268  2.6700000000000D+00  0.0000000000000D+00  0.0000000000000D+00
269  2.6800000000000D+00  0.0000000000000D+00  0.0000000000000D+00
270  2.6900000000000D+00  0.0000000000000D+00  0.0000000000000D+00
271  2.7000000000000D+00  0.0000000000000D+00  0.0000000000000D+00
272  2.7100000000000D+00  0.0000000000000D+00  0.0000000000000D+00
273  2.7200000000000D+00  0.0000000000000D+00  0.0000000000000D+00
274  2.7300000000000D+00  0.0000000000000D+00  0.0000000000000D+00
275  2.7400000000000D+00  0.0000000000000D+00  0.0000000000000D+00
276  2.7500000000000D+00  0.0000000000000D+00  0.0000000000000D+00
277  2.7600000000000D+00  0.0000000000000D+00  0.0000000000000D+00
278  2.7700000000000D+00  0.0000000000000D+00  0.0000000000000D+00
279  2.7800000000000D+00  0.0000000000000D+00  0.0000000000000D+00
280  2.7900000000000D+00  0.0000000000000D+00  0.0000000000000D+00
281  2.8000000000000D+00  0.0000000000000D+00  0.0000000000000D+00
282  2.8100000000000D+00  0.0000000000000D+00  0.0000000000000D+00
283  2.8200000000000D+00  0.0000000000000D+00  0.0000000000000D+00
284  2.8300000000000D+00  0.0000000000000D+00  0.0000000000000D+00
285  2.8400000000000D+00  0.0000000000000D+00  0.0000000000000D+00
286  2.8500000000000D+00  0.0000000000000D+00  0.0000000000000D+00
287  2.8600000000000D+00  0.0000000000000D+00  0.0000000000000D+00
288  2.8700000000000D+00  0.0000000000000D+00  0.0000000000000D+00
289  2.8800000000000D+00  0.0000000000000D+00  0.0000000000000D+00
290  2.8900000000000D+00  0.0000000000000D+00  0.0000000000000D+00
291  2.9000000000000D+00  0.0000000000000D+00  0.0000000000000D+00
292  2.9100000000000D+00  0.0000000000000D+00  0.0000000000000D+00
293  2.9200000000000D+00  0.0000000000000D+00  0.0000000000000D+00
294  2.9300000000000D+00  0.0000000000000D+00  0.0000000000000D+00
295  2.9400000000000D+00  0.0000000000000D+00  0.0000000000000D+00
296  2.9500000000000D+00  0.0000000000000D+00  0.0000000000000D+00
297  2.9600000000000D+00  0.0000000000000D+00  0.0000000000000D+00
298  2.9700000000000D+00  0.0000000000000D+00  0.0000000000000D+00
299  2.9800000000000D+00  0.0000000000000D+00  0.0000000000000D+00
300  2.9900000000000D+00  0.0000000000000D+00  0.0000000000000D+00
301  3.0000000000000D+00  0.0000000000000D+00  0.0000000000000D+00
302  3.0100000000000D+00  0.0000000000000D+00  0.0000000000000D+00
303  3.0200000000000D+00  0.0000000000000D+00  0.0000000000000D+00
304  3.0300000000000D+00  0.0000000000000D+00  0.0000000000000D+00
305  3.0400000000000D+00  0.0000000000000D+00  0.0000000000000D+00
306  3.0500000000000D+00  0.0000000000000D+00  0.0000000000000D+00
307  3.0600000000000D+00  0.0000000000000D+00  0.0000000000000D+00
308  3.0700000000000D+00  0.0000000000000D+00  0.0000000000000D+00
309  3.0800000000000D+00  0.0000000000000D+00  0.0000000000000D+00
310  3.0900000000000D+00  0.0000000000000D+00  0.0000000000000D+00
311  3.1000000000000D+00  0.0000000000000D+00  0.0000000000000D+00
312  3.1100000000000D+00  0.0000000000000D+00  0.0000000000000D+00
313  3.1200000000000D+00  0.0000000000000D+00  0.0000000000000D+00
314  3.1300000000000D+00  0.0000000000000D+00  0.0000000000000D+00
315  3.1400000000000D+00  0.0000000000000D+00  0.0000000000000D+00
316  3.1500000000000D+00  0.0000000000000D+00  0.0000000000000D+00
317  3.1600000000000D+00  0.0000000000000D+00  0.0000000000000D+00
318  3.1700000000000D+00  0.0000000000000D+00  0.0000000000000D+00
319  3.1800000000000D+00  0.0000000000000D+00  0.0000000000000D+00
320  3.1900000000000D+00  0.0000000000000D+00  0.0000000000000D+00
321  3.2000000000000D+00  0.0000000000000D+00  0.0000000000000D+00
322  3.2100000000000D+00  0.0000000000000D+00  0.0000000000000D+00
323  3.2200000000000D+00  0.0000000000000D+00  0.0000000000000D+00
324  3.2300000000000D+00  0.0000000000000D+00  0.0000000000000D+00
325  3.2400000000000D+00  0.0000000000000D+00  0.0000000000000D+00
326  3.2500000000000D+00  0.0000000000000D+00  0.0000000000000D+00
327  3.2600000000000D+00  0.0000000000000D+00  0.0000000000000D+00
328  3.2700000000000D+00  0.0000000000000D+00  0.0000000000000D+00
329  3.2800000000000D+00  0.0000000000000D+00  0.0000000000000D+00
330  3.2900000000000D+00  0.0000000000000D+00  0.0000000000000D+00
331  3.3000000000000D+00  0.0000000000000D+00  0.0000000000000D+00
332  3.3100000000000D+00  0.0000000000000D+00  0.0000000000000D+00
333  3.3200000000000D+00  0.0000000000000D+00  0.0000000000000D+00
334  3.3300000000000D+00  0.0000000000000D+00  0.0000000000000D+00
335  3.3400000000000D+00  0.0000000000000D+00  0.0000000000000D+00
336  3.3500000000000D+00  0.0000000000000D+00  0.0000000000000D+00
337  3.3600000000000D+00  0.0000000000000D+00  0.0000000000000D+00
338  3.3700000000000D+00  0.0000000000000D+00  0.0000000000000D+00
339  3.3800000000000D+00  0.0000000000000D+00  0.0000000000000D+00
340  3.3900000000000D+00  0.0000000000000D+00  0.0000000000000D+00
341  3.4000000000000D+00  0.0000000000000D+00  0.0000000000000D+00
342  3.4100000000000D+00  0.0000000000000D+00  0.0000000000000D+00
343  3.4200000000000D+00  0.0000000000000D+00  0.0000000000000D+00
344  3.4300000000000D+00  0.0000000000000D+00  0.0000000000000D+00
345  3.4400000000000D+00  0.0000000000000D+00  0.0000000000000D+00
346  3.4500000000000D+00  0.0000000000000D+00  0.0000000000000D+00
347  3.4600000000000D+00  0.0000000000000D+00  0.0000000000000D+00
348  3.4700000000000D+00  0.0000000000000D+00  0.0000000000000D+00
349  3.4800000000000D+00  0.0000000000000D+00  0.0000000000000D+00
350  3.4900000000000D+00  0.0000000000000D+00  0.0000000000000D+00
351  3.5000000000000D+00  0.0000000000000D+00  0.0000000000000D+00
352  3.5100000000000D+00  0.0000000000000D+00  0.0000000000000D+00
353  3.5200000000000D+00  0.0000000000000D+00  0.0000000000000D+00
354  3.5300000000000D+00  0.0000000000000D+00  0.0000000000000D+00
355  3.5400000000000D+00  0.0000000000000D+00  0.0000000000000D+00
356  3.5500000000000D+00  0.0000000000000D+00  0.0000000000000D+00
357  3.5600000000000D+00  0.0000000000000D+00  0.0000000000000D+00
358  3.5700000000000D+00  0.0000000000000D+00  0.0000000000000D+00
359  3.5800000000000D+00  0.0000000000000D+00  0.0000000000000D+00
360  3.5900000000000D+00  0.0000000000000D+00  0.0000000000000D+00
361  3.6000000000000D+00  0.0000000000000D+00  0.0000000000000D+00
362  3.6100000000000D+00  0.0000000000000D+00  0.0000000000000D+00
363  3.6200000000000D+00  0.0000000000000D+00  0.0000000000000D+00
364  3.6300000000000D+00  0.0000000000000D+00  0.0000000000000D+00
365  3.6400000000000D+00  0.0000000000000D+00  0.0000000000000D+00
366  3.6500000000000D+00  0.0000000000000D+00  0.0000000000000D+00
367  3.6600000000000D+00  0.0000000000000D+00  0.0000000000000D+00
368  3.6700000000000D+00  0.0000000000000D+00  0.0000000000000D+00
369  3.6800000000000D+00  0.0000000000000D+00  0.0000000000000D+00
370  3.6900000000000D+00  0.0000000000000D+00  0.0000000000000D+00
371  3.7000000000000D+00  0.0000000000000D+00  0.0000000000000D+00
372  3.7100000000000D+00  0.0000000000000D+00  0.0000000000000D+00
373  3.7200000000000D+00  0.0000000000000D+00  0.0000000000000D+00
374  3.7300000000000D+00  0.0000000000000D+00  0.0000000000000D+00
375  3.7400000000000D+00  0.0000000000000D+00  0.0000000000000D+00
376  3.7500000000000D+00  0.0000000000000D+00  0.0000000000000D+00
377  3.7600000000000D+00  0.0000000000000D+00  0.0000000000000D+00
378  3.7700000000000D+00  0.0000000000000D+00  0.0000000000000D+00
379  3.7800000000000D+00  0.0000000000000D+00  0.0000000000000D+00
380  3.7900000000000D+00  0.0000000000000D+00  0.0000000000000D+00
381  3.8000000000000D+00  0.0000000000000D+00  0.0000000000000D+00
382  3.8100000000000D+00  0.0000000000000D+00  0.0000000000000D+00
383  3.8200000000000D+00  0.0000000000000D+00  0.0000000000000D+00
384  3.8300000000000D+00  0.0000000000000D+00  0.0000000000000D+00
385  3.8400000000000D+00  0.0000000000000D+00  0.0000000000000D+00
386  3.8500000000000D+00  0.0000000000000D+00  0.0000000000000D+00
387  3.8600000000000D+00  0.0000000000000D+00  0.0000000000000D+00
388  3.8700000000000D+00  0.0000000000000D+00  0.0000000000000D+00
389  3.8800000000000D+00  0.0000000000000D+00  0.0000000000000D+00
390  3.8900000000000D+00  0.0000000000000D+00  0.0000000000000D+00
391  3.9000000000000D+00  0.0000000000000D+00  0.0000000000000D+00
392  3.9100000000000D+00  0.0000000000000D+00  0.0000000000000D+00
393  3.9200000000000D+00  0.0000000000000D+00  0.0000000000000D+00
394  3.9300000000000D+00  0.0000000000000D+00  0.0000000000000D+00
395  3.9400000000000D+00  0.0000000000000D+00  0.0000000000000D+00
396  3.9500000000000D+00  0.0000000000000D+00  0.0000000000000D+00
397  3.9600000000000D+00  0.0000000000000D+00  0.0000000000000D+00
398  3.9700000000000D+00  0.0000000000000D+00  0.0000000000000D+00
399  3.9800000000000D+00  0.0000000000000D+00  0.0000000000000D+00
400  3.9900000000000D+00  0.0000000000000D+00  0.0000000000000D+00
401  4.0000000000000D+00  0.0000000000000D+00  0.0000000000000D+00
402  4.0100000000000D+00  0.0000000000000D+00  0.0000000000000D+00
403  4.0200000000000D+00  0.0000000000000D+00  0.0000000000000D+00
404  4.0300000000000D+00  0.0000000000000D+00  0.0000000000000D+00
405  4.0400000000000D+00  0.0000000000000D+00  0.0000000000000D+00
406  4.0500000000000D+00  0.0000000000000D+00  0.0000000000000D+00
407  4.0600000000000D+00  0.0000000000000D+00  0.0000000000000D+00
408  4.0700000000000D+00  0.0000000000000D+00  0.0000000000000D+00
409  4.0800000000000D+00  0.0000000000000D+00  0.0000000000000D+00
410  4.0900000000000D+00  0.0000000000000D+00  0.0000000000000D+00
411  4.1000000000000D+00  0.0000000000000D+00  0.0000000000000D+00
412  4.1100000000000D+00  0.0000000000000D+00  0.0000000000000D+00
413  4.1200000000000D+00  0.0000000000000D+00  0.0000000000000D+00
414  4.1300000000000D+00  0.0000000000000D+00  0.0000000000000D+00
415  4.1400000000000D+00  0.0000000000000D+00  0.0000000000000D+00
416  4.1500000000000D+00  0.0000000000000D+00  0.0000000000000D+00
417  4.1600000000000D+00  0.0000000000000D+00  0.0000000000000D+00
418  4.1700000000000D+00  0.0000000000000D+00  0.0000000000000D+00
419  4.1800000000000D+00  0.0000000000000D+00  0.0000000000000D+00
420  4.1900000000000D+00  0.0000000000000D+00  0.0000000000000D+00
421  4.2000000000000D+00  0.0000000000000D+00  0.0000000000000D+00
422  4.2100000000000D+00  0.0000000000000D+00  0.0000000000000D+00
423  4.2200000000000D+00  0.0000000000000D+00  0.0000000000000D+00
424  4.2300000000000D+00  0.0000000000000D+00  0.0000000000000D+00
425  4.2400000000000D+00  0.0000000000000D+00  0.0000000000000D+00
426  4.2500000000000D+00  0.0000000000000D+00  0.0000000000000D+00
427  4.2600000000000D+00  0.0000000000000D+00  0.0000000000000D+00
428  4.2700000000000D+00  0.0000000000000D+00  0.0000000000000D+00
429  4.2800000000000D+00  0.0000000000000D+00  0.0000000000000D+00
430  4.2900000000000D+00  0.0000000000000D+00  0.0000000000000D+00
431  4.3000000000000D+00  0.0000000000000D+00  0.0000000000000D+00
432  4.3100000000000D+00  0.0000000000000D+00  0.0000000000000D+00
433  4.3200000000000D+00  0.0000000000000D+00  0.0000000000000D+00
434  4.3300000000000D+00  0.0000000000000D+00  0.0000000000000D+00
435  4.3400000000000D+00  0.0000000000000D+00  0.0000000000000D+00
436  4.3500000000000D+00  0.0000000000000D+00  0.0000000000000D+00
437  4.3600000000000D+00  0.0000000000000D+00  0.0000000000000D+00
438  4.3700000000000D+00  0.0000000000000D+00  0.0000000000000D+00
439  4.3800000000000D+00  0.0000000000000D+00  0.0000000000000D+00
440  4.3900000000000D+00  0.0000000000000D+00  0.0000000000000D+00
441  4.4000000000000D+00  0.0000000000000D+00  0.0000000000000D+00
442  4.4100000000000D+00  0.0000000000000D+00  0.0000000000000D+00
443  4.4200000000000D+00  0.0000000000000D+00  0.0000000000000D+00
444  4.4300000000000D+00  0.0000000000000D+00  0.0000000000000D+00