F     ONCVPSP  r_core=  1.31  1.60  1.26
9.0000      7.0000      161003    zatom,zion,pspd
8 -116133   2     4   600     0    pspcod,pspxc,lmax,lloc,mmax,r2well
5.99000000  4.00000000  0.00000000    rchrg fchrg qchrg
2     2     1     0     0    nproj
1                 extension_switch
0                         2.8732214078583D+00 -3.5781524740313D-01
1  0.0000000000000D+00 -6.7882922616391D-09 -4.2193777860522D-08
2  1.0000000000000D-02  9.2792796637288D-02  5.5590252280987D-02
3  2.0000000000000D-02  1.8509526967844D-01  1.0954034842588D-01
4  3.0000000000000D-02  2.7642322418718D-01  1.6024355742314D-01
5  4.0000000000000D-02  3.6630462049394D-01  2.0615938006995D-01
6  5.0000000000000D-02  4.5428539846989D-01  2.4584512980106D-01
7  6.0000000000000D-02  5.3993500270366D-01  2.7798570210550D-01
8  7.0000000000000D-02  6.2285151701326D-01  3.0142097928315D-01
9  8.0000000000000D-02  7.0266632351422D-01  3.1517035948667D-01
10  9.0000000000000D-02  7.7904820972647D-01  3.1845395033537D-01
11  1.0000000000000D-01  8.5170685679542D-01  3.1071002697678D-01
12  1.1000000000000D-01  9.2039565265890D-01  2.9160842126556D-01
13  1.2000000000000D-01  9.8491378572531D-01  2.6105958155763D-01
14  1.3000000000000D-01  1.0451075871362D+00  2.1921912020341D-01
15  1.4000000000000D-01  1.1008711027501D+00  1.6648774680537D-01
16  1.5000000000000D-01  1.1521458893774D+00  1.0350656825970D-01
17  1.6000000000000D-01  1.1989200432870D+00  3.1147820071214D-02
18  1.7000000000000D-01  1.2412264823545D+00 -4.9498824056110D-02
19  1.8000000000000D-01  1.2791405162041D+00 -1.3714413724848D-01
20  1.9000000000000D-01  1.3127767510768D+00 -2.3032111573138D-01
21  2.0000000000000D-01  1.3422853877279D+00 -3.2741027186121D-01
22  2.1000000000000D-01  1.3678479812076D+00 -4.2666800478656D-01
23  2.2000000000000D-01  1.3896727407296D+00 -5.2625755254474D-01
24  2.3000000000000D-01  1.4079894558181D+00 -6.2428198095570D-01
25  2.4000000000000D-01  1.4230441414004D+00 -7.1881862572341D-01
26  2.5000000000000D-01  1.4350934993688D+00 -8.0795437540502D-01
27  2.6000000000000D-01  1.4443992972819D+00 -8.8982116489477D-01
28  2.7000000000000D-01  1.4512227662573D+00 -9.6263104214078D-01
29  2.8000000000000D-01  1.4558191196928D+00 -1.0247101751214D+00
30  2.9000000000000D-01  1.4584322922531D+00 -1.0745311816162D+00
31  3.0000000000000D-01  1.4592899946036D+00 -1.1107431907752D+00
32  3.1000000000000D-01  1.4585991737282D+00 -1.1321990824904D+00
33  3.2000000000000D-01  1.4565419614353D+00 -1.1379793974962D+00
34  3.3000000000000D-01  1.4532721849489D+00 -1.1274124671717D+00
35  3.4000000000000D-01  1.4489125034604D+00 -1.1000903762513D+00
36  3.5000000000000D-01  1.4435522233445D+00 -1.0558804429580D+00
37  3.6000000000000D-01  1.4372458326162D+00 -9.9493197825246D-01
38  3.7000000000000D-01  1.4300122823378D+00 -9.1767816758348D-01
39  3.8000000000000D-01  1.4218350292906D+00 -8.2483300335683D-01
40  3.9000000000000D-01  1.4126628405503D+00 -7.1738328279561D-01
41  4.0000000000000D-01  1.4024113468748D+00 -5.9657577247323D-01
42  4.1000000000000D-01  1.3909653182743D+00 -4.6389972603214D-01
43  4.2000000000000D-01  1.3781816220260D+00 -3.2106502396347D-01
44  4.3000000000000D-01  1.3638928109460D+00 -1.6997628236753D-01
45  4.4000000000000D-01  1.3479112781565D+00 -1.2703349963460D-02
46  4.5000000000000D-01  1.3300339041021D+00  1.4855132201856D-01
47  4.6000000000000D-01  1.3100471123521D+00  3.1148789521660D-01
48  4.7000000000000D-01  1.2877322429447D+00  4.7374635490702D-01
49  4.8000000000000D-01  1.2628711458281D+00  6.3294508830886D-01
50  4.9000000000000D-01  1.2352518924414D+00  7.8672017534481D-01
51  5.0000000000000D-01  1.2046745007419D+00  9.3276472083752D-01
52  5.1000000000000D-01  1.1709565680798D+00  1.0688675527676D+00
53  5.2000000000000D-01  1.1339387072677D+00  1.1929506185910D+00
54  5.3000000000000D-01  1.0934896839787D+00  1.3031044306329D+00
55  5.4000000000000D-01  1.0495111581947D+00  1.3976209418972D+00
56  5.5000000000000D-01  1.0019419387442D+00  1.4750232749140D+00
57  5.6000000000000D-01  9.5076166789826D-01  1.5340917776063D+00
58  5.7000000000000D-01  8.9599386242793D-01  1.5738859409501D+00
59  5.8000000000000D-01  8.3770824827924D-01  1.5937617822734D+00
60  5.9000000000000D-01  7.7602233792725D-01  1.5933843742226D+00
61  6.0000000000000D-01  7.1110221232507D-01  1.5727352815293D+00
62  6.1000000000000D-01  6.4316248294216D-01  1.5321147542264D+00
63  6.2000000000000D-01  5.7246542343283D-01  1.4721386152953D+00
64  6.3000000000000D-01  4.9931927483818D-01  1.3937298718981D+00
65  6.4000000000000D-01  4.2407574246884D-01  1.2981051696075D+00
66  6.5000000000000D-01  3.4712671674632D-01  1.1867562984236D+00
67  6.6000000000000D-01  2.6890026383068D-01  1.0614270448979D+00
68  6.7000000000000D-01  1.8985594466262D-01  9.2408576532179D-01
69  6.8000000000000D-01  1.1047953299222D-01  7.7689412998550D-01
70  6.9000000000000D-01  3.1277213636884D-02  6.2217255536203D-01
71  7.0000000000000D-01 -4.7230648421690D-02  4.6236289952817D-01
72  7.1000000000000D-01 -1.2451606966685D-01  2.9998904470881D-01
73  7.2000000000000D-01 -2.0005023578222D-01  1.3761602891466D-01
74  7.3000000000000D-01 -2.7331040650177D-01 -2.2191584849989D-02
75  7.4000000000000D-01 -3.4378682604152D-01 -1.7691139847951D-01
76  7.5000000000000D-01 -4.1098952696352D-01 -3.2410422182181D-01
77  7.6000000000000D-01 -4.7445491660365D-01 -4.6145377238847D-01
78  7.7000000000000D-01 -5.3375203841883D-01 -5.8680435696875D-01
79  7.8000000000000D-01 -5.8848840565620D-01 -6.9819589366566D-01
80  7.9000000000000D-01 -6.3831531158099D-01 -7.9389567743155D-01
81  8.0000000000000D-01 -6.8293252898651D-01 -8.7242634714341D-01
82  8.1000000000000D-01 -7.2209232171064D-01 -9.3258957672520D-01
83  8.2000000000000D-01 -7.5560270222658D-01 -9.7348508568935D-01
84  8.3000000000000D-01 -7.8332988186706D-01 -9.9452464448178D-01
85  8.4000000000000D-01 -8.0519987366646D-01 -9.9544083579351D-01
86  8.5000000000000D-01 -8.2119922193190D-01 -9.7629042305994D-01
87  8.6000000000000D-01 -8.3137484723831D-01 -9.3745227014606D-01
88  8.7000000000000D-01 -8.3583301033069D-01 -8.7961985009191D-01
89  8.8000000000000D-01 -8.3473741315244D-01 -8.0378847413169D-01
90  8.9000000000000D-01 -8.2830646964482D-01 -7.1123746336654D-01
91  9.0000000000000D-01 -8.1680979282861D-01 -6.0350757286693D-01
92  9.1000000000000D-01 -8.0056395774190D-01 -4.8237406006835D-01
93  9.2000000000000D-01 -7.7992761183987D-01 -3.4981586465723D-01
94  9.3000000000000D-01 -7.5529601525296D-01 -2.0798143439114D-01
95  9.4000000000000D-01 -7.2709510265954D-01 -5.9151789267263D-02
96  9.5000000000000D-01 -6.9577516629431D-01  9.4298535886149D-02
97  9.6000000000000D-01 -6.6180426564885D-01  2.4994199381315D-01
98  9.7000000000000D-01 -6.2566147362509D-01  4.0533927091813D-01
99  9.8000000000000D-01 -5.8783007114358D-01  5.5808056362154D-01
100  9.9000000000000D-01 -5.4879080263350D-01  7.0582617102423D-01
101  1.0000000000000D+00 -5.0901530313628D-01  8.4634570308783D-01
102  1.0100000000000D+00 -4.6895980423753D-01  9.7755522818823D-01
103  1.0200000000000D+00 -4.2905922062892D-01  1.0975517207266D+00
104  1.0300000000000D+00 -3.8972171197867D-01  1.2046442171460D+00
105  1.0400000000000D+00 -3.5132380566239D-01  1.2973811491566D+00
106  1.0500000000000D+00 -3.1420615620238D-01  1.3745733868707D+00
107  1.0600000000000D+00 -2.7867000517715D-01  1.4353126037644D+00
108  1.0700000000000D+00 -2.4497439269614D-01  1.4789846580401D+00
109  1.0800000000000D+00 -2.1333415826673D-01  1.5052777713203D+00
110  1.0900000000000D+00 -1.8391875390069D-01  1.5141853828227D+00
111  1.1000000000000D+00 -1.5685187919278D-01  1.5060036421145D+00
112  1.1100000000000D+00 -1.3221193204603D-01  1.4813236073476D+00
113  1.1200000000000D+00 -1.1003325458878D-01  1.4410183069726D+00
114  1.1300000000000D+00 -9.0308139571102D-02  1.3862249146843D+00
115  1.1400000000000D+00 -7.2989549484114D-02  1.3183223711208D+00
116  1.1500000000000D+00 -5.7994488193370D-02  1.2389048656907D+00
117  1.1600000000000D+00 -4.5207951997810D-02  1.1497516741653D+00
118  1.1700000000000D+00 -3.4487377972335D-02  1.0527939052165D+00
119  1.1800000000000D+00 -2.5667499455652D-02  9.5007875982662D-01
120  1.1900000000000D+00 -1.8565510003952D-02  8.4373196141015D-01
121  1.2000000000000D+00 -1.2986432325394D-02  7.3591904420394D-01
122  1.2100000000000D+00 -8.7285864656932D-03  6.2880620050934D-01
123  1.2200000000000D+00 -5.5890484948464D-03  5.2452140738209D-01
124  1.2300000000000D+00 -3.3689921683605D-03  4.2511653809097D-01
125  1.2400000000000D+00 -1.8788062129032D-03  3.3253119128975D-01
126  1.2500000000000D+00 -9.4291866398355D-04  2.4855846193085D-01
127  1.2600000000000D+00 -4.0411633331869D-04  1.7481486116539D-01
128  1.2700000000000D+00 -1.2743650898066D-04  1.1274951573933D-01
129  1.2800000000000D+00 -4.3814945524716D-06  6.3367002833148D-02
130  1.2900000000000D+00  4.4399837113933D-05  2.7672251294331D-02
131  1.3000000000000D+00  7.2960713843748D-05  7.3742737817511D-03
132  1.3100000000000D+00  7.4442090408870D-05 -5.7669543594987D-05
133  1.3200000000000D+00  2.4781060150094D-05 -5.7374741156447D-04
134  1.3300000000000D+00 -7.8263050943661D-06  2.3674062647370D-04
135  1.3400000000000D+00 -1.3488243979762D-06  4.6872893965433D-05
136  1.3500000000000D+00  1.8015283644873D-06 -4.5777188161079D-05
137  1.3600000000000D+00 -1.2698301344217D-07 -2.0824078566854D-07
138  1.3700000000000D+00 -1.2547763372296D-07 -2.0577209755853D-07
139  1.3800000000000D+00  0.0000000000000D+00  0.0000000000000D+00
140  1.3900000000000D+00  0.0000000000000D+00  0.0000000000000D+00
141  1.4000000000000D+00  0.0000000000000D+00  0.0000000000000D+00
142  1.4100000000000D+00  0.0000000000000D+00  0.0000000000000D+00
143  1.4200000000000D+00  0.0000000000000D+00  0.0000000000000D+00
144  1.4300000000000D+00  0.0000000000000D+00  0.0000000000000D+00
145  1.4400000000000D+00  0.0000000000000D+00  0.0000000000000D+00
146  1.4500000000000D+00  0.0000000000000D+00  0.0000000000000D+00
147  1.4600000000000D+00  0.0000000000000D+00  0.0000000000000D+00
148  1.4700000000000D+00  0.0000000000000D+00  0.0000000000000D+00
149  1.4800000000000D+00  0.0000000000000D+00  0.0000000000000D+00
150  1.4900000000000D+00  0.0000000000000D+00  0.0000000000000D+00
151  1.5000000000000D+00  0.0000000000000D+00  0.0000000000000D+00
152  1.5100000000000D+00  0.0000000000000D+00  0.0000000000000D+00
153  1.5200000000000D+00  0.0000000000000D+00  0.0000000000000D+00
154  1.5300000000000D+00  0.0000000000000D+00  0.0000000000000D+00
155  1.5400000000000D+00  0.0000000000000D+00  0.0000000000000D+00
156  1.5500000000000D+00  0.0000000000000D+00  0.0000000000000D+00
157  1.5600000000000D+00  0.0000000000000D+00  0.0000000000000D+00
158  1.5700000000000D+00  0.0000000000000D+00  0.0000000000000D+00
159  1.5800000000000D+00  0.0000000000000D+00  0.0000000000000D+00
160  1.5900000000000D+00  0.0000000000000D+00  0.0000000000000D+00
161  1.6000000000000D+00  0.0000000000000D+00  0.0000000000000D+00
162  1.6100000000000D+00  0.0000000000000D+00  0.0000000000000D+00
163  1.6200000000000D+00  0.0000000000000D+00  0.0000000000000D+00
164  1.6300000000000D+00  0.0000000000000D+00  0.0000000000000D+00
165  1.6400000000000D+00  0.0000000000000D+00  0.0000000000000D+00
166  1.6500000000000D+00  0.0000000000000D+00  0.0000000000000D+00
167  1.6600000000000D+00  0.0000000000000D+00  0.0000000000000D+00
168  1.6700000000000D+00  0.0000000000000D+00  0.0000000000000D+00
169  1.6800000000000D+00  0.0000000000000D+00  0.0000000000000D+00
170  1.6900000000000D+00  0.0000000000000D+00  0.0000000000000D+00
171  1.7000000000000D+00  0.0000000000000D+00  0.0000000000000D+00
172  1.7100000000000D+00  0.0000000000000D+00  0.0000000000000D+00
173  1.7200000000000D+00  0.0000000000000D+00  0.0000000000000D+00
174  1.7300000000000D+00  0.0000000000000D+00  0.0000000000000D+00
175  1.7400000000000D+00  0.0000000000000D+00  0.0000000000000D+00
176  1.7500000000000D+00  0.0000000000000D+00  0.0000000000000D+00
177  1.7600000000000D+00  0.0000000000000D+00  0.0000000000000D+00
178  1.7700000000000D+00  0.0000000000000D+00  0.0000000000000D+00
179  1.7800000000000D+00  0.0000000000000D+00  0.0000000000000D+00
180  1.7900000000000D+00  0.0000000000000D+00  0.0000000000000D+00
181  1.8000000000000D+00  0.0000000000000D+00  0.0000000000000D+00
182  1.8100000000000D+00  0.0000000000000D+00  0.0000000000000D+00
183  1.8200000000000D+00  0.0000000000000D+00  0.0000000000000D+00
184  1.8300000000000D+00  0.0000000000000D+00  0.0000000000000D+00
185  1.8400000000000D+00  0.0000000000000D+00  0.0000000000000D+00
186  1.8500000000000D+00  0.0000000000000D+00  0.0000000000000D+00
187  1.8600000000000D+00  0.0000000000000D+00  0.0000000000000D+00
188  1.8700000000000D+00  0.0000000000000D+00  0.0000000000000D+00
189  1.8800000000000D+00  0.0000000000000D+00  0.0000000000000D+00
190  1.8900000000000D+00  0.0000000000000D+00  0.0000000000000D+00
191  1.9000000000000D+00  0.0000000000000D+00  0.0000000000000D+00
192  1.9100000000000D+00  0.0000000000000D+00  0.0000000000000D+00
193  1.9200000000000D+00  0.0000000000000D+00  0.0000000000000D+00
194  1.9300000000000D+00  0.0000000000000D+00  0.0000000000000D+00
195  1.9400000000000D+00  0.0000000000000D+00  0.0000000000000D+00
196  1.9500000000000D+00  0.0000000000000D+00  0.0000000000000D+00
197  1.9600000000000D+00  0.0000000000000D+00  0.0000000000000D+00
198  1.9700000000000D+00  0.0000000000000D+00  0.0000000000000D+00
199  1.9800000000000D+00  0.0000000000000D+00  0.0000000000000D+00
200  1.9900000000000D+00  0.0000000000000D+00  0.0000000000000D+00
201  2.0000000000000D+00  0.0000000000000D+00  0.0000000000000D+00
202  2.0100000000000D+00  0.0000000000000D+00  0.0000000000000D+00
203  2.0200000000000D+00  0.0000000000000D+00  0.0000000000000D+00
204  2.0300000000000D+00  0.0000000000000D+00  0.0000000000000D+00
205  2.0400000000000D+00  0.0000000000000D+00  0.0000000000000D+00
206  2.0500000000000D+00  0.0000000000000D+00  0.0000000000000D+00
207  2.0600000000000D+00  0.0000000000000D+00  0.0000000000000D+00
208  2.0700000000000D+00  0.0000000000000D+00  0.0000000000000D+00
209  2.0800000000000D+00  0.0000000000000D+00  0.0000000000000D+00
210  2.0900000000000D+00  0.0000000000000D+00  0.0000000000000D+00
211  2.1000000000000D+00  0.0000000000000D+00  0.0000000000000D+00
212  2.1100000000000D+00  0.0000000000000D+00  0.0000000000000D+00
213  2.1200000000000D+00  0.0000000000000D+00  0.0000000000000D+00
214  2.1300000000000D+00  0.0000000000000D+00  0.0000000000000D+00
215  2.1400000000000D+00  0.0000000000000D+00  0.0000000000000D+00
216  2.1500000000000D+00  0.0000000000000D+00  0.0000000000000D+00
217  2.1600000000000D+00  0.0000000000000D+00  0.0000000000000D+00
218  2.1700000000000D+00  0.0000000000000D+00  0.0000000000000D+00
219  2.1800000000000D+00  0.0000000000000D+00  0.0000000000000D+00
220  2.1900000000000D+00  0.0000000000000D+00  0.0000000000000D+00
221  2.2000000000000D+00  0.0000000000000D+00  0.0000000000000D+00
222  2.2100000000000D+00  0.0000000000000D+00  0.0000000000000D+00
223  2.2200000000000D+00  0.0000000000000D+00  0.0000000000000D+00
224  2.2300000000000D+00  0.0000000000000D+00  0.0000000000000D+00
225  2.2400000000000D+00  0.0000000000000D+00  0.0000000000000D+00
226  2.2500000000000D+00  0.0000000000000D+00  0.0000000000000D+00
227  2.2600000000000D+00  0.0000000000000D+00  0.0000000000000D+00
228  2.2700000000000D+00  0.0000000000000D+00  0.0000000000000D+00
229  2.2800000000000D+00  0.0000000000000D+00  0.0000000000000D+00
230  2.2900000000000D+00  0.0000000000000D+00  0.0000000000000D+00
231  2.3000000000000D+00  0.0000000000000D+00  0.0000000000000D+00
232  2.3100000000000D+00  0.0000000000000D+00  0.0000000000000D+00
233  2.3200000000000D+00  0.0000000000000D+00  0.0000000000000D+00
234  2.3300000000000D+00  0.0000000000000D+00  0.0000000000000D+00
235  2.3400000000000D+00  0.0000000000000D+00  0.0000000000000D+00
236  2.3500000000000D+00  0.0000000000000D+00  0.0000000000000D+00
237  2.3600000000000D+00  0.0000000000000D+00  0.0000000000000D+00
238  2.3700000000000D+00  0.0000000000000D+00  0.0000000000000D+00
239  2.3800000000000D+00  0.0000000000000D+00  0.0000000000000D+00
240  2.3900000000000D+00  0.0000000000000D+00  0.0000000000000D+00
241  2.4000000000000D+00  0.0000000000000D+00  0.0000000000000D+00
242  2.4100000000000D+00  0.0000000000000D+00  0.0000000000000D+00
243  2.4200000000000D+00  0.0000000000000D+00  0.0000000000000D+00
244  2.4300000000000D+00  0.0000000000000D+00  0.0000000000000D+00
245  2.4400000000000D+00  0.0000000000000D+00  0.0000000000000D+00
246  2.4500000000000D+00  0.0000000000000D+00  0.0000000000000D+00
247  2.4600000000000D+00  0.0000000000000D+00  0.0000000000000D+00
248  2.4700000000000D+00  0.0000000000000D+00  0.0000000000000D+00
249  2.4800000000000D+00  0.0000000000000D+00  0.0000000000000D+00
250  2.4900000000000D+00  0.0000000000000D+00  0.0000000000000D+00
251  2.5000000000000D+00  0.0000000000000D+00  0.0000000000000D+00
252  2.5100000000000D+00  0.0000000000000D+00  0.0000000000000D+00
253  2.5200000000000D+00  0.0000000000000D+00  0.0000000000000D+00
254  2.5300000000000D+00  0.0000000000000D+00  0.0000000000000D+00
255  2.5400000000000D+00  0.0000000000000D+00  0.0000000000000D+00
256  2.5500000000000D+00  0.0000000000000D+00  0.0000000000000D+00
257  2.5600000000000D+00  0.0000000000000D+00  0.0000000000000D+00
258  2.5700000000000D+00  0.0000000000000D+00  0.0000000000000D+00
259  2.5800000000000D+00  0.0000000000000D+00  0.0000000000000D+00
260  2.5900000000000D+00  0.0000000000000D+00  0.0000000000000D+00
261  2.6000000000000D+00  0.0000000000000D+00  0.0000000000000D+00
262  2.6100000000000D+00  0.0000000000000D+00  0.0000000000000D+00
263  2.6200000000000D+00  0.0000000000000D+00  0.0000000000000D+00
264  2.6300000000000D+00  0.0000000000000D+00  0.0000000000000D+00
265  2.6400000000000D+00  0.0000000000000D+00  0.0000000000000D+00
266  2.6500000000000D+00  0.0000000000000D+00  0.0000000000000D+00
267  2.6600000000000D+00  0.0000000000000D+00  0.0000000000000D+00
268  2.6700000000000D+00  0.0000000000000D+00  0.0000000000000D+00
269  2.6800000000000D+00  0.0000000000000D+00  0.0000000000000D+00
270  2.6900000000000D+00  0.0000000000000D+00  0.0000000000000D+00
271  2.7000000000000D+00  0.0000000000000D+00  0.0000000000000D+00
272  2.7100000000000D+00  0.0000000000000D+00  0.0000000000000D+00
273  2.7200000000000D+00  0.0000000000000D+00  0.0000000000000D+00
274  2.7300000000000D+00  0.0000000000000D+00  0.0000000000000D+00
275  2.7400000000000D+00  0.0000000000000D+00  0.0000000000000D+00
276  2.7500000000000D+00  0.0000000000000D+00  0.0000000000000D+00
277  2.7600000000000D+00  0.0000000000000D+00  0.0000000000000D+00
278  2.7700000000000D+00  0.0000000000000D+00  0.0000000000000D+00
279  2.7800000000000D+00  0.0000000000000D+00  0.0000000000000D+00
280  2.7900000000000D+00  0.0000000000000D+00  0.0000000000000D+00
281  2.8000000000000D+00  0.0000000000000D+00  0.0000000000000D+00
282  2.8100000000000D+00  0.0000000000000D+00  0.0000000000000D+00
283  2.8200000000000D+00  0.0000000000000D+00  0.0000000000000D+00
284  2.8300000000000D+00  0.0000000000000D+00  0.0000000000000D+00
285  2.8400000000000D+00  0.0000000000000D+00  0.0000000000000D+00
286  2.8500000000000D+00  0.0000000000000D+00  0.0000000000000D+00
287  2.8600000000000D+00  0.0000000000000D+00  0.0000000000000D+00
288  2.8700000000000D+00  0.0000000000000D+00  0.0000000000000D+00
289  2.8800000000000D+00  0.0000000000000D+00  0.0000000000000D+00
290  2.8900000000000D+00  0.0000000000000D+00  0.0000000000000D+00
291  2.9000000000000D+00  0.0000000000000D+00  0.0000000000000D+00
292  2.9100000000000D+00  0.0000000000000D+00  0.0000000000000D+00
293  2.9200000000000D+00  0.0000000000000D+00  0.0000000000000D+00
294  2.9300000000000D+00  0.0000000000000D+00  0.0000000000000D+00
295  2.9400000000000D+00  0.0000000000000D+00  0.0000000000000D+00
296  2.9500000000000D+00  0.0000000000000D+00  0.0000000000000D+00
297  2.9600000000000D+00  0.0000000000000D+00  0.0000000000000D+00
298  2.9700000000000D+00  0.0000000000000D+00  0.0000000000000D+00
299  2.9800000000000D+00  0.0000000000000D+00  0.0000000000000D+00
300  2.9900000000000D+00  0.0000000000000D+00  0.0000000000000D+00
301  3.0000000000000D+00  0.0000000000000D+00  0.0000000000000D+00
302  3.0100000000000D+00  0.0000000000000D+00  0.0000000000000D+00
303  3.0200000000000D+00  0.0000000000000D+00  0.0000000000000D+00
304  3.0300000000000D+00  0.0000000000000D+00  0.0000000000000D+00
305  3.0400000000000D+00  0.0000000000000D+00  0.0000000000000D+00
306  3.0500000000000D+00  0.0000000000000D+00  0.0000000000000D+00
307  3.0600000000000D+00  0.0000000000000D+00  0.0000000000000D+00
308  3.0700000000000D+00  0.0000000000000D+00  0.0000000000000D+00
309  3.0800000000000D+00  0.0000000000000D+00  0.0000000000000D+00
310  3.0900000000000D+00  0.0000000000000D+00  0.0000000000000D+00
311  3.1000000000000D+00  0.0000000000000D+00  0.0000000000000D+00
312  3.1100000000000D+00  0.0000000000000D+00  0.0000000000000D+00
313  3.1200000000000D+00  0.0000000000000D+00  0.0000000000000D+00
314  3.1300000000000D+00  0.0000000000000D+00  0.0000000000000D+00
315  3.1400000000000D+00  0.0000000000000D+00  0.0000000000000D+00
316  3.1500000000000D+00  0.0000000000000D+00  0.0000000000000D+00
317  3.1600000000000D+00  0.0000000000000D+00  0.0000000000000D+00
318  3.1700000000000D+00  0.0000000000000D+00  0.0000000000000D+00
319  3.1800000000000D+00  0.0000000000000D+00  0.0000000000000D+00
320  3.1900000000000D+00  0.0000000000000D+00  0.0000000000000D+00
321  3.2000000000000D+00  0.0000000000000D+00  0.0000000000000D+00
322  3.2100000000000D+00  0.0000000000000D+00  0.0000000000000D+00
323  3.2200000000000D+00  0.0000000000000D+00  0.0000000000000D+00
324  3.2300000000000D+00  0.0000000000000D+00  0.0000000000000D+00
325  3.2400000000000D+00  0.0000000000000D+00  0.0000000000000D+00
326  3.2500000000000D+00  0.0000000000000D+00  0.0000000000000D+00
327  3.2600000000000D+00  0.0000000000000D+00  0.0000000000000D+00
328  3.2700000000000D+00  0.0000000000000D+00  0.0000000000000D+00
329  3.2800000000000D+00  0.0000000000000D+00  0.0000000000000D+00
330  3.2900000000000D+00  0.0000000000000D+00  0.0000000000000D+00
331  3.3000000000000D+00  0.0000000000000D+00  0.0000000000000D+00
332  3.3100000000000D+00  0.0000000000000D+00  0.0000000000000D+00
333  3.3200000000000D+00  0.0000000000000D+00  0.0000000000000D+00
334  3.3300000000000D+00  0.0000000000000D+00  0.0000000000000D+00
335  3.3400000000000D+00  0.0000000000000D+00  0.0000000000000D+00
336  3.3500000000000D+00  0.0000000000000D+00  0.0000000000000D+00
337  3.3600000000000D+00  0.0000000000000D+00  0.0000000000000D+00
338  3.3700000000000D+00  0.0000000000000D+00  0.0000000000000D+00
339  3.3800000000000D+00  0.0000000000000D+00  0.0000000000000D+00
340  3.3900000000000D+00  0.0000000000000D+00  0.0000000000000D+00
341  3.4000000000000D+00  0.0000000000000D+00  0.0000000000000D+00
342  3.4100000000000D+00  0.0000000000000D+00  0.0000000000000D+00
343  3.4200000000000D+00  0.0000000000000D+00  0.0000000000000D+00
344  3.4300000000000D+00  0.0000000000000D+00  0.0000000000000D+00
345  3.4400000000000D+00  0.0000000000000D+00  0.0000000000000D+00
346  3.4500000000000D+00  0.0000000000000D+00  0.0000000000000D+00
347  3.4600000000000D+00  0.0000000000000D+00  0.0000000000000D+00
348  3.4700000000000D+00  0.0000000000000D+00  0.0000000000000D+00
349  3.4800000000000D+00  0.0000000000000D+00  0.0000000000000D+00
350  3.4900000000000D+00  0.0000000000000D+00  0.0000000000000D+00
351  3.5000000000000D+00  0.0000000000000D+00  0.0000000000000D+00
352  3.5100000000000D+00  0.0000000000000D+00  0.0000000000000D+00
353  3.5200000000000D+00  0.0000000000000D+00  0.0000000000000D+00
354  3.5300000000000D+00  0.0000000000000D+00  0.0000000000000D+00
355  3.5400000000000D+00  0.0000000000000D+00  0.0000000000000D+00
356  3.5500000000000D+00  0.0000000000000D+00  0.0000000000000D+00
357  3.5600000000000D+00  0.0000000000000D+00  0.0000000000000D+00
358  3.5700000000000D+00  0.0000000000000D+00  0.0000000000000D+00
359  3.5800000000000D+00  0.0000000000000D+00  0.0000000000000D+00
360  3.5900000000000D+00  0.0000000000000D+00  0.0000000000000D+00
361  3.6000000000000D+00  0.0000000000000D+00  0.0000000000000D+00
362  3.6100000000000D+00  0.0000000000000D+00  0.0000000000000D+00
363  3.6200000000000D+00  0.0000000000000D+00  0.0000000000000D+00
364  3.6300000000000D+00  0.0000000000000D+00  0.0000000000000D+00
365  3.6400000000000D+00  0.0000000000000D+00  0.0000000000000D+00
366  3.6500000000000D+00  0.0000000000000D+00  0.0000000000000D+00
367  3.6600000000000D+00  0.0000000000000D+00  0.0000000000000D+00
368  3.6700000000000D+00  0.0000000000000D+00  0.0000000000000D+00
369  3.6800000000000D+00  0.0000000000000D+00  0.0000000000000D+00
370  3.6900000000000D+00  0.0000000000000D+00  0.0000000000000D+00
371  3.7000000000000D+00  0.0000000000000D+00  0.0000000000000D+00
372  3.7100000000000D+00  0.0000000000000D+00  0.0000000000000D+00
373  3.7200000000000D+00  0.0000000000000D+00  0.0000000000000D+00
374  3.7300000000000D+00  0.0000000000000D+00  0.0000000000000D+00
375  3.7400000000000D+00  0.0000000000000D+00  0.0000000000000D+00
376  3.7500000000000D+00  0.0000000000000D+00  0.0000000000000D+00
377  3.7600000000000D+00  0.0000000000000D+00  0.0000000000000D+00
378  3.7700000000000D+00  0.0000000000000D+00  0.0000000000000D+00
379  3.7800000000000D+00  0.0000000000000D+00  0.0000000000000D+00
380  3.7900000000000D+00  0.0000000000000D+00  0.0000000000000D+00
381  3.8000000000000D+00  0.0000000000000D+00  0.0000000000000D+00
382  3.8100000000000D+00  0.0000000000000D+00  0.0000000000000D+00
383  3.8200000000000D+00  0.0000000000000D+00  0.0000000000000D+00
384  3.8300000000000D+00  0.0000000000000D+00  0.0000000000000D+00
385  3.8400000000000D+00  0.0000000000000D+00  0.0000000000000D+00
386  3.8500000000000D+00  0.0000000000000D+00  0.0000000000000D+00
387  3.8600000000000D+00  0.0000000000000D+00  0.0000000000000D+00
388  3.8700000000000D+00  0.0000000000000D+00  0.0000000000000D+00
389  3.8800000000000D+00  0.0000000000000D+00  0.0000000000000D+00
390  3.8900000000000D+00  0.0000000000000D+00  0.0000000000000D+00
391  3.9000000000000D+00  0.0000000000000D+00  0.0000000000000D+00
392  3.9100000000000D+00  0.0000000000000D+00  0.0000000000000D+00
393  3.9200000000000D+00  0.0000000000000D+00  0.0000000000000D+00
394  3.9300000000000D+00  0.0000000000000D+00  0.0000000000000D+00
395  3.9400000000000D+00  0.0000000000000D+00  0.0000000000000D+00
396  3.9500000000000D+00  0.0000000000000D+00  0.0000000000000D+00
397  3.9600000000000D+00  0.0000000000000D+00  0.0000000000000D+00
398  3.9700000000000D+00  0.0000000000000D+00  0.0000000000000D+00
399  3.9800000000000D+00  0.0000000000000D+00  0.0000000000000D+00
400  3.9900000000000D+00  0.0000000000000D+00  0.0000000000000D+00
401  4.0000000000000D+00  0.0000000000000D+00  0.0000000000000D+00
402  4.0100000000000D+00  0.0000000000000D+00  0.0000000000000D+00
403  4.0200000000000D+00  0.0000000000000D+00  0.0000000000000D+00
404  4.0300000000000D+00  0.0000000000000D+00  0.0000000000000D+00
405  4.0400000000000D+00  0.0000000000000D+00  0.0000000000000D+00
406  4.0500000000000D+00  0.0000000000000D+00  0.0000000000000D+00
407  4.0600000000000D+00  0.0000000000000D+00  0.0000000000000D+00
408  4.0700000000000D+00  0.0000000000000D+00  0.0000000000000D+00
409  4.0800000000000D+00  0.0000000000000D+00  0.0000000000000D+00
410  4.0900000000000D+00  0.0000000000000D+00  0.0000000000000D+00
411  4.1000000000000D+00  0.0000000000000D+00  0.0000000000000D+00
412  4.1100000000000D+00  0.0000000000000D+00  0.0000000000000D+00
413  4.1200000000000D+00  0.0000000000000D+00  0.0000000000000D+00
414  4.1300000000000D+00  0.0000000000000D+00  0.0000000000000D+00
415  4.1400000000000D+00  0.0000000000000D+00  0.0000000000000D+00
416  4.1500000000000D+00  0.0000000000000D+00  0.0000000000000D+00
417  4.1600000000000D+00  0.0000000000000D+00  0.0000000000000D+00
418  4.1700000000000D+00  0.0000000000000D+00  0.0000000000000D+00
419  4.1800000000000D+00  0.0000000000000D+00  0.0000000000000D+00
420  4.1900000000000D+00  0.0000000000000D+00  0.0000000000000D+00
421  4.2000000000000D+00  0.0000000000000D+00  0.0000000000000D+00
422  4.2100000000000D+00  0.0000000000000D+00  0.0000000000000D+00
423  4.2200000000000D+00  0.0000000000000D+00  0.0000000000000D+00
424  4.2300000000000D+00  0.0000000000000D+00  0.0000000000000D+00
425  4.2400000000000D+00  0.0000000000000D+00  0.0000000000000D+00
426  4.2500000000000D+00  0.0000000000000D+00  0.0000000000000D+00
427  4.2600000000000D+00  0.0000000000000D+00  0.0000000000000D+00
428  4.2700000000000D+00  0.0000000000000D+00  0.0000000000000D+00
429  4.2800000000000D+00  0.0000000000000D+00  0.0000000000000D+00
430  4.2900000000000D+00  0.0000000000000D+00  0.0000000000000D+00
431  4.3000000000000D+00  0.0000000000000D+00  0.0000000000000D+00
432  4.3100000000000D+00  0.0000000000000D+00  0.0000000000000D+00
433  4.3200000000000D+00  0.0000000000000D+00  0.0000000000000D+00
434  4.3300000000000D+00  0.0000000000000D+00  0.0000000000000D+00
435  4.3400000000000D+00  0.0000000000000D+00  0.0000000000000D+00
436  4.3500000000000D+00  0.0000000000000D+00  0.0000000000000D+00
437  4.3600000000000D+00  0.0000000000000D+00  0.0000000000000D+00
438  4.3700000000000D+00  0.0000000000000D+00  0.0000000000000D+00
439  4.3800000000000D+00  0.0000000000000D+00  0.0000000000000D+00
440  4.3900000000000D+00  0.0000000000000D+00  0.0000000000000D+00
441  4.4000000000000D+00  0.0000000000000D+00  0.0000000000000D+00
442  4.4100000000000D+00  0.0000000000000D+00  0.0000000000000D+00
443  4.4200000000000D+00  0.0000000000000D+00  0.0000000000000D+00
444  4.4300000000000D+00  0.0000000000000D+00  0.0000000000000D+00