Na    ONCVPSP-3.3.0  r_core=   1.20708   1.55069
11.0000      9.0000      180418    zatom,zion,pspd
8      11   1     4   400     0    pspcod,pspxc,lmax,lloc,mmax,r2well
3.99000000  0.00000000  0.00000000    rchrg fchrg qchrg
2     2     0     0    nproj
3     1           extension_switch
3     0     0    nprojso
0                        -6.7640077271609D-01  2.6675482326987D+00
1  0.0000000000000D+00  5.7535198827452D-10  2.5258977132125D-09
2  1.0000000000000D-02  2.1003856748499D-02  9.2891489892514D-02
3  2.0000000000000D-02  4.2089686932902D-02  1.8556198045916D-01
4  3.0000000000000D-02  6.3338450927831D-02  2.7778916631073D-01
5  4.0000000000000D-02  8.4829094775775D-02  3.6934816917710D-01
6  5.0000000000000D-02  1.0663757234847D-01  4.6001034892587D-01
7  6.0000000000000D-02  1.2883590228693D-01  5.4954222970682D-01
8  7.0000000000000D-02  1.5149127062844D-01  6.3770457658429D-01
9  8.0000000000000D-02  1.7466518945328D-01  7.2425165549345D-01
10  9.0000000000000D-02  1.9841272117921D-01  8.0893070626929D-01
11  1.0000000000000D-01  2.2278177730601D-01  8.9148165489333D-01
12  1.1000000000000D-01  2.4781249947728D-01  9.7163708703651D-01
13  1.2000000000000D-01  2.7353672969399D-01  1.0491225005068D+00
14  1.3000000000000D-01  2.9997757539744D-01  1.1236568494026D+00
15  1.4000000000000D-01  3.2714907395272D-01  1.1949533876994D+00
16  1.5000000000000D-01  3.5505595982375D-01  1.2627208147346D+00
17  1.6000000000000D-01  3.8369353645211D-01  1.3266647196759D+00
18  1.7000000000000D-01  4.1304765355265D-01  1.3864893166555D+00
19  1.8000000000000D-01  4.4309478923463D-01  1.4418994568908D+00
20  1.9000000000000D-01  4.7380223506591D-01  1.4926028988878D+00
21  2.0000000000000D-01  5.0512838093569D-01  1.5383128128094D+00
22  2.1000000000000D-01  5.3702309535540D-01  1.5787504903621D+00
23  2.2000000000000D-01  5.6942819568282D-01  1.6136482271954D+00
24  2.3000000000000D-01  6.0227800167662D-01  1.6427523408742D+00
25  2.4000000000000D-01  6.3549996480178D-01  1.6658262840500D+00
26  2.5000000000000D-01  6.6901536482203D-01  1.6826538095741D+00
27  2.6000000000000D-01  7.0274006444703D-01  1.6930421420178D+00
28  2.7000000000000D-01  7.3658531215718D-01  1.6968251084220D+00
29  2.8000000000000D-01  7.7045858281791D-01  1.6938661801447D+00
30  2.9000000000000D-01  8.0426444532277D-01  1.6840613774090D+00
31  3.0000000000000D-01  8.3790544627668D-01  1.6673419886053D+00
32  3.1000000000000D-01  8.7128299864870D-01  1.6436770575719D+00
33  3.2000000000000D-01  9.0429826438934D-01  1.6130755939506D+00
34  3.3000000000000D-01  9.3685302021886D-01  1.5755884642854D+00
35  3.4000000000000D-01  9.6885049614717D-01  1.5313099247654D+00
36  3.5000000000000D-01  1.0001961767778D+00  1.4803787603755D+00
37  3.6000000000000D-01  1.0307985560704D+00  1.4229789996646D+00
38  3.7000000000000D-01  1.0605698369814D+00  1.3593401793153D+00
39  3.8000000000000D-01  1.0894265682556D+00  1.2897371381351D+00
40  3.9000000000000D-01  1.1172902115999D+00  1.2144893259271D+00
41  4.0000000000000D-01  1.1440876335071D+00  1.1339596188473D+00
42  4.1000000000000D-01  1.1697515171146D+00  1.0485526392484D+00
43  4.2000000000000D-01  1.1942206906483D+00  9.5871258454840D-01
44  4.3000000000000D-01  1.2174403702117D+00  8.6492057626767D-01
45  4.4000000000000D-01  1.2393623159147D+00  7.6769154694951D-01
46  4.5000000000000D-01  1.2599449015693D+00  6.6757068913270D-01
47  4.6000000000000D-01  1.2791530994119D+00  5.6512949678522D-01
48  4.7000000000000D-01  1.2969583825066D+00  4.6096143554684D-01
49  4.8000000000000D-01  1.3133385486390D+00  3.5567728368034D-01
50  4.9000000000000D-01  1.3282774706025D+00  2.4990019071278D-01
51  5.0000000000000D-01  1.3417647787953D+00  1.4426050528524D-01
52  5.1000000000000D-01  1.3537954829724D+00  3.9390427650940D-02
53  5.2000000000000D-01  1.3643695408182D+00 -6.4081454493608D-02
54  5.3000000000000D-01  1.3734913817135D+00 -1.6553568564680D-01
55  5.4000000000000D-01  1.3811693946527D+00 -2.6436745466979D-01
56  5.5000000000000D-01  1.3874153897158D+00 -3.5999203561431D-01
57  5.6000000000000D-01  1.3922440428082D+00 -4.5185009323655D-01
58  5.7000000000000D-01  1.3956723335488D+00 -5.3941278996696D-01
59  5.8000000000000D-01  1.3977189862030D+00 -6.2218663268447D-01
60  5.9000000000000D-01  1.3984039234322D+00 -6.9971800006542D-01
61  6.0000000000000D-01  1.3977477423548D+00 -7.7159729448837D-01
62  6.1000000000000D-01  1.3957712220038D+00 -8.3746266649209D-01
63  6.2000000000000D-01  1.3924948707124D+00 -8.9700326448370D-01
64  6.3000000000000D-01  1.3879385212855D+00 -9.4996196782148D-01
65  6.4000000000000D-01  1.3821209810157D+00 -9.9613756738504D-01
66  6.5000000000000D-01  1.3750597427056D+00 -1.0353863642857D+00
67  6.6000000000000D-01  1.3667707618559D+00 -1.0676231643782D+00
68  6.7000000000000D-01  1.3572683041097D+00 -1.0928216535702D+00
69  6.8000000000000D-01  1.3465648659003D+00 -1.1110141465404D+00
70  6.9000000000000D-01  1.3346711700630D+00 -1.1222907092800D+00
71  7.0000000000000D-01  1.3215962369528D+00 -1.1267976637046D+00
72  7.1000000000000D-01  1.3073475303833D+00 -1.1247354903784D+00
73  7.2000000000000D-01  1.2919311764719D+00 -1.1163561530608D+00
74  7.3000000000000D-01  1.2753522522759D+00 -1.1019598761850D+00
75  7.4000000000000D-01  1.2576151399435D+00 -1.0818914134216D+00
76  7.5000000000000D-01  1.2387239409977D+00 -1.0565358520729D+00
77  7.6000000000000D-01  1.2186829443440D+00 -1.0263140041064D+00
78  7.7000000000000D-01  1.1974971406530D+00 -9.9167744002791D-01
79  7.8000000000000D-01  1.1751727749325D+00 -9.5310322653602D-01
80  7.9000000000000D-01  1.1517179283845D+00 -9.1108843280857D-01
81  8.0000000000000D-01  1.1271431200561D+00 -8.6614447337374D-01
82  8.1000000000000D-01  1.1014619183349D+00 -8.1879135772743D-01
83  8.2000000000000D-01  1.0746915520342D+00 -7.6955191814752D-01
84  8.3000000000000D-01  1.0468535106563D+00 -7.1894608750021D-01
85  8.4000000000000D-01  1.0179741234140D+00 -6.6748529822327D-01
86  8.5000000000000D-01  9.8808510674412D-01 -6.1566707210773D-01
87  8.6000000000000D-01  9.5722407034816D-01 -5.6396986799828D-01
88  8.7000000000000D-01  9.2543497224946D-01 -5.1284825112289D-01
89  8.8000000000000D-01  8.9276851395404D-01 -4.6272844348289D-01
90  8.9000000000000D-01  8.5928246753648D-01 -4.1400430964198D-01
91  9.0000000000000D-01  8.2504192733434D-01 -3.6703382640840D-01
92  9.1000000000000D-01  7.9011947991136D-01 -3.2213607838649D-01
93  9.2000000000000D-01  7.5459528702888D-01 -2.7958881426655D-01
94  9.3000000000000D-01  7.1855707753152D-01 -2.3962659111876D-01
95  9.4000000000000D-01  6.8210004529038D-01 -2.0243952596068D-01
96  9.5000000000000D-01  6.4532665163651D-01 -1.6817266559684D-01
97  9.6000000000000D-01  6.0834633205460D-01 -1.3692597720377D-01
98  9.7000000000000D-01  5.7127510822828D-01 -1.0875495375702D-01
99  9.8000000000000D-01  5.3423510789039D-01 -8.3671819801371D-02
100  9.9000000000000D-01  4.9735399624512D-01 -6.1647314818200D-02
101  1.0000000000000D+00  4.6076432400333D-01 -4.2613023467961D-02
102  1.0100000000000D+00  4.2460279829615D-01 -2.6464214358356D-02
103  1.0200000000000D+00  3.8900948387169D-01 -1.3063141909032D-02
104  1.0300000000000D+00  3.5412694304487D-01 -2.2427592872645D-03
105  1.0400000000000D+00  3.2009932377193D-01  6.1892151743360D-03
106  1.0500000000000D+00  2.8707140608229D-01  1.2445940966293D-02
107  1.0600000000000D+00  2.5518761776326D-01  1.6756874747074D-02
108  1.0700000000000D+00  2.2459103072662D-01  1.9363036251856D-02
109  1.0800000000000D+00  1.9542234987347D-01  2.0512193323114D-02
110  1.0900000000000D+00  1.6781890648230D-01  2.0454039871476D-02
111  1.1000000000000D+00  1.4191366823261D-01  1.9435441077329D-02
112  1.1100000000000D+00  1.1783427784270D-01  1.7695819290437D-02
113  1.1200000000000D+00  9.5702132040983D-02  1.5462752468209D-02
114  1.1300000000000D+00  7.5631512087564D-02  1.2947853888719D-02
115  1.1400000000000D+00  5.7728776649795D-02  1.0342999327463D-02
116  1.1500000000000D+00  4.2091626880917D-02  7.8169620280789D-03
117  1.1600000000000D+00  2.8808452794747D-02  5.5125111701698D-03
118  1.1700000000000D+00  1.7963047325733D-02  3.5452884840044D-03
119  1.1800000000000D+00  9.5984308888755D-03  1.9929099031792D-03
120  1.1900000000000D+00  3.7909622937732D-03  9.1291944204711D-04
121  1.2000000000000D+00  7.5112634242102D-04  3.8000534504587D-04
122  1.2100000000000D+00 -1.3666992124119D-04  1.6139642140227D-04
123  1.2200000000000D+00 -3.3994495914614D-05  1.4594322350681D-05
124  1.2300000000000D+00  4.2505361072410D-05 -1.3918844782417D-05
125  1.2400000000000D+00 -6.5811097498406D-06  3.1020091699651D-06
126  1.2500000000000D+00 -1.7577011856955D-06  7.4632168349287D-07
127  1.2600000000000D+00  8.8210072129945D-08 -5.7739221846700D-07
128  1.2700000000000D+00  0.0000000000000D+00  0.0000000000000D+00
129  1.2800000000000D+00  0.0000000000000D+00  0.0000000000000D+00
130  1.2900000000000D+00  0.0000000000000D+00  0.0000000000000D+00
131  1.3000000000000D+00  0.0000000000000D+00  0.0000000000000D+00
132  1.3100000000000D+00  0.0000000000000D+00  0.0000000000000D+00
133  1.3200000000000D+00  0.0000000000000D+00  0.0000000000000D+00
134  1.3300000000000D+00  0.0000000000000D+00  0.0000000000000D+00
135  1.3400000000000D+00  0.0000000000000D+00  0.0000000000000D+00
136  1.3500000000000D+00  0.0000000000000D+00  0.0000000000000D+00
137  1.3600000000000D+00  0.0000000000000D+00  0.0000000000000D+00
138  1.3700000000000D+00  0.0000000000000D+00  0.0000000000000D+00
139  1.3800000000000D+00  0.0000000000000D+00  0.0000000000000D+00
140  1.3900000000000D+00  0.0000000000000D+00  0.0000000000000D+00
141  1.4000000000000D+00  0.0000000000000D+00  0.0000000000000D+00
142  1.4100000000000D+00  0.0000000000000D+00  0.0000000000000D+00
143  1.4200000000000D+00  0.0000000000000D+00  0.0000000000000D+00
144  1.4300000000000D+00  0.0000000000000D+00  0.0000000000000D+00
145  1.4400000000000D+00  0.0000000000000D+00  0.0000000000000D+00
146  1.4500000000000D+00  0.0000000000000D+00  0.0000000000000D+00
147  1.4600000000000D+00  0.0000000000000D+00  0.0000000000000D+00
148  1.4700000000000D+00  0.0000000000000D+00  0.0000000000000D+00
149  1.4800000000000D+00  0.0000000000000D+00  0.0000000000000D+00
150  1.4900000000000D+00  0.0000000000000D+00  0.0000000000000D+00
151  1.5000000000000D+00  0.0000000000000D+00  0.0000000000000D+00
152  1.5100000000000D+00  0.0000000000000D+00  0.0000000000000D+00
153  1.5200000000000D+00  0.0000000000000D+00  0.0000000000000D+00
154  1.5300000000000D+00  0.0000000000000D+00  0.0000000000000D+00
155  1.5400000000000D+00  0.0000000000000D+00  0.0000000000000D+00
156  1.5500000000000D+00  0.0000000000000D+00  0.0000000000000D+00
157  1.5600000000000D+00  0.0000000000000D+00  0.0000000000000D+00
158  1.5700000000000D+00  0.0000000000000D+00  0.0000000000000D+00
159  1.5800000000000D+00  0.0000000000000D+00  0.0000000000000D+00
160  1.5900000000000D+00  0.0000000000000D+00  0.0000000000000D+00
161  1.6000000000000D+00  0.0000000000000D+00  0.0000000000000D+00
162  1.6100000000000D+00  0.0000000000000D+00  0.0000000000000D+00
163  1.6200000000000D+00  0.0000000000000D+00  0.0000000000000D+00
164  1.6300000000000D+00  0.0000000000000D+00  0.0000000000000D+00
165  1.6400000000000D+00  0.0000000000000D+00  0.0000000000000D+00
166  1.6500000000000D+00  0.0000000000000D+00  0.0000000000000D+00
167  1.6600000000000D+00  0.0000000000000D+00  0.0000000000000D+00
168  1.6700000000000D+00  0.0000000000000D+00  0.0000000000000D+00
169  1.6800000000000D+00  0.0000000000000D+00  0.0000000000000D+00
170  1.6900000000000D+00  0.0000000000000D+00  0.0000000000000D+00
171  1.7000000000000D+00  0.0000000000000D+00  0.0000000000000D+00
172  1.7100000000000D+00  0.0000000000000D+00  0.0000000000000D+00
173  1.7200000000000D+00  0.0000000000000D+00  0.0000000000000D+00
174  1.7300000000000D+00  0.0000000000000D+00  0.0000000000000D+00
175  1.7400000000000D+00  0.0000000000000D+00  0.0000000000000D+00
176  1.7500000000000D+00  0.0000000000000D+00  0.0000000000000D+00
177  1.7600000000000D+00  0.0000000000000D+00  0.0000000000000D+00
178  1.7700000000000D+00  0.0000000000000D+00  0.0000000000000D+00
179  1.7800000000000D+00  0.0000000000000D+00  0.0000000000000D+00
180  1.7900000000000D+00  0.0000000000000D+00  0.0000000000000D+00
181  1.8000000000000D+00  0.0000000000000D+00  0.0000000000000D+00
182  1.8100000000000D+00  0.0000000000000D+00  0.0000000000000D+00
183  1.8200000000000D+00  0.0000000000000D+00  0.0000000000000D+00
184  1.8300000000000D+00  0.0000000000000D+00  0.0000000000000D+00
185  1.8400000000000D+00  0.0000000000000D+00  0.0000000000000D+00
186  1.8500000000000D+00  0.0000000000000D+00  0.0000000000000D+00
187  1.8600000000000D+00  0.0000000000000D+00  0.0000000000000D+00
188  1.8700000000000D+00  0.0000000000000D+00  0.0000000000000D+00
189  1.8800000000000D+00  0.0000000000000D+00  0.0000000000000D+00
190  1.8900000000000D+00  0.0000000000000D+00  0.0000000000000D+00
191  1.9000000000000D+00  0.0000000000000D+00  0.0000000000000D+00
192  1.9100000000000D+00  0.0000000000000D+00  0.0000000000000D+00
193  1.9200000000000D+00  0.0000000000000D+00  0.0000000000000D+00
194  1.9300000000000D+00  0.0000000000000D+00  0.0000000000000D+00
195  1.9400000000000D+00  0.0000000000000D+00  0.0000000000000D+00
196  1.9500000000000D+00  0.0000000000000D+00  0.0000000000000D+00
197  1.9600000000000D+00  0.0000000000000D+00  0.0000000000000D+00
198  1.9700000000000D+00  0.0000000000000D+00  0.0000000000000D+00
199  1.9800000000000D+00  0.0000000000000D+00  0.0000000000000D+00
200  1.9900000000000D+00  0.0000000000000D+00  0.0000000000000D+00
201  2.0000000000000D+00  0.0000000000000D+00  0.0000000000000D+00
202  2.0100000000000D+00  0.0000000000000D+00  0.0000000000000D+00
203  2.0200000000000D+00  0.0000000000000D+00  0.0000000000000D+00
204  2.0300000000000D+00  0.0000000000000D+00  0.0000000000000D+00
205  2.0400000000000D+00  0.0000000000000D+00  0.0000000000000D+00
206  2.0500000000000D+00  0.0000000000000D+00  0.0000000000000D+00
207  2.0600000000000D+00  0.0000000000000D+00  0.0000000000000D+00
208  2.0700000000000D+00  0.0000000000000D+00  0.0000000000000D+00
209  2.0800000000000D+00  0.0000000000000D+00  0.0000000000000D+00
210  2.0900000000000D+00  0.0000000000000D+00  0.0000000000000D+00
211  2.1000000000000D+00  0.0000000000000D+00  0.0000000000000D+00
212  2.1100000000000D+00  0.0000000000000D+00  0.0000000000000D+00
213  2.1200000000000D+00  0.0000000000000D+00  0.0000000000000D+00
214  2.1300000000000D+00  0.0000000000000D+00  0.0000000000000D+00
215  2.1400000000000D+00  0.0000000000000D+00  0.0000000000000D+00
216  2.1500000000000D+00  0.0000000000000D+00  0.0000000000000D+00
217  2.1600000000000D+00  0.0000000000000D+00  0.0000000000000D+00
218  2.1700000000000D+00  0.0000000000000D+00  0.0000000000000D+00
219  2.1800000000000D+00  0.0000000000000D+00  0.0000000000000D+00
220  2.1900000000000D+00  0.0000000000000D+00  0.0000000000000D+00
221  2.2000000000000D+00  0.0000000000000D+00  0.0000000000000D+00
222  2.2100000000000D+00  0.0000000000000D+00  0.0000000000000D+00
223  2.2200000000000D+00  0.0000000000000D+00  0.0000000000000D+00
224  2.2300000000000D+00  0.0000000000000D+00  0.0000000000000D+00
225  2.2400000000000D+00  0.0000000000000D+00  0.0000000000000D+00
226  2.2500000000000D+00  0.0000000000000D+00  0.0000000000000D+00
227  2.2600000000000D+00  0.0000000000000D+00  0.0000000000000D+00
228  2.2700000000000D+00  0.0000000000000D+00  0.0000000000000D+00
229  2.2800000000000D+00  0.0000000000000D+00  0.0000000000000D+00
230  2.2900000000000D+00  0.0000000000000D+00  0.0000000000000D+00
231  2.3000000000000D+00  0.0000000000000D+00  0.0000000000000D+00
232  2.3100000000000D+00  0.0000000000000D+00  0.0000000000000D+00
233  2.3200000000000D+00  0.0000000000000D+00  0.0000000000000D+00
234  2.3300000000000D+00  0.0000000000000D+00  0.0000000000000D+00
235  2.3400000000000D+00  0.0000000000000D+00  0.0000000000000D+00
236  2.3500000000000D+00  0.0000000000000D+00  0.0000000000000D+00
237  2.3600000000000D+00  0.0000000000000D+00  0.0000000000000D+00
238  2.3700000000000D+00  0.0000000000000D+00  0.0000000000000D+00
239  2.3800000000000D+00  0.0000000000000D+00  0.0000000000000D+00
240  2.3900000000000D+00  0.0000000000000D+00  0.0000000000000D+00
241  2.4000000000000D+00  0.0000000000000D+00  0.0000000000000D+00
242  2.4100000000000D+00  0.0000000000000D+00  0.0000000000000D+00
243  2.4200000000000D+00  0.0000000000000D+00  0.0000000000000D+00
244  2.4300000000000D+00  0.0000000000000D+00  0.0000000000000D+00
245  2.4400000000000D+00  0.0000000000000D+00  0.0000000000000D+00
246  2.4500000000000D+00  0.0000000000000D+00  0.0000000000000D+00
247  2.4600000000000D+00  0.0000000000000D+00  0.0000000000000D+00
248  2.4700000000000D+00  0.0000000000000D+00  0.0000000000000D+00
249  2.4800000000000D+00  0.0000000000000D+00  0.0000000000000D+00
250  2.4900000000000D+00  0.0000000000000D+00  0.0000000000000D+00
251  2.5000000000000D+00  0.0000000000000D+00  0.0000000000000D+00
252  2.5100000000000D+00  0.0000000000000D+00  0.0000000000000D+00
253  2.5200000000000D+00  0.0000000000000D+00  0.0000000000000D+00
254  2.5300000000000D+00  0.0000000000000D+00  0.0000000000000D+00
255  2.5400000000000D+00  0.0000000000000D+00  0.0000000000000D+00
256  2.5500000000000D+00  0.0000000000000D+00  0.0000000000000D+00
257  2.5600000000000D+00  0.0000000000000D+00  0.0000000000000D+00
258  2.5700000000000D+00  0.0000000000000D+00  0.0000000000000D+00
259  2.5800000000000D+00  0.0000000000000D+00  0.0000000000000D+00
260  2.5900000000000D+00  0.0000000000000D+00  0.0000000000000D+00
261  2.6000000000000D+00  0.0000000000000D+00  0.0000000000000D+00
262  2.6100000000000D+00  0.0000000000000D+00  0.0000000000000D+00
263  2.6200000000000D+00  0.0000000000000D+00  0.0000000000000D+00
264  2.6300000000000D+00  0.0000000000000D+00  0.0000000000000D+00
265  2.6400000000000D+00  0.0000000000000D+00  0.0000000000000D+00
266  2.6500000000000D+00  0.0000000000000D+00  0.0000000000000D+00
267  2.6600000000000D+00  0.0000000000000D+00  0.0000000000000D+00
268  2.6700000000000D+00  0.0000000000000D+00  0.0000000000000D+00
269  2.6800000000000D+00  0.0000000000000D+00  0.0000000000000D+00
270  2.6900000000000D+00  0.0000000000000D+00  0.0000000000000D+00
271  2.7000000000000D+00  0.0000000000000D+00  0.0000000000000D+00
272  2.7100000000000D+00  0.0000000000000D+00  0.0000000000000D+00
273  2.7200000000000D+00  0.0000000000000D+00  0.0000000000000D+00
274  2.7300000000000D+00  0.0000000000000D+00  0.0000000000000D+00
275  2.7400000000000D+00  0.0000000000000D+00  0.0000000000000D+00
276  2.7500000000000D+00  0.0000000000000D+00  0.0000000000000D+00
277  2.7600000000000D+00  0.0000000000000D+00  0.0000000000000D+00
278  2.7700000000000D+00  0.0000000000000D+00  0.0000000000000D+00
279  2.7800000000000D+00  0.0000000000000D+00  0.0000000000000D+00
280  2.7900000000000D+00  0.0000000000000D+00  0.0000000000000D+00
281  2.8000000000000D+00  0.0000000000000D+00  0.0000000000000D+00
282  2.8100000000000D+00  0.0000000000000D+00  0.0000000000000D+00
283  2.8200000000000D+00  0.0000000000000D+00  0.0000000000000D+00
284  2.8300000000000D+00  0.0000000000000D+00  0.0000000000000D+00
285  2.8400000000000D+00  0.0000000000000D+00  0.0000000000000D+00
286  2.8500000000000D+00  0.0000000000000D+00  0.0000000000000D+00
287  2.8600000000000D+00  0.0000000000000D+00  0.0000000000000D+00
288  2.8700000000000D+00  0.0000000000000D+00  0.0000000000000D+00
289  2.8800000000000D+00  0.0000000000000D+00  0.0000000000000D+00
290  2.8900000000000D+00  0.0000000000000D+00  0.0000000000000D+00
291  2.9000000000000D+00  0.0000000000000D+00  0.0000000000000D+00
292  2.9100000000000D+00  0.0000000000000D+00  0.0000000000000D+00
293  2.9200000000000D+00  0.0000000000000D+00  0.0000000000000D+00
294  2.9300000000000D+00  0.0000000000000D+00  0.0000000000000D+00
295  2.9400000000000D+00  0.0000000000000D+00  0.0000000000000D+00
296  2.9500000000000D+00  0.0000000000000D+00  0.0000000000000D+00
297  2.9600000000000D+00  0.0000000000000D+00  0.0000000000000D+00
298  2.9700000000000D+00  0.0000000000000D+00  0.0000000000000D+00
299  2.9800000000000D+00  0.0000000000000D+00  0.0000000000000D+00
300  2.9900000000000D+00  0.0000000000000D+00  0.0000000000000D+00
301  3.0000000000000D+00  0.0000000000000D+00  0.0000000000000D+00
302  3.0100000000000D+00  0.0000000000000D+00  0.0000000000000D+00
303  3.0200000000000D+00  0.0000000000000D+00  0.0000000000000D+00
304  3.0300000000000D+00  0.0000000000000D+00  0.0000000000000D+00
305  3.0400000000000D+00  0.0000000000000D+00  0.0000000000000D+00
306  3.0500000000000D+00  0.0000000000000D+00  0.0000000000000D+00
307  3.0600000000000D+00  0.0000000000000D+00  0.0000000000000D+00
308  3.0700000000000D+00  0.0000000000000D+00  0.0000000000000D+00
309  3.0800000000000D+00  0.0000000000000D+00  0.0000000000000D+00
310  3.0900000000000D+00  0.0000000000000D+00  0.0000000000000D+00
311  3.1000000000000D+00  0.0000000000000D+00  0.0000000000000D+00
312  3.1100000000000D+00  0.0000000000000D+00  0.0000000000000D+00
313  3.1200000000000D+00  0.0000000000000D+00  0.0000000000000D+00
314  3.1300000000000D+00  0.0000000000000D+00  0.0000000000000D+00
315  3.1400000000000D+00  0.0000000000000D+00  0.0000000000000D+00
316  3.1500000000000D+00  0.0000000000000D+00  0.0000000000000D+00
317  3.1600000000000D+00  0.0000000000000D+00  0.0000000000000D+00
318  3.1700000000000D+00  0.0000000000000D+00  0.0000000000000D+00
319  3.1800000000000D+00  0.0000000000000D+00  0.0000000000000D+00
320  3.1900000000000D+00  0.0000000000000D+00  0.0000000000000D+00
321  3.2000000000000D+00  0.0000000000000D+00  0.0000000000000D+00
322  3.2100000000000D+00  0.0000000000000D+00  0.0000000000000D+00
323  3.2200000000000D+00  0.0000000000000D+00  0.0000000000000D+00
324  3.2300000000000D+00  0.0000000000000D+00  0.0000000000000D+00
325  3.2400000000000D+00  0.0000000000000D+00  0.0000000000000D+00
326  3.2500000000000D+00  0.0000000000000D+00  0.0000000000000D+00
327  3.2600000000000D+00  0.0000000000000D+00  0.0000000000000D+00
328  3.2700000000000D+00  0.0000000000000D+00  0.0000000000000D+00
329  3.2800000000000D+00  0.0000000000000D+00  0.0000000000000D+00
330  3.2900000000000D+00  0.0000000000000D+00  0.0000000000000D+00
331  3.3000000000000D+00  0.0000000000000D+00  0.0000000000000D+00
332  3.3100000000000D+00  0.0000000000000D+00  0.0000000000000D+00
333  3.3200000000000D+00  0.0000000000000D+00  0.0000000000000D+00
334  3.3300000000000D+00  0.0000000000000D+00  0.0000000000000D+00
335  3.3400000000000D+00  0.0000000000000D+00  0.0000000000000D+00
336  3.3500000000000D+00  0.0000000000000D+00  0.0000000000000D+00
337  3.3600000000000D+00  0.0000000000000D+00  0.0000000000000D+00
338  3.3700000000000D+00  0.0000000000000D+00  0.0000000000000D+00
339  3.3800000000000D+00  0.0000000000000D+00  0.0000000000000D+00
340  3.3900000000000D+00  0.0000000000000D+00  0.0000000000000D+00
341  3.4000000000000D+00  0.0000000000000D+00  0.0000000000000D+00
342  3.4100000000000D+00  0.0000000000000D+00  0.0000000000000D+00
343  3.4200000000000D+00  0.0000000000000D+00  0.0000000000000D+00
344  3.4300000000000D+00  0.0000000000000D+00  0.0000000000000D+00
345  3.4400000000000D+00  0.0000000000000D+00  0.0000000000000D+00
346  3.4500000000000D+00  0.0000000000000D+00  0.0000000000000D+00
347  3.4600000000000D+00  0.0000000000000D+00  0.0000000000000D+00
348  3.4700000000000D+00  0.0000000000000D+00  0.0000000000000D+00
349  3.4800000000000D+00  0.0000000000000D+00  0.0000000000000D+00
350  3.4900000000000D+00  0.0000000000000D+00  0.0000000000000D+00
351  3.5000000000000D+00  0.0000000000000D+00  0.0000000000000D+00
352  3.5100000000000D+00  0.0000000000000D+00  0.0000000000000D+00
353  3.5200000000000D+00  0.0000000000000D+00  0.0000000000000D+00
354  3.5300000000000D+00  0.0000000000000D+00  0.0000000000000D+00
355  3.5400000000000D+00  0.0000000000000D+00  0.0000000000000D+00
356  3.5500000000000D+00  0.0000000000000D+00  0.0000000000000D+00
357  3.5600000000000D+00  0.0000000000000D+00  0.0000000000000D+00
358  3.5700000000000D+00  0.0000000000000D+00  0.0000000000000D+00
359  3.5800000000000D+00  0.0000000000000D+00  0.0000000000000D+00
360  3.5900000000000D+00  0.0000000000000D+00  0.0000000000000D+00
361  3.6000000000000D+00  0.0000000000000D+00  0.0000000000000D+00
362  3.6100000000000D+00  0.0000000000000D+00  0.0000000000000D+00
363  3.6200000000000D+00  0.0000000000000D+00  0.0000000000000D+00
364  3.6300000000000D+00  0.0000000000000D+00  0.0000000000000D+00
365  3.6400000000000D+00  0.0000000000000D+00  0.0000000000000D+00
366  3.6500000000000D+00  0.0000000000000D+00  0.0000000000000D+00
367  3.6600000000000D+00  0.0000000000000D+00  0.0000000000000D+00
368  3.6700000000000D+00  0.0000000000000D+00  0.0000000000000D+00
369  3.6800000000000D+00  0.0000000000000D+00  0.0000000000000D+00
370  3.6900000000000D+00  0.0000000000000D+00  0.0000000000000D+00
371  3.7000000000000D+00  0.0000000000000D+00  0.0000000000000D+00
372  3.7100000000000D+00  0.0000000000000D+00  0.0000000000000D+00
373  3.7200000000000D+00  0.0000000000000D+00  0.0000000000000D+00
374  3.7300000000000D+00  0.0000000000000D+00  0.0000000000000D+00
375  3.7400000000000D+00  0.0000000000000D+00  0.0000000000000D+00
376  3.7500000000000D+00  0.0000000000000D+00  0.0000000000000D+00
377  3.7600000000000D+00  0.0000000000000D+00  0.0000000000000D+00
378  3.7700000000000D+00  0.0000000000000D+00  0.0000000000000D+00
379  3.7800000000000D+00  0.0000000000000D+00  0.0000000000000D+00
380  3.7900000000000D+00  0.0000000000000D+00  0.0000000000000D+00
381  3.8000000000000D+00  0.0000000000000D+00  0.0000000000000D+00
382  3.8100000000000D+00  0.0000000000000D+00  0.0000000000000D+00
383  3.8200000000000D+00  0.0000000000000D+00  0.0000000000000D+00
384  3.8300000000000D+00  0.0000000000000D+00  0.0000000000000D+00
385  3.8400000000000D+00  0.0000000000000D+00  0.0000000000000D+00
386  3.8500000000000D+00  0.0000000000000D+00  0.0000000000000D+00
387  3.8600000000000D+00  0.0000000000000D+00  0.0000000000000D+00
388  3.8700000000000D+00  0.0000000000000D+00  0.0000000000000D+00
389  3.8800000000000D+00  0.0000000000000D+00  0.0000000000000D+00
390  3.8900000000000D+00  0.0000000000000D+00  0.0000000000000D+00
391  3.9000000000000D+00  0.0000000000000D+00  0.0000000000000D+00
392  3.9100000000000D+00  0.0000000000000D+00  0.0000000000000D+00
393  3.9200000000000D+00  0.0000000000000D+00  0.0000000000000D+00
394  3.9300000000000D+00  0.0000000000000D+00  0.0000000000000D+00
395  3.9400000000000D+00  0.0000000000000D+00  0.0000000000000D+00
396  3.9500000000000D+00  0.0000000000000D+00  0.0000000000000D+00
397  3.9600000000000D+00  0.0000000000000D+00  0.0000000000000D+00
398  3.9700000000000D+00  0.0000000000000D+00  0.0000000000000D+00
399  3.9800000000000D+00  0.0000000000000D+00  0.0000000000000D+00
400  3.9900000000000D+00  0.0000000000000D+00  0.0000000000000D+00
1                        -6.7434097172726D+00 -2.4071947005485D+00
1  0.0000000000000D+00  5.0898441017466D-10 -6.6171596674325D-10
2  1.0000000000000D-02  2.2081262775297D-03 -9.8868770538933D-04
3  2.0000000000000D-02  8.8212311547737D-03 -3.9454244100508D-03
4  3.0000000000000D-02  1.9805548689859D-02 -8.8422915825695D-03
5  4.0000000000000D-02  3.5104988464984D-02 -1.5632960337635D-02
6  5.0000000000000D-02  5.4641413898779D-02 -2.4252993236658D-02
7  6.0000000000000D-02  7.8315030055654D-02 -3.4620264414249D-02
8  7.0000000000000D-02  1.0600487913199D-01 -4.6635495649324D-02
9  8.0000000000000D-02  1.3756944129012D-01 -6.0182905337895D-02
10  9.0000000000000D-02  1.7284733801036D-01 -7.5130966676851D-02
11  1.0000000000000D-01  2.1165813464127D-01 -9.1333270737378D-02
12  1.1000000000000D-01  2.5380323834987D-01 -1.0862948949603D-01
13  1.2000000000000D-01  2.9906688720952D-01 -1.2684643330380D-01
14  1.3000000000000D-01  3.4721722571484D-01 -1.4579919671209D-01
15  1.4000000000000D-01  3.9800746158270D-01 -1.6529238604141D-01
16  1.5000000000000D-01  4.5117709828749D-01 -1.8512142157815D-01
17  1.6000000000000D-01  5.0645323738995D-01 -2.0507390681762D-01
18  1.7000000000000D-01  5.6355194435332D-01 -2.2493105674253D-01
19  1.8000000000000D-01  6.2217967120030D-01 -2.4446917673629D-01
20  1.9000000000000D-01  6.8203472905183D-01 -2.6346118338274D-01
21  2.0000000000000D-01  7.4280880330469D-01 -2.8167815810108D-01
22  2.1000000000000D-01  8.0418850395211D-01 -2.9889092430816D-01
23  2.2000000000000D-01  8.6585694333156D-01 -3.1487163859273D-01
24  2.3000000000000D-01  9.2749533339761D-01 -3.2939538622896D-01
25  2.4000000000000D-01  9.8878459446759D-01 -3.4224177125155D-01
26  2.5000000000000D-01  1.0494069672750D+00 -3.5319649126355D-01
27  2.6000000000000D-01  1.1090476200912D+00 -3.6205288715141D-01
28  2.7000000000000D-01  1.1673962426413D+00 -3.6861345794124D-01
29  2.8000000000000D-01  1.2241486185464D+00 -3.7269133114604D-01
30  2.9000000000000D-01  1.2790081680740D+00 -3.7411167912678D-01
31  3.0000000000000D-01  1.3316874530663D+00 -3.7271307221993D-01
32  3.1000000000000D-01  1.3819096360529D+00 -3.6834875967095D-01
33  3.2000000000000D-01  1.4294098857304D+00 -3.6088786975672D-01
34  3.3000000000000D-01  1.4739367212107D+00 -3.5021652087860D-01
35  3.4000000000000D-01  1.5152532877068D+00 -3.3623883586092D-01
36  3.5000000000000D-01  1.5531385566297D+00 -3.1887785219601D-01
37  3.6000000000000D-01  1.5873884434183D+00 -2.9807632153357D-01
38  3.7000000000000D-01  1.6178168368187D+00 -2.7379739231800D-01
39  3.8000000000000D-01  1.6442565337539D+00 -2.4602517012870D-01
40  3.9000000000000D-01  1.6665600744006D+00 -2.1476515097315D-01
41  4.0000000000000D-01  1.6846004725895D+00 -1.8004452351671D-01
42  4.1000000000000D-01  1.6982718371908D+00 -1.4191233700331D-01
43  4.2000000000000D-01  1.7074898807170D+00 -1.0043953242333D-01