Lu    ONCVPSP-3.3.0  r_core=   1.56315   1.60089   1.45518   1.86943
71.0000     25.0000      180112    zatom,zion,pspd
8 -116133   3     4   600     0    pspcod,pspxc,lmax,lloc,mmax,r2well
5.99000000  4.00000000  0.00000000    rchrg fchrg qchrg
2     2     2     2     0    nproj
1     1           extension_switch
0                         1.2901600982686D+01  1.3388363411140D+00
1  0.0000000000000D+00 -1.2256468062688D-10  6.4261135301891D-10
2  1.0000000000000D-02  4.7052272994496D-02 -2.0371339060441D-02
3  2.0000000000000D-02  9.4063760182946D-02 -4.0653578729935D-02
4  3.0000000000000D-02  1.4099372233001D-01 -6.0758424333306D-02
5  4.0000000000000D-02  1.8780151173163D-01 -8.0599178619723D-02
6  5.0000000000000D-02  2.3444661398699D-01 -1.0009151062241D-01
7  6.0000000000000D-02  2.8088868506642D-01 -1.1915418915696D-01
8  7.0000000000000D-02  3.2708758225317D-01 -1.3770976993419D-01
9  8.0000000000000D-02  3.7300338765932D-01 -1.5568522590633D-01
10  9.0000000000000D-02  4.1859642316654D-01 -1.7301251125330D-01
11  1.0000000000000D-01  4.6382725581708D-01 -1.8962905034124D-01
12  1.1000000000000D-01  5.0865669287958D-01 -2.0547814403560D-01
13  1.2000000000000D-01  5.5304576603216D-01 -2.2050928691412D-01
14  1.3000000000000D-01  5.9695570434137D-01 -2.3467839018618D-01
15  1.4000000000000D-01  6.4034789596522D-01 -2.4794790646948D-01
16  1.5000000000000D-01  6.8318383876776D-01 -2.6028685398505D-01
17  1.6000000000000D-01  7.2542508029969D-01 -2.7167073919100D-01
18  1.7000000000000D-01  7.6703314786741D-01 -2.8208137836470D-01
19  1.8000000000000D-01  8.0796946968085D-01 -2.9150662014367D-01
20  1.9000000000000D-01  8.4819528833151D-01 -2.9993997252850D-01
21  2.0000000000000D-01  8.8767156810429D-01 -3.0738013931653D-01
22  2.1000000000000D-01  9.2635889786467D-01 -3.1383047235359D-01
23  2.2000000000000D-01  9.6421739148308D-01 -3.1929834734402D-01
24  2.3000000000000D-01  1.0012065879567D+00 -3.2379447222791D-01
25  2.4000000000000D-01  1.0372853535628D+00 -3.2733213830048D-01
26  2.5000000000000D-01  1.0724117885209D+00 -3.2992642529608D-01
27  2.6000000000000D-01  1.1065431407567D+00 -3.3159337257170D-01
28  2.7000000000000D-01  1.1396357294337D+00 -3.3234912928843D-01
29  2.8000000000000D-01  1.1716448809658D+00 -3.3220909709150D-01
30  2.9000000000000D-01  1.2025248802200D+00 -3.3118707921813D-01
31  3.0000000000000D-01  1.2322289395836D+00 -3.2929445021069D-01
32  3.1000000000000D-01  1.2607091884885D+00 -3.2653936047084D-01
33  3.2000000000000D-01  1.2879166858618D+00 -3.2292598975685D-01
34  3.3000000000000D-01  1.3138014578079D+00 -3.1845386339497D-01
35  3.4000000000000D-01  1.3383125626214D+00 -3.1311724445083D-01
36  3.5000000000000D-01  1.3613981849807D+00 -3.0690461438645D-01
37  3.6000000000000D-01  1.3830057608880D+00 -2.9979825382187D-01
38  3.7000000000000D-01  1.4030821345984D+00 -2.9177393392954D-01
39  3.8000000000000D-01  1.4215737484238D+00 -2.8280072773149D-01
40  3.9000000000000D-01  1.4384268659104D+00 -2.7284094914797D-01
41  4.0000000000000D-01  1.4535878284741D+00 -2.6185022608366D-01
42  4.1000000000000D-01  1.4670033451444D+00 -2.4977771214486D-01
43  4.2000000000000D-01  1.4786208146110D+00 -2.3656643978037D-01
44  4.3000000000000D-01  1.4883886783031D+00 -2.2215381574892D-01
45  4.4000000000000D-01  1.4962568027571D+00 -2.0647225785972D-01
46  4.5000000000000D-01  1.5021768890572D+00 -1.8944996993382D-01
47  4.6000000000000D-01  1.5061029066607D+00 -1.7101184991655D-01
48  4.7000000000000D-01  1.5079915484650D+00 -1.5108052406157D-01
49  4.8000000000000D-01  1.5078027035319D+00 -1.2957749813072D-01
50  4.9000000000000D-01  1.5054999434670D+00 -1.0642441463779D-01
51  5.0000000000000D-01  1.5010510180673D+00 -8.1544403334100D-02
52  5.1000000000000D-01  1.4944283554952D+00 -5.4863510416135D-02
53  5.2000000000000D-01  1.4856095619334D+00 -2.6312190355255D-02
54  5.3000000000000D-01  1.4745779154052D+00  4.1731571706046D-03
55  5.4000000000000D-01  1.4613228482418D+00  3.6648623996719D-02
56  5.5000000000000D-01  1.4458404125183D+00  7.1161223628634D-02
57  5.6000000000000D-01  1.4281337226917D+00  1.0774733542721D-01
58  5.7000000000000D-01  1.4082133696419D+00  1.4643118398019D-01
59  5.8000000000000D-01  1.3860978003571D+00  1.8722337513097D-01
60  5.9000000000000D-01  1.3618136576097D+00  2.3011951018412D-01
61  6.0000000000000D-01  1.3353960741465D+00  2.7509889958148D-01
62  6.1000000000000D-01  1.3068889161632D+00  3.2212339684362D-01
63  6.2000000000000D-01  1.2763449711503D+00  3.7113637278965D-01
64  6.3000000000000D-01  1.2438260755822D+00  4.2206184899387D-01
65  6.4000000000000D-01  1.2094031783702D+00  4.7480380811609D-01
66  6.5000000000000D-01  1.1731563365188D+00  5.2924569715173D-01
67  6.6000000000000D-01  1.1351746399918D+00  5.8525013782176D-01
68  6.7000000000000D-01  1.0955560634235D+00  6.4265885626012D-01
69  6.8000000000000D-01  1.0544072429857D+00  7.0129284188161D-01
70  6.9000000000000D-01  1.0118431774378D+00  7.6095274285301D-01
71  7.0000000000000D-01  9.6798685313288D-01  8.2141950298188D-01
72  7.1000000000000D-01  9.2296879353909D-01  8.8245524206975D-01
73  7.2000000000000D-01  8.7692653462283D-01  9.4380437893478D-01
74  7.3000000000000D-01  8.3000402825159D-01  1.0051949933851D+00
75  7.4000000000000D-01  7.8235097657762D-01  1.0663404204673D+00
76  7.5000000000000D-01  7.3412210115854D-01  1.1269410673770D+00
77  7.6000000000000D-01  6.8547635135364D-01  1.1866864404893D+00
78  7.7000000000000D-01  6.3657605728059D-01  1.2452573671486D+00
79  7.8000000000000D-01  5.8758603333155D-01  1.3023283941327D+00
80  7.9000000000000D-01  5.3867263891248D-01  1.3575703421356D+00
81  8.0000000000000D-01  4.9000280367965D-01  1.4106529932332D+00
82  8.1000000000000D-01  4.4174302509282D-01  1.4612478861285D+00
83  8.2000000000000D-01  3.9405834657826D-01  1.5090311920606D+00
84  8.3000000000000D-01  3.4711132498960D-01  1.5536866426239D+00
85  8.4000000000000D-01  3.0106099636381D-01  1.5949084794182D+00
86  8.5000000000000D-01  2.5606184918805D-01  1.6324043944420D+00
87  8.6000000000000D-01  2.1226281451689D-01  1.6658984294910D+00
88  8.7000000000000D-01  1.6980628230394D-01  1.6951338025242D+00
89  8.8000000000000D-01  1.2882715323685D-01  1.7198756290397D+00
90  8.9000000000000D-01  8.9451935186718D-02  1.7399135069523D+00
91  9.0000000000000D-01  5.1797893104903D-02  1.7550639343024D+00
92  9.1000000000000D-01  1.5972260820984D-02  1.7651725303255D+00
93  9.2000000000000D-01 -1.7928477279734D-02  1.7701160319916D+00
94  9.3000000000000D-01 -4.9819227290006D-02  1.7698040400440D+00
95  9.4000000000000D-01 -7.9626842773730D-02  1.7641804908314D+00
96  9.5000000000000D-01 -1.0729059170496D-01  1.7532248327972D+00
97  9.6000000000000D-01 -1.3276252815257D-01  1.7369528893486D+00
98  9.7000000000000D-01 -1.5600776438926D-01  1.7154173929424D+00
99  9.8000000000000D-01 -1.7700464003496D-01  1.6887081785378D+00
100  9.9000000000000D-01 -1.9574478584723D-01  1.6569520281607D+00
101  1.0000000000000D+00 -2.1223308073640D-01  1.6203121617882D+00
102  1.0100000000000D+00 -2.2648750168816D-01  1.5789873737490D+00
103  1.0200000000000D+00 -2.3853886728217D-01  1.5332108174697D+00
104  1.0300000000000D+00 -2.4843047656321D-01  1.4832484452691D+00
105  1.0400000000000D+00 -2.5621764605162D-01  1.4293971136370D+00
106  1.0500000000000D+00 -2.6196714872457D-01  1.3719823682324D+00
107  1.0600000000000D+00 -2.6575655969469D-01  1.3113559260860D+00
108  1.0700000000000D+00 -2.6767351433503D-01  1.2478928762086D+00
109  1.0800000000000D+00 -2.6781488540375D-01  1.1819886227284D+00
110  1.0900000000000D+00 -2.6628588652430D-01  1.1140555975864D+00
111  1.1000000000000D+00 -2.6319911012146D-01  1.0445197725118D+00
112  1.1100000000000D+00 -2.5867350843989D-01  9.7381700189268D-01
113  1.1200000000000D+00 -2.5283332692731D-01  9.0238923050361D-01
114  1.1300000000000D+00 -2.4580699958026D-01  8.3068060115619D-01
115  1.1400000000000D+00 -2.3772601619026D-01  7.5913349851044D-01
116  1.1500000000000D+00 -2.2872377160103D-01  6.8818456585843D-01
117  1.1600000000000D+00 -2.1893440720119D-01  6.1826073200118D-01
118  1.1700000000000D+00 -2.0849165479989D-01  5.4977528497042D-01
119  1.1800000000000D+00 -1.9752769279683D-01  4.8312402834555D-01
120  1.1900000000000D+00 -1.8617202447333D-01  4.1868155554166D-01
121  1.2000000000000D+00 -1.7455038763008D-01  3.5679767503643D-01
122  1.2100000000000D+00 -1.6278370432673D-01  2.9779401766437D-01
123  1.2200000000000D+00 -1.5098707897723D-01  2.4196085513593D-01
124  1.2300000000000D+00 -1.3926885233764D-01  1.8955415613565D-01
125  1.2400000000000D+00 -1.2772971792423D-01  1.4079290249048D-01
126  1.2500000000000D+00 -1.1646190667657D-01  9.5856685111012D-02
127  1.2600000000000D+00 -1.0554844504321D-01  5.4883596939375D-02
128  1.2700000000000D+00 -9.5062488107234D-02  1.7968423835759D-02
129  1.2800000000000D+00 -8.5066734776914D-02 -1.4838834299354D-02
130  1.2900000000000D+00 -7.5612946684405D-02 -4.3534018827266D-02
131  1.3000000000000D+00 -6.6741533834511D-02 -6.8159602250795D-02
132  1.3100000000000D+00 -5.8480940821114D-02 -8.8806668819102D-02
133  1.3200000000000D+00 -5.0848496677978D-02 -1.0560929132708D-01
134  1.3300000000000D+00 -4.3851658791107D-02 -1.1873728762012D-01
135  1.3400000000000D+00 -3.7489716098556D-02 -1.2838736087630D-01
136  1.3500000000000D+00 -3.1754527998018D-02 -1.3477955939051D-01
137  1.3600000000000D+00 -2.6630905746460D-02 -1.3815588739559D-01
138  1.3700000000000D+00 -2.2097374931252D-02 -1.3877690008603D-01
139  1.3800000000000D+00 -1.8126870644134D-02 -1.3691879329246D-01
140  1.3900000000000D+00 -1.4687510919966D-02 -1.3287015199451D-01
141  1.4000000000000D+00 -1.1743397658508D-02 -1.2692862492330D-01
142  1.4100000000000D+00 -9.2554460292548D-03 -1.1939750349870D-01
143  1.4200000000000D+00 -7.1822316497693D-03 -1.1058224880373D-01
144  1.4300000000000D+00 -5.4808450882262D-03 -1.0078700675211D-01
145  1.4400000000000D+00 -4.1077442135080D-03 -9.0311147799246D-02
146  1.4500000000000D+00 -3.0195942625994D-03 -7.9445869766493D-02
147  1.4600000000000D+00 -2.1740863145977D-03 -6.8470899718783D-02
148  1.4700000000000D+00 -1.5307241146634D-03 -5.7651333491399D-02
149  1.4800000000000D+00 -1.0515703414678D-03 -4.7234647002792D-02
150  1.4900000000000D+00 -7.0194405001584D-04 -3.7447911171289D-02
151  1.5000000000000D+00 -4.5106035054986D-04 -2.8495244274854D-02
152  1.5100000000000D+00 -2.7260375510880D-04 -2.0557178948709D-02
153  1.5200000000000D+00 -1.4523810811766D-04 -1.3785860216402D-02
154  1.5300000000000D+00 -5.3522997182200D-05 -8.2722473841130D-03
155  1.5400000000000D+00  1.3481486314596D-05 -4.1528257924854D-03
156  1.5500000000000D+00  6.4467012860099D-05 -1.6086700205767D-03
157  1.5600000000000D+00  8.7501688408596D-05 -4.2461384765665D-04
158  1.5700000000000D+00  5.8863163809005D-05 -3.6097482205270D-05
159  1.5800000000000D+00  7.9628419096603D-06  5.7837722279996D-06
160  1.5900000000000D+00 -9.8914801264117D-06 -1.2993063899314D-05
161  1.6000000000000D+00 -1.1439815750700D-06 -1.9853490666497D-06
162  1.6100000000000D+00  2.1784196876132D-06  1.2417730908023D-06
163  1.6200000000000D+00  3.2130090567422D-08  2.4457002595713D-08
164  1.6300000000000D+00 -2.4096457806645D-07  6.9670634695318D-07
165  1.6400000000000D+00  0.0000000000000D+00  0.0000000000000D+00
166  1.6500000000000D+00  0.0000000000000D+00  0.0000000000000D+00
167  1.6600000000000D+00  0.0000000000000D+00  0.0000000000000D+00
168  1.6700000000000D+00  0.0000000000000D+00  0.0000000000000D+00
169  1.6800000000000D+00  0.0000000000000D+00  0.0000000000000D+00
170  1.6900000000000D+00  0.0000000000000D+00  0.0000000000000D+00
171  1.7000000000000D+00  0.0000000000000D+00  0.0000000000000D+00
172  1.7100000000000D+00  0.0000000000000D+00  0.0000000000000D+00
173  1.7200000000000D+00  0.0000000000000D+00  0.0000000000000D+00
174  1.7300000000000D+00  0.0000000000000D+00  0.0000000000000D+00
175  1.7400000000000D+00  0.0000000000000D+00  0.0000000000000D+00
176  1.7500000000000D+00  0.0000000000000D+00  0.0000000000000D+00
177  1.7600000000000D+00  0.0000000000000D+00  0.0000000000000D+00
178  1.7700000000000D+00  0.0000000000000D+00  0.0000000000000D+00
179  1.7800000000000D+00  0.0000000000000D+00  0.0000000000000D+00
180  1.7900000000000D+00  0.0000000000000D+00  0.0000000000000D+00
181  1.8000000000000D+00  0.0000000000000D+00  0.0000000000000D+00
182  1.8100000000000D+00  0.0000000000000D+00  0.0000000000000D+00
183  1.8200000000000D+00  0.0000000000000D+00  0.0000000000000D+00
184  1.8300000000000D+00  0.0000000000000D+00  0.0000000000000D+00
185  1.8400000000000D+00  0.0000000000000D+00  0.0000000000000D+00
186  1.8500000000000D+00  0.0000000000000D+00  0.0000000000000D+00
187  1.8600000000000D+00  0.0000000000000D+00  0.0000000000000D+00
188  1.8700000000000D+00  0.0000000000000D+00  0.0000000000000D+00
189  1.8800000000000D+00  0.0000000000000D+00  0.0000000000000D+00
190  1.8900000000000D+00  0.0000000000000D+00  0.0000000000000D+00
191  1.9000000000000D+00  0.0000000000000D+00  0.0000000000000D+00
192  1.9100000000000D+00  0.0000000000000D+00  0.0000000000000D+00
193  1.9200000000000D+00  0.0000000000000D+00  0.0000000000000D+00
194  1.9300000000000D+00  0.0000000000000D+00  0.0000000000000D+00
195  1.9400000000000D+00  0.0000000000000D+00  0.0000000000000D+00
196  1.9500000000000D+00  0.0000000000000D+00  0.0000000000000D+00
197  1.9600000000000D+00  0.0000000000000D+00  0.0000000000000D+00
198  1.9700000000000D+00  0.0000000000000D+00  0.0000000000000D+00
199  1.9800000000000D+00  0.0000000000000D+00  0.0000000000000D+00
200  1.9900000000000D+00  0.0000000000000D+00  0.0000000000000D+00
201  2.0000000000000D+00  0.0000000000000D+00  0.0000000000000D+00
202  2.0100000000000D+00  0.0000000000000D+00  0.0000000000000D+00
203  2.0200000000000D+00  0.0000000000000D+00  0.0000000000000D+00
204  2.0300000000000D+00  0.0000000000000D+00  0.0000000000000D+00
205  2.0400000000000D+00  0.0000000000000D+00  0.0000000000000D+00
206  2.0500000000000D+00  0.0000000000000D+00  0.0000000000000D+00
207  2.0600000000000D+00  0.0000000000000D+00  0.0000000000000D+00
208  2.0700000000000D+00  0.0000000000000D+00  0.0000000000000D+00
209  2.0800000000000D+00  0.0000000000000D+00  0.0000000000000D+00
210  2.0900000000000D+00  0.0000000000000D+00  0.0000000000000D+00
211  2.1000000000000D+00  0.0000000000000D+00  0.0000000000000D+00
212  2.1100000000000D+00  0.0000000000000D+00  0.0000000000000D+00
213  2.1200000000000D+00  0.0000000000000D+00  0.0000000000000D+00
214  2.1300000000000D+00  0.0000000000000D+00  0.0000000000000D+00
215  2.1400000000000D+00  0.0000000000000D+00  0.0000000000000D+00
216  2.1500000000000D+00  0.0000000000000D+00  0.0000000000000D+00
217  2.1600000000000D+00  0.0000000000000D+00  0.0000000000000D+00
218  2.1700000000000D+00  0.0000000000000D+00  0.0000000000000D+00
219  2.1800000000000D+00  0.0000000000000D+00  0.0000000000000D+00
220  2.1900000000000D+00  0.0000000000000D+00  0.0000000000000D+00
221  2.2000000000000D+00  0.0000000000000D+00  0.0000000000000D+00
222  2.2100000000000D+00  0.0000000000000D+00  0.0000000000000D+00
223  2.2200000000000D+00  0.0000000000000D+00  0.0000000000000D+00
224  2.2300000000000D+00  0.0000000000000D+00  0.0000000000000D+00
225  2.2400000000000D+00  0.0000000000000D+00  0.0000000000000D+00
226  2.2500000000000D+00  0.0000000000000D+00  0.0000000000000D+00
227  2.2600000000000D+00  0.0000000000000D+00  0.0000000000000D+00
228  2.2700000000000D+00  0.0000000000000D+00  0.0000000000000D+00
229  2.2800000000000D+00  0.0000000000000D+00  0.0000000000000D+00
230  2.2900000000000D+00  0.0000000000000D+00  0.0000000000000D+00
231  2.3000000000000D+00  0.0000000000000D+00  0.0000000000000D+00
232  2.3100000000000D+00  0.0000000000000D+00  0.0000000000000D+00
233  2.3200000000000D+00  0.0000000000000D+00  0.0000000000000D+00
234  2.3300000000000D+00  0.0000000000000D+00  0.0000000000000D+00
235  2.3400000000000D+00  0.0000000000000D+00  0.0000000000000D+00
236  2.3500000000000D+00  0.0000000000000D+00  0.0000000000000D+00
237  2.3600000000000D+00  0.0000000000000D+00  0.0000000000000D+00
238  2.3700000000000D+00  0.0000000000000D+00  0.0000000000000D+00
239  2.3800000000000D+00  0.0000000000000D+00  0.0000000000000D+00
240  2.3900000000000D+00  0.0000000000000D+00  0.0000000000000D+00
241  2.4000000000000D+00  0.0000000000000D+00  0.0000000000000D+00
242  2.4100000000000D+00  0.0000000000000D+00  0.0000000000000D+00
243  2.4200000000000D+00  0.0000000000000D+00  0.0000000000000D+00
244  2.4300000000000D+00  0.0000000000000D+00  0.0000000000000D+00
245  2.4400000000000D+00  0.0000000000000D+00  0.0000000000000D+00
246  2.4500000000000D+00  0.0000000000000D+00  0.0000000000000D+00
247  2.4600000000000D+00  0.0000000000000D+00  0.0000000000000D+00
248  2.4700000000000D+00  0.0000000000000D+00  0.0000000000000D+00
249  2.4800000000000D+00  0.0000000000000D+00  0.0000000000000D+00
250  2.4900000000000D+00  0.0000000000000D+00  0.0000000000000D+00
251  2.5000000000000D+00  0.0000000000000D+00  0.0000000000000D+00
252  2.5100000000000D+00  0.0000000000000D+00  0.0000000000000D+00
253  2.5200000000000D+00  0.0000000000000D+00  0.0000000000000D+00
254  2.5300000000000D+00  0.0000000000000D+00  0.0000000000000D+00
255  2.5400000000000D+00  0.0000000000000D+00  0.0000000000000D+00
256  2.5500000000000D+00  0.0000000000000D+00  0.0000000000000D+00
257  2.5600000000000D+00  0.0000000000000D+00  0.0000000000000D+00
258  2.5700000000000D+00  0.0000000000000D+00  0.0000000000000D+00
259  2.5800000000000D+00  0.0000000000000D+00  0.0000000000000D+00
260  2.5900000000000D+00  0.0000000000000D+00  0.0000000000000D+00
261  2.6000000000000D+00  0.0000000000000D+00  0.0000000000000D+00
262  2.6100000000000D+00  0.0000000000000D+00  0.0000000000000D+00
263  2.6200000000000D+00  0.0000000000000D+00  0.0000000000000D+00
264  2.6300000000000D+00  0.0000000000000D+00  0.0000000000000D+00
265  2.6400000000000D+00  0.0000000000000D+00  0.0000000000000D+00
266  2.6500000000000D+00  0.0000000000000D+00  0.0000000000000D+00
267  2.6600000000000D+00  0.0000000000000D+00  0.0000000000000D+00
268  2.6700000000000D+00  0.0000000000000D+00  0.0000000000000D+00
269  2.6800000000000D+00  0.0000000000000D+00  0.0000000000000D+00
270  2.6900000000000D+00  0.0000000000000D+00  0.0000000000000D+00
271  2.7000000000000D+00  0.0000000000000D+00  0.0000000000000D+00
272  2.7100000000000D+00  0.0000000000000D+00  0.0000000000000D+00
273  2.7200000000000D+00  0.0000000000000D+00  0.0000000000000D+00
274  2.7300000000000D+00  0.0000000000000D+00  0.0000000000000D+00
275  2.7400000000000D+00  0.0000000000000D+00  0.0000000000000D+00
276  2.7500000000000D+00  0.0000000000000D+00  0.0000000000000D+00
277  2.7600000000000D+00  0.0000000000000D+00  0.0000000000000D+00
278  2.7700000000000D+00  0.0000000000000D+00  0.0000000000000D+00
279  2.7800000000000D+00  0.0000000000000D+00  0.0000000000000D+00
280  2.7900000000000D+00  0.0000000000000D+00  0.0000000000000D+00
281  2.8000000000000D+00  0.0000000000000D+00  0.0000000000000D+00
282  2.8100000000000D+00  0.0000000000000D+00  0.0000000000000D+00
283  2.8200000000000D+00  0.0000000000000D+00  0.0000000000000D+00
284  2.8300000000000D+00  0.0000000000000D+00  0.0000000000000D+00
285  2.8400000000000D+00  0.0000000000000D+00  0.0000000000000D+00
286  2.8500000000000D+00  0.0000000000000D+00  0.0000000000000D+00
287  2.8600000000000D+00  0.0000000000000D+00  0.0000000000000D+00
288  2.8700000000000D+00  0.0000000000000D+00  0.0000000000000D+00
289  2.8800000000000D+00  0.0000000000000D+00  0.0000000000000D+00
290  2.8900000000000D+00  0.0000000000000D+00  0.0000000000000D+00
291  2.9000000000000D+00  0.0000000000000D+00  0.0000000000000D+00
292  2.9100000000000D+00  0.0000000000000D+00  0.0000000000000D+00
293  2.9200000000000D+00  0.0000000000000D+00  0.0000000000000D+00
294  2.9300000000000D+00  0.0000000000000D+00  0.0000000000000D+00
295  2.9400000000000D+00  0.0000000000000D+00  0.0000000000000D+00
296  2.9500000000000D+00  0.0000000000000D+00  0.0000000000000D+00
297  2.9600000000000D+00  0.0000000000000D+00  0.0000000000000D+00
298  2.9700000000000D+00  0.0000000000000D+00  0.0000000000000D+00
299  2.9800000000000D+00  0.0000000000000D+00  0.0000000000000D+00
300  2.9900000000000D+00  0.0000000000000D+00  0.0000000000000D+00
301  3.0000000000000D+00  0.0000000000000D+00  0.0000000000000D+00
302  3.0100000000000D+00  0.0000000000000D+00  0.0000000000000D+00
303  3.0200000000000D+00  0.0000000000000D+00  0.0000000000000D+00
304  3.0300000000000D+00  0.0000000000000D+00  0.0000000000000D+00
305  3.0400000000000D+00  0.0000000000000D+00  0.0000000000000D+00
306  3.0500000000000D+00  0.0000000000000D+00  0.0000000000000D+00
307  3.0600000000000D+00  0.0000000000000D+00  0.0000000000000D+00
308  3.0700000000000D+00  0.0000000000000D+00  0.0000000000000D+00
309  3.0800000000000D+00  0.0000000000000D+00  0.0000000000000D+00
310  3.0900000000000D+00  0.0000000000000D+00  0.0000000000000D+00
311  3.1000000000000D+00  0.0000000000000D+00  0.0000000000000D+00
312  3.1100000000000D+00  0.0000000000000D+00  0.0000000000000D+00
313  3.1200000000000D+00  0.0000000000000D+00  0.0000000000000D+00
314  3.1300000000000D+00  0.0000000000000D+00  0.0000000000000D+00
315  3.1400000000000D+00  0.0000000000000D+00  0.0000000000000D+00
316  3.1500000000000D+00  0.0000000000000D+00  0.0000000000000D+00
317  3.1600000000000D+00  0.0000000000000D+00  0.0000000000000D+00
318  3.1700000000000D+00  0.0000000000000D+00  0.0000000000000D+00
319  3.1800000000000D+00  0.0000000000000D+00  0.0000000000000D+00
320  3.1900000000000D+00  0.0000000000000D+00  0.0000000000000D+00
321  3.2000000000000D+00  0.0000000000000D+00  0.0000000000000D+00
322  3.2100000000000D+00  0.0000000000000D+00  0.0000000000000D+00
323  3.2200000000000D+00  0.0000000000000D+00  0.0000000000000D+00
324  3.2300000000000D+00  0.0000000000000D+00  0.0000000000000D+00
325  3.2400000000000D+00  0.0000000000000D+00  0.0000000000000D+00
326  3.2500000000000D+00  0.0000000000000D+00  0.0000000000000D+00
327  3.2600000000000D+00  0.0000000000000D+00  0.0000000000000D+00
328  3.2700000000000D+00  0.0000000000000D+00  0.0000000000000D+00
329  3.2800000000000D+00  0.0000000000000D+00  0.0000000000000D+00
330  3.2900000000000D+00  0.0000000000000D+00  0.0000000000000D+00
331  3.3000000000000D+00  0.0000000000000D+00  0.0000000000000D+00
332  3.3100000000000D+00  0.0000000000000D+00  0.0000000000000D+00
333  3.3200000000000D+00  0.0000000000000D+00  0.0000000000000D+00
334  3.3300000000000D+00  0.0000000000000D+00  0.0000000000000D+00
335  3.3400000000000D+00  0.0000000000000D+00  0.0000000000000D+00
336  3.3500000000000D+00  0.0000000000000D+00  0.0000000000000D+00
337  3.3600000000000D+00  0.0000000000000D+00  0.0000000000000D+00
338  3.3700000000000D+00  0.0000000000000D+00  0.0000000000000D+00
339  3.3800000000000D+00  0.0000000000000D+00  0.0000000000000D+00
340  3.3900000000000D+00  0.0000000000000D+00  0.0000000000000D+00
341  3.4000000000000D+00  0.0000000000000D+00  0.0000000000000D+00
342  3.4100000000000D+00  0.0000000000000D+00  0.0000000000000D+00
343  3.4200000000000D+00  0.0000000000000D+00  0.0000000000000D+00
344  3.4300000000000D+00  0.0000000000000D+00  0.0000000000000D+00
345  3.4400000000000D+00  0.0000000000000D+00  0.0000000000000D+00
346  3.4500000000000D+00  0.0000000000000D+00  0.0000000000000D+00
347  3.4600000000000D+00  0.0000000000000D+00  0.0000000000000D+00
348  3.4700000000000D+00  0.0000000000000D+00  0.0000000000000D+00
349  3.4800000000000D+00  0.0000000000000D+00  0.0000000000000D+00
350  3.4900000000000D+00  0.0000000000000D+00  0.0000000000000D+00
351  3.5000000000000D+00  0.0000000000000D+00  0.0000000000000D+00
352  3.5100000000000D+00  0.0000000000000D+00  0.0000000000000D+00
353  3.5200000000000D+00  0.0000000000000D+00  0.0000000000000D+00
354  3.5300000000000D+00  0.0000000000000D+00  0.0000000000000D+00
355  3.5400000000000D+00  0.0000000000000D+00  0.0000000000000D+00
356  3.5500000000000D+00  0.0000000000000D+00  0.0000000000000D+00
357  3.5600000000000D+00  0.0000000000000D+00  0.0000000000000D+00
358  3.5700000000000D+00  0.0000000000000D+00  0.0000000000000D+00
359  3.5800000000000D+00  0.0000000000000D+00  0.0000000000000D+00
360  3.5900000000000D+00  0.0000000000000D+00  0.0000000000000D+00
361  3.6000000000000D+00  0.0000000000000D+00  0.0000000000000D+00
362  3.6100000000000D+00  0.0000000000000D+00  0.0000000000000D+00
363  3.6200000000000D+00  0.0000000000000D+00  0.0000000000000D+00
364  3.6300000000000D+00  0.0000000000000D+00  0.0000000000000D+00
365  3.6400000000000D+00  0.0000000000000D+00  0.0000000000000D+00
366  3.6500000000000D+00  0.0000000000000D+00  0.0000000000000D+00
367  3.6600000000000D+00  0.0000000000000D+00  0.0000000000000D+00
368  3.6700000000000D+00  0.0000000000000D+00  0.0000000000000D+00
369  3.6800000000000D+00  0.0000000000000D+00  0.0000000000000D+00
370  3.6900000000000D+00  0.0000000000000D+00  0.0000000000000D+00
371  3.7000000000000D+00  0.0000000000000D+00  0.0000000000000D+00
372  3.7100000000000D+00  0.0000000000000D+00  0.0000000000000D+00
373  3.7200000000000D+00  0.0000000000000D+00  0.0000000000000D+00
374  3.7300000000000D+00  0.0000000000000D+00  0.0000000000000D+00
375  3.7400000000000D+00  0.0000000000000D+00  0.0000000000000D+00
376  3.7500000000000D+00  0.0000000000000D+00  0.0000000000000D+00
377  3.7600000000000D+00  0.0000000000000D+00  0.0000000000000D+00
378  3.7700000000000D+00  0.0000000000000D+00  0.0000000000000D+00
379  3.7800000000000D+00  0.0000000000000D+00  0.0000000000000D+00
380  3.7900000000000D+00  0.0000000000000D+00  0.0000000000000D+00
381  3.8000000000000D+00  0.0000000000000D+00  0.0000000000000D+00
382  3.8100000000000D+00  0.0000000000000D+00  0.0000000000000D+00
383  3.8200000000000D+00  0.0000000000000D+00  0.0000000000000D+00
384  3.8300000000000D+00  0.0000000000000D+00  0.0000000000000D+00
385  3.8400000000000D+00  0.0000000000000D+00  0.0000000000000D+00
386  3.8500000000000D+00  0.0000000000000D+00  0.0000000000000D+00
387  3.8600000000000D+00  0.0000000000000D+00  0.0000000000000D+00
388  3.8700000000000D+00  0.0000000000000D+00  0.0000000000000D+00
389  3.8800000000000D+00  0.0000000000000D+00  0.0000000000000D+00
390  3.8900000000000D+00  0.0000000000000D+00  0.0000000000000D+00
391  3.9000000000000D+00  0.0000000000000D+00  0.0000000000000D+00
392  3.9100000000000D+00  0.0000000000000D+00  0.0000000000000D+00
393  3.9200000000000D+00  0.0000000000000D+00  0.0000000000000D+00
394  3.9300000000000D+00  0.0000000000000D+00  0.0000000000000D+00
395  3.9400000000000D+00  0.0000000000000D+00  0.0000000000000D+00
396  3.9500000000000D+00  0.0000000000000D+00  0.0000000000000D+00
397  3.9600000000000D+00  0.0000000000000D+00  0.0000000000000D+00
398  3.9700000000000D+00  0.0000000000000D+00  0.0000000000000D+00
399  3.9800000000000D+00  0.0000000000000D+00  0.0000000000000D+00
400  3.9900000000000D+00  0.0000000000000D+00  0.0000000000000D+00
401  4.0000000000000D+00  0.0000000000000D+00  0.0000000000000D+00
402  4.0100000000000D+00  0.0000000000000D+00  0.0000000000000D+00
403  4.0200000000000D+00  0.0000000000000D+00  0.0000000000000D+00
404  4.0300000000000D+00  0.0000000000000D+00  0.0000000000000D+00
405  4.0400000000000D+00  0.0000000000000D+00  0.0000000000000D+00
406  4.0500000000000D+00  0.0000000000000D+00  0.0000000000000D+00
407  4.0600000000000D+00  0.0000000000000D+00  0.0000000000000D+00
408  4.0700000000000D+00  0.0000000000000D+00  0.0000000000000D+00
409  4.0800000000000D+00  0.0000000000000D+00  0.0000000000000D+00
410  4.0900000000000D+00  0.0000000000000D+00  0.0000000000000D+00
411  4.1000000000000D+00  0.0000000000000D+00  0.0000000000000D+00
412  4.1100000000000D+00  0.0000000000000D+00  0.0000000000000D+00
413  4.1200000000000D+00  0.0000000000000D+00  0.0000000000000D+00
414  4.1300000000000D+00  0.0000000000000D+00  0.0000000000000D+00
415  4.1400000000000D+00  0.0000000000000D+00  0.0000000000000D+00
416  4.1500000000000D+00  0.0000000000000D+00  0.0000000000000D+00
417  4.1600000000000D+00  0.0000000000000D+00  0.0000000000000D+00
418  4.1700000000000D+00  0.0000000000000D+00  0.0000000000000D+00
419  4.1800000000000D+00  0.0000000000000D+00  0.0000000000000D+00
420  4.1900000000000D+00  0.0000000000000D+00  0.0000000000000D+00
421  4.2000000000000D+00  0.0000000000000D+00  0.0000000000000D+00
422  4.2100000000000D+00  0.0000000000000D+00  0.0000000000000D+00
423  4.2200000000000D+00  0.0000000000000D+00  0.0000000000000D+00
424  4.2300000000000D+00  0.0000000000000D+00  0.0000000000000D+00
425  4.2400000000000D+00  0.0000000000000D+00  0.0000000000000D+00
426  4.2500000000000D+00  0.0000000000000D+00  0.0000000000000D+00
427  4.2600000000000D+00  0.0000000000000D+00  0.0000000000000D+00
428  4.2700000000000D+00  0.0000000000000D+00  0.0000000000000D+00
429  4.2800000000000D+00  0.0000000000000D+00  0.0000000000000D+00
430  4.2900000000000D+00  0.0000000000000D+00  0.0000000000000D+00
431  4.3000000000000D+00  0.0000000000000D+00  0.0000000000000D+00
432  4.3100000000000D+00  0.0000000000000D+00  0.0000000000000D+00
433  4.3200000000000D+00  0.0000000000000D+00  0.0000000000000D+00
434  4.3300000000000D+00  0.0000000000000D+00  0.0000000000000D+00
435  4.3400000000000D+00  0.0000000000000D+00  0.0000000000000D+00
436  4.3500000000000D+00  0.0000000000000D+00  0.0000000000000D+00
437  4.3600000000000D+00  0.0000000000000D+00  0.0000000000000D+00
438  4.3700000000000D+00  0.0000000000000D+00  0.0000000000000D+00
439  4.3800000000000D+00  0.0000000000000D+00  0.0000000000000D+00
440  4.3900000000000D+00  0.0000000000000D+00  0.0000000000000D+00
441  4.4000000000000D+00  0.0000000000000D+00  0.0000000000000D+00
442  4.4100000000000D+00  0.0000000000000D+00  0.0000000000000D+00
443  4.4200000000000D+00  0.0000000000000D+00  0.0000000000000D+00