Lu    ONCVPSP-3.3.0  r_core=   1.56315   1.60089   1.60089   2.67377
71.0000     11.0000      180112    zatom,zion,pspd
8 -116133   3     4   600     0    pspcod,pspxc,lmax,lloc,mmax,r2well
5.99000000  4.00000000  0.00000000    rchrg fchrg qchrg
2     2     2     2     0    nproj
1     1           extension_switch
0                         1.2213881180122D+01  9.4367411478875D-01
1  0.0000000000000D+00 -3.1719443738254D-10  1.5326156455053D-09
2  1.0000000000000D-02  5.8734323673785D-02 -3.1070768261551D-02
3  2.0000000000000D-02  1.1735837941166D-01 -6.1915114523276D-02
4  3.0000000000000D-02  1.7576245107335D-01 -9.2308981725353D-02
5  4.0000000000000D-02  2.3383791986728D-01 -1.2203301210421D-01
6  5.0000000000000D-02  2.9147779750053D-01 -1.5087482077643D-01
7  6.0000000000000D-02  3.4857724092753D-01 -1.7863117914729D-01
8  7.0000000000000D-02  4.0503404294094D-01 -2.0511007990695D-01
9  8.0000000000000D-02  4.6074909316518D-01 -2.3013265690985D-01
10  9.0000000000000D-02  5.1562680440186D-01 -2.5353493511185D-01
11  1.0000000000000D-01  5.6957549973203D-01 -2.7516938794352D-01
12  1.1000000000000D-01  6.2250775629649D-01 -2.9490628199743D-01
13  1.2000000000000D-01  6.7434070224691D-01 -3.1263479167283D-01
14  1.3000000000000D-01  7.2499626397794D-01 -3.2826386941719D-01
15  1.4000000000000D-01  7.7440136140876D-01 -3.4172286039397D-01
16  1.5000000000000D-01  8.2248804977025D-01 -3.5296185374969D-01
17  1.6000000000000D-01  8.6919360706463D-01 -3.6195176610820D-01
18  1.7000000000000D-01  9.1446056708782D-01 -3.6868415644436D-01
19  1.8000000000000D-01  9.5823669863132D-01 -3.7317077503566D-01
20  1.9000000000000D-01  1.0004749322015D+00 -3.7544285271754D-01
21  2.0000000000000D-01  1.0411332363003D+00 -3.7555014012720D-01
22  2.1000000000000D-01  1.0801744459911D+00 -3.7355970997138D-01
23  2.2000000000000D-01  1.1175660471233D+00 -3.6955453854890D-01
24  2.3000000000000D-01  1.1532799201912D+00 -3.6363188576068D-01
25  2.4000000000000D-01  1.1872920483617D+00 -3.5590149560624D-01
26  2.5000000000000D-01  1.2195821946967D+00 -3.4648364166277D-01
27  2.6000000000000D-01  1.2501335540348D+00 -3.3550704423363D-01
28  2.7000000000000D-01  1.2789323853513D+00 -3.2310668771194D-01
29  2.8000000000000D-01  1.3059676307038D+00 -3.0942156820212D-01
30  2.9000000000000D-01  1.3312305270741D+00 -2.9459240255869D-01
31  3.0000000000000D-01  1.3547142175363D+00 -2.7875933071873D-01
32  3.1000000000000D-01  1.3764133682135D+00 -2.6205964351206D-01
33  3.2000000000000D-01  1.3963237974341D+00 -2.4462556802130D-01
34  3.3000000000000D-01  1.4144421233545D+00 -2.2658214203340D-01
35  3.4000000000000D-01  1.4307654360853D+00 -2.0804520817681D-01
36  3.5000000000000D-01  1.4452910000482D+00 -1.8911955698294D-01
37  3.6000000000000D-01  1.4580159918921D+00 -1.6989724636029D-01
38  3.7000000000000D-01  1.4689372788251D+00 -1.5045612284425D-01
39  3.8000000000000D-01  1.4780512416763D+00 -1.3085856750763D-01
40  3.9000000000000D-01  1.4853536463888D+00 -1.1115048661542D-01
41  4.0000000000000D-01  1.4908395669771D+00 -9.1360564013809D-02
42  4.1000000000000D-01  1.4945033622618D+00 -7.1499788896155D-02
43  4.2000000000000D-01  1.4963387079343D+00 -5.1561269025414D-02
44  4.3000000000000D-01  1.4963386847060D+00 -3.1520335757904D-02
45  4.4000000000000D-01  1.4944959224859D+00 -1.1334943353494D-02
46  4.5000000000000D-01  1.4908027996923D+00  9.0536388815068D-03
47  4.6000000000000D-01  1.4852516959826D+00  2.9719847039665D-02
48  4.7000000000000D-01  1.4778352958547D+00  5.0752565012485D-02
49  4.8000000000000D-01  1.4685469397760D+00  7.2253602085655D-02
50  4.9000000000000D-01  1.4573810187224D+00  9.4335922721578D-02
51  5.0000000000000D-01  1.4443334072785D+00  1.1712164910147D-01
52  5.1000000000000D-01  1.4294019297710D+00  1.4073986036050D-01
53  5.2000000000000D-01  1.4125868532857D+00  1.6532421554646D-01
54  5.3000000000000D-01  1.3938914008730D+00  1.9101043012203D-01
55  5.4000000000000D-01  1.3733222777698D+00  2.1793363827317D-01
56  5.5000000000000D-01  1.3508902030820D+00  2.4622567534761D-01
57  5.6000000000000D-01  1.3266104390761D+00  2.7601231639578D-01
58  5.7000000000000D-01  1.3005033100281D+00  3.0741050799326D-01
59  5.8000000000000D-01  1.2725947024837D+00  3.4052563127310D-01
60  5.9000000000000D-01  1.2429165387860D+00  3.7544883436717D-01
61  6.0000000000000D-01  1.2115072158433D+00  4.1225447223974D-01
62  6.1000000000000D-01  1.1784120013255D+00  4.5099769119433D-01
63  6.2000000000000D-01  1.1436833798018D+00  4.9171219413963D-01
64  6.3000000000000D-01  1.1073813417585D+00  5.3440822102747D-01
65  6.4000000000000D-01  1.0695736089633D+00  5.7907077674495D-01
66  6.5000000000000D-01  1.0303357902592D+00  6.2565813615073D-01
67  6.6000000000000D-01  9.8975146258503D-01  6.7410065295385D-01
68  6.7000000000000D-01  9.4791217280323D-01  7.2429989574845D-01
69  6.8000000000000D-01  9.0491735678234D-01  7.7612813077505D-01
70  6.9000000000000D-01  8.6087417310627D-01  8.2942816693785D-01
71  7.0000000000000D-01  8.1589724975576D-01  8.8401357432157D-01
72  7.1000000000000D-01  7.7010834313252D-01  9.3966928291440D-01
73  7.2000000000000D-01  7.2363590984094D-01  9.9615256359160D-01
74  7.3000000000000D-01  6.7661459270829D-01  1.0531943886412D+00
75  7.4000000000000D-01  6.2918462359503D-01  1.1105011642955D+00
76  7.5000000000000D-01  5.8149114660214D-01  1.1677568229620D+00
77  7.6000000000000D-01  5.3368346632588D-01  1.2246252581008D+00
78  7.7000000000000D-01  4.8591422680784D-01  1.2807530801450D+00
79  7.8000000000000D-01  4.3833852778233D-01  1.3357726674713D+00
80  7.9000000000000D-01  3.9111298571595D-01  1.3893054823049D+00
81  8.0000000000000D-01  3.4439474795240D-01  1.4409656176306D+00
82  8.1000000000000D-01  2.9834046901102D-01  1.4903635377280D+00
83  8.2000000000000D-01  2.5310525872764D-01  1.5371099719044D+00
84  8.3000000000000D-01  2.0884161246259D-01  1.5808199184111D+00
85  8.4000000000000D-01  1.6569833402539D-01  1.6211167134298D+00
86  8.5000000000000D-01  1.2381946227068D-01  1.6576361184388D+00
87  8.6000000000000D-01  8.3343212501073D-02  1.6900303782481D+00
88  8.7000000000000D-01  4.4400943864841D-02  1.7179722015384D+00
89  8.8000000000000D-01  7.1161638574177D-03  1.7411586158688D+00
90  8.9000000000000D-01 -2.8396419174887D-02  1.7593146498409D+00
91  9.0000000000000D-01 -6.2031784973190D-02  1.7721967964174D+00
92  9.1000000000000D-01 -9.3695421661810D-02  1.7795962132801D+00
93  9.2000000000000D-01 -1.2330406791389D-01  1.7813416185714D+00
94  9.3000000000000D-01 -1.5078636821538D-01  1.7773018433552D+00
95  9.4000000000000D-01 -1.7608343328549D-01  1.7673880056404D+00
96  9.5000000000000D-01 -1.9914929864461D-01  1.7515552747908D+00
97  9.6000000000000D-01 -2.1995127534862D-01  1.7298041995552D+00
98  9.7000000000000D-01 -2.3847018801919D-01  1.7021815777429D+00
99  9.8000000000000D-01 -2.5470049647677D-01  1.6687808506690D+00
100  9.9000000000000D-01 -2.6865029854794D-01  1.6297420109961D+00
101  1.0000000000000D+00 -2.8034121283675D-01  1.5852510179059D+00
102  1.0100000000000D+00 -2.8980814164156D-01  1.5355387196211D+00
103  1.0200000000000D+00 -2.9709891546368D-01  1.4808792888384D+00
104  1.0300000000000D+00 -3.0227382189588D-01  1.4215881825253D+00
105  1.0400000000000D+00 -3.0540502296968D-01  1.3580196432078D+00
106  1.0500000000000D+00 -3.0657586634670D-01  1.2905637646304D+00
107  1.0600000000000D+00 -3.0588009685551D-01  1.2196431495930D+00
108  1.0700000000000D+00 -3.0342097614670D-01  1.1457091933800D+00
109  1.0800000000000D+00 -2.9931031923372D-01  1.0692380305981D+00
110  1.0900000000000D+00 -2.9366745767602D-01  9.9072618761316D-01
111  1.1000000000000D+00 -2.8661814006975D-01  9.1068598680049D-01
112  1.1100000000000D+00 -2.7829338115142D-01  8.2964075166316D-01
113  1.1200000000000D+00 -2.6882827160388D-01  7.4811986534540D-01
114  1.1300000000000D+00 -2.5836076101993D-01  6.6665373669669D-01
115  1.1400000000000D+00 -2.4703042685901D-01  5.8576872972592D-01
116  1.1500000000000D+00 -2.3497724241507D-01  5.0598211309816D-01
117  1.1600000000000D+00 -2.2234035689542D-01  4.2779708668649D-01
118  1.1700000000000D+00 -2.0925690056586D-01  3.5169794154822D-01
119  1.1800000000000D+00 -1.9586082754857D-01  2.7814540804829D-01
120  1.1900000000000D+00 -1.8228180871834D-01  2.0757224622560D-01
121  1.2000000000000D+00 -1.6864418628089D-01  1.4037912865453D-01
122  1.2100000000000D+00 -1.5506600096674D-01  7.6930863151537D-02
123  1.2200000000000D+00 -1.4165810207353D-01  1.7552999552324D-02
124  1.2300000000000D+00 -1.2852334959847D-01 -3.7471139638485D-02
125  1.2400000000000D+00 -1.1575591633844D-01 -8.7902971012738D-02
126  1.2500000000000D+00 -1.0344069684779D-01 -1.3355067513516D-01
127  1.2600000000000D+00 -9.1652829273132D-02 -1.7427070911359D-01
128  1.2700000000000D+00 -8.0457333818881D-02 -2.0996879156357D-01
129  1.2800000000000D+00 -6.9908870718862D-02 -2.4060034858825D-01
130  1.2900000000000D+00 -6.0051619790116D-02 -2.6617041296578D-01
131  1.3000000000000D+00 -5.0919280624268D-02 -2.8673298222412D-01
132  1.3100000000000D+00 -4.2535192154293D-02 -3.0238984269865D-01
133  1.3200000000000D+00 -3.4912569205626D-02 -3.1328887171220D-01
134  1.3300000000000D+00 -2.8054850450588D-02 -3.1962184425133D-01
135  1.3400000000000D+00 -2.1956152745529D-02 -3.2162176800738D-01
136  1.3500000000000D+00 -1.6601824737584D-02 -3.1955977999590D-01
137  1.3600000000000D+00 -1.1969090353638D-02 -3.1374164808630D-01
138  1.3700000000000D+00 -8.0277739764649D-03 -3.0450391547020D-01
139  1.3800000000000D+00 -4.7410956965330D-03 -2.9220974131135D-01
140  1.3900000000000D+00 -2.0665252479375D-03 -2.7724448979092D-01
141  1.4000000000000D+00  4.3316947123414D-05 -2.6001112064106D-01
142  1.4100000000000D+00  1.6397256355797D-03 -2.4092544496696D-01
143  1.4200000000000D+00  2.7769559217122D-03 -2.2041130317926D-01
144  1.4300000000000D+00  3.5112622480588D-03 -1.9889573084484D-01
145  1.4400000000000D+00  3.8999444274994D-03 -1.7680417274474D-01
146  1.4500000000000D+00  4.0004153146164D-03 -1.5455581156156D-01
147  1.4600000000000D+00  3.8693054938920D-03 -1.3255908199558D-01
148  1.4700000000000D+00  3.5616033378180D-03 -1.1120735604943D-01
149  1.4800000000000D+00  3.1299051915642D-03 -9.0875163563849D-02
150  1.4900000000000D+00  2.6235835344990D-03 -7.1914002850511D-02
151  1.5000000000000D+00  2.0882652701608D-03 -5.4649638754117D-02
152  1.5100000000000D+00  1.5657940350883D-03 -3.9384219333611D-02
153  1.5200000000000D+00  1.0922343397784D-03 -2.6382138156651D-02
154  1.5300000000000D+00  6.9303677254413D-04 -1.5803783656038D-02
155  1.5400000000000D+00  3.9315365415911D-04 -7.9018909339820D-03
156  1.5500000000000D+00  2.1872896546469D-04 -3.0141744742390D-03
157  1.5600000000000D+00  1.3676827680291D-04 -7.3994268620414D-04
158  1.5700000000000D+00  6.9289271348303D-05 -2.2301966355208D-05
159  1.5800000000000D+00  8.4021881071876D-06  1.7307397046046D-05
160  1.5900000000000D+00 -9.9084653609850D-06 -3.2566483343407D-05
161  1.6000000000000D+00 -1.1020069250610D-06 -4.6860580606961D-06
162  1.6100000000000D+00  2.3296115964837D-06  4.0860420915726D-06
163  1.6200000000000D+00  3.3800942956660D-08  7.1968379902540D-08
164  1.6300000000000D+00 -3.3361789429705D-07  1.1372168068868D-06
165  1.6400000000000D+00  0.0000000000000D+00  0.0000000000000D+00
166  1.6500000000000D+00  0.0000000000000D+00  0.0000000000000D+00
167  1.6600000000000D+00  0.0000000000000D+00  0.0000000000000D+00
168  1.6700000000000D+00  0.0000000000000D+00  0.0000000000000D+00
169  1.6800000000000D+00  0.0000000000000D+00  0.0000000000000D+00
170  1.6900000000000D+00  0.0000000000000D+00  0.0000000000000D+00
171  1.7000000000000D+00  0.0000000000000D+00  0.0000000000000D+00
172  1.7100000000000D+00  0.0000000000000D+00  0.0000000000000D+00
173  1.7200000000000D+00  0.0000000000000D+00  0.0000000000000D+00
174  1.7300000000000D+00  0.0000000000000D+00  0.0000000000000D+00
175  1.7400000000000D+00  0.0000000000000D+00  0.0000000000000D+00
176  1.7500000000000D+00  0.0000000000000D+00  0.0000000000000D+00
177  1.7600000000000D+00  0.0000000000000D+00  0.0000000000000D+00
178  1.7700000000000D+00  0.0000000000000D+00  0.0000000000000D+00
179  1.7800000000000D+00  0.0000000000000D+00  0.0000000000000D+00
180  1.7900000000000D+00  0.0000000000000D+00  0.0000000000000D+00
181  1.8000000000000D+00  0.0000000000000D+00  0.0000000000000D+00
182  1.8100000000000D+00  0.0000000000000D+00  0.0000000000000D+00
183  1.8200000000000D+00  0.0000000000000D+00  0.0000000000000D+00
184  1.8300000000000D+00  0.0000000000000D+00  0.0000000000000D+00
185  1.8400000000000D+00  0.0000000000000D+00  0.0000000000000D+00
186  1.8500000000000D+00  0.0000000000000D+00  0.0000000000000D+00
187  1.8600000000000D+00  0.0000000000000D+00  0.0000000000000D+00
188  1.8700000000000D+00  0.0000000000000D+00  0.0000000000000D+00
189  1.8800000000000D+00  0.0000000000000D+00  0.0000000000000D+00
190  1.8900000000000D+00  0.0000000000000D+00  0.0000000000000D+00
191  1.9000000000000D+00  0.0000000000000D+00  0.0000000000000D+00
192  1.9100000000000D+00  0.0000000000000D+00  0.0000000000000D+00
193  1.9200000000000D+00  0.0000000000000D+00  0.0000000000000D+00
194  1.9300000000000D+00  0.0000000000000D+00  0.0000000000000D+00
195  1.9400000000000D+00  0.0000000000000D+00  0.0000000000000D+00
196  1.9500000000000D+00  0.0000000000000D+00  0.0000000000000D+00
197  1.9600000000000D+00  0.0000000000000D+00  0.0000000000000D+00
198  1.9700000000000D+00  0.0000000000000D+00  0.0000000000000D+00
199  1.9800000000000D+00  0.0000000000000D+00  0.0000000000000D+00
200  1.9900000000000D+00  0.0000000000000D+00  0.0000000000000D+00
201  2.0000000000000D+00  0.0000000000000D+00  0.0000000000000D+00
202  2.0100000000000D+00  0.0000000000000D+00  0.0000000000000D+00
203  2.0200000000000D+00  0.0000000000000D+00  0.0000000000000D+00
204  2.0300000000000D+00  0.0000000000000D+00  0.0000000000000D+00
205  2.0400000000000D+00  0.0000000000000D+00  0.0000000000000D+00
206  2.0500000000000D+00  0.0000000000000D+00  0.0000000000000D+00
207  2.0600000000000D+00  0.0000000000000D+00  0.0000000000000D+00
208  2.0700000000000D+00  0.0000000000000D+00  0.0000000000000D+00
209  2.0800000000000D+00  0.0000000000000D+00  0.0000000000000D+00
210  2.0900000000000D+00  0.0000000000000D+00  0.0000000000000D+00
211  2.1000000000000D+00  0.0000000000000D+00  0.0000000000000D+00
212  2.1100000000000D+00  0.0000000000000D+00  0.0000000000000D+00
213  2.1200000000000D+00  0.0000000000000D+00  0.0000000000000D+00
214  2.1300000000000D+00  0.0000000000000D+00  0.0000000000000D+00
215  2.1400000000000D+00  0.0000000000000D+00  0.0000000000000D+00
216  2.1500000000000D+00  0.0000000000000D+00  0.0000000000000D+00
217  2.1600000000000D+00  0.0000000000000D+00  0.0000000000000D+00
218  2.1700000000000D+00  0.0000000000000D+00  0.0000000000000D+00
219  2.1800000000000D+00  0.0000000000000D+00  0.0000000000000D+00
220  2.1900000000000D+00  0.0000000000000D+00  0.0000000000000D+00
221  2.2000000000000D+00  0.0000000000000D+00  0.0000000000000D+00
222  2.2100000000000D+00  0.0000000000000D+00  0.0000000000000D+00
223  2.2200000000000D+00  0.0000000000000D+00  0.0000000000000D+00
224  2.2300000000000D+00  0.0000000000000D+00  0.0000000000000D+00
225  2.2400000000000D+00  0.0000000000000D+00  0.0000000000000D+00
226  2.2500000000000D+00  0.0000000000000D+00  0.0000000000000D+00
227  2.2600000000000D+00  0.0000000000000D+00  0.0000000000000D+00
228  2.2700000000000D+00  0.0000000000000D+00  0.0000000000000D+00
229  2.2800000000000D+00  0.0000000000000D+00  0.0000000000000D+00
230  2.2900000000000D+00  0.0000000000000D+00  0.0000000000000D+00
231  2.3000000000000D+00  0.0000000000000D+00  0.0000000000000D+00
232  2.3100000000000D+00  0.0000000000000D+00  0.0000000000000D+00
233  2.3200000000000D+00  0.0000000000000D+00  0.0000000000000D+00
234  2.3300000000000D+00  0.0000000000000D+00  0.0000000000000D+00
235  2.3400000000000D+00  0.0000000000000D+00  0.0000000000000D+00
236  2.3500000000000D+00  0.0000000000000D+00  0.0000000000000D+00
237  2.3600000000000D+00  0.0000000000000D+00  0.0000000000000D+00
238  2.3700000000000D+00  0.0000000000000D+00  0.0000000000000D+00
239  2.3800000000000D+00  0.0000000000000D+00  0.0000000000000D+00
240  2.3900000000000D+00  0.0000000000000D+00  0.0000000000000D+00
241  2.4000000000000D+00  0.0000000000000D+00  0.0000000000000D+00
242  2.4100000000000D+00  0.0000000000000D+00  0.0000000000000D+00
243  2.4200000000000D+00  0.0000000000000D+00  0.0000000000000D+00
244  2.4300000000000D+00  0.0000000000000D+00  0.0000000000000D+00
245  2.4400000000000D+00  0.0000000000000D+00  0.0000000000000D+00
246  2.4500000000000D+00  0.0000000000000D+00  0.0000000000000D+00
247  2.4600000000000D+00  0.0000000000000D+00  0.0000000000000D+00
248  2.4700000000000D+00  0.0000000000000D+00  0.0000000000000D+00
249  2.4800000000000D+00  0.0000000000000D+00  0.0000000000000D+00
250  2.4900000000000D+00  0.0000000000000D+00  0.0000000000000D+00
251  2.5000000000000D+00  0.0000000000000D+00  0.0000000000000D+00
252  2.5100000000000D+00  0.0000000000000D+00  0.0000000000000D+00
253  2.5200000000000D+00  0.0000000000000D+00  0.0000000000000D+00
254  2.5300000000000D+00  0.0000000000000D+00  0.0000000000000D+00
255  2.5400000000000D+00  0.0000000000000D+00  0.0000000000000D+00
256  2.5500000000000D+00  0.0000000000000D+00  0.0000000000000D+00
257  2.5600000000000D+00  0.0000000000000D+00  0.0000000000000D+00
258  2.5700000000000D+00  0.0000000000000D+00  0.0000000000000D+00
259  2.5800000000000D+00  0.0000000000000D+00  0.0000000000000D+00
260  2.5900000000000D+00  0.0000000000000D+00  0.0000000000000D+00
261  2.6000000000000D+00  0.0000000000000D+00  0.0000000000000D+00
262  2.6100000000000D+00  0.0000000000000D+00  0.0000000000000D+00
263  2.6200000000000D+00  0.0000000000000D+00  0.0000000000000D+00
264  2.6300000000000D+00  0.0000000000000D+00  0.0000000000000D+00
265  2.6400000000000D+00  0.0000000000000D+00  0.0000000000000D+00
266  2.6500000000000D+00  0.0000000000000D+00  0.0000000000000D+00
267  2.6600000000000D+00  0.0000000000000D+00  0.0000000000000D+00
268  2.6700000000000D+00  0.0000000000000D+00  0.0000000000000D+00
269  2.6800000000000D+00  0.0000000000000D+00  0.0000000000000D+00
270  2.6900000000000D+00  0.0000000000000D+00  0.0000000000000D+00
271  2.7000000000000D+00  0.0000000000000D+00  0.0000000000000D+00
272  2.7100000000000D+00  0.0000000000000D+00  0.0000000000000D+00
273  2.7200000000000D+00  0.0000000000000D+00  0.0000000000000D+00
274  2.7300000000000D+00  0.0000000000000D+00  0.0000000000000D+00
275  2.7400000000000D+00  0.0000000000000D+00  0.0000000000000D+00
276  2.7500000000000D+00  0.0000000000000D+00  0.0000000000000D+00
277  2.7600000000000D+00  0.0000000000000D+00  0.0000000000000D+00
278  2.7700000000000D+00  0.0000000000000D+00  0.0000000000000D+00
279  2.7800000000000D+00  0.0000000000000D+00  0.0000000000000D+00
280  2.7900000000000D+00  0.0000000000000D+00  0.0000000000000D+00
281  2.8000000000000D+00  0.0000000000000D+00  0.0000000000000D+00
282  2.8100000000000D+00  0.0000000000000D+00  0.0000000000000D+00
283  2.8200000000000D+00  0.0000000000000D+00  0.0000000000000D+00
284  2.8300000000000D+00  0.0000000000000D+00  0.0000000000000D+00
285  2.8400000000000D+00  0.0000000000000D+00  0.0000000000000D+00
286  2.8500000000000D+00  0.0000000000000D+00  0.0000000000000D+00
287  2.8600000000000D+00  0.0000000000000D+00  0.0000000000000D+00
288  2.8700000000000D+00  0.0000000000000D+00  0.0000000000000D+00
289  2.8800000000000D+00  0.0000000000000D+00  0.0000000000000D+00
290  2.8900000000000D+00  0.0000000000000D+00  0.0000000000000D+00
291  2.9000000000000D+00  0.0000000000000D+00  0.0000000000000D+00
292  2.9100000000000D+00  0.0000000000000D+00  0.0000000000000D+00
293  2.9200000000000D+00  0.0000000000000D+00  0.0000000000000D+00
294  2.9300000000000D+00  0.0000000000000D+00  0.0000000000000D+00
295  2.9400000000000D+00  0.0000000000000D+00  0.0000000000000D+00
296  2.9500000000000D+00  0.0000000000000D+00  0.0000000000000D+00
297  2.9600000000000D+00  0.0000000000000D+00  0.0000000000000D+00
298  2.9700000000000D+00  0.0000000000000D+00  0.0000000000000D+00
299  2.9800000000000D+00  0.0000000000000D+00  0.0000000000000D+00
300  2.9900000000000D+00  0.0000000000000D+00  0.0000000000000D+00
301  3.0000000000000D+00  0.0000000000000D+00  0.0000000000000D+00
302  3.0100000000000D+00  0.0000000000000D+00  0.0000000000000D+00
303  3.0200000000000D+00  0.0000000000000D+00  0.0000000000000D+00
304  3.0300000000000D+00  0.0000000000000D+00  0.0000000000000D+00
305  3.0400000000000D+00  0.0000000000000D+00  0.0000000000000D+00
306  3.0500000000000D+00  0.0000000000000D+00  0.0000000000000D+00
307  3.0600000000000D+00  0.0000000000000D+00  0.0000000000000D+00
308  3.0700000000000D+00  0.0000000000000D+00  0.0000000000000D+00
309  3.0800000000000D+00  0.0000000000000D+00  0.0000000000000D+00
310  3.0900000000000D+00  0.0000000000000D+00  0.0000000000000D+00
311  3.1000000000000D+00  0.0000000000000D+00  0.0000000000000D+00
312  3.1100000000000D+00  0.0000000000000D+00  0.0000000000000D+00
313  3.1200000000000D+00  0.0000000000000D+00  0.0000000000000D+00
314  3.1300000000000D+00  0.0000000000000D+00  0.0000000000000D+00
315  3.1400000000000D+00  0.0000000000000D+00  0.0000000000000D+00
316  3.1500000000000D+00  0.0000000000000D+00  0.0000000000000D+00
317  3.1600000000000D+00  0.0000000000000D+00  0.0000000000000D+00
318  3.1700000000000D+00  0.0000000000000D+00  0.0000000000000D+00
319  3.1800000000000D+00  0.0000000000000D+00  0.0000000000000D+00
320  3.1900000000000D+00  0.0000000000000D+00  0.0000000000000D+00
321  3.2000000000000D+00  0.0000000000000D+00  0.0000000000000D+00
322  3.2100000000000D+00  0.0000000000000D+00  0.0000000000000D+00
323  3.2200000000000D+00  0.0000000000000D+00  0.0000000000000D+00
324  3.2300000000000D+00  0.0000000000000D+00  0.0000000000000D+00
325  3.2400000000000D+00  0.0000000000000D+00  0.0000000000000D+00
326  3.2500000000000D+00  0.0000000000000D+00  0.0000000000000D+00
327  3.2600000000000D+00  0.0000000000000D+00  0.0000000000000D+00
328  3.2700000000000D+00  0.0000000000000D+00  0.0000000000000D+00
329  3.2800000000000D+00  0.0000000000000D+00  0.0000000000000D+00
330  3.2900000000000D+00  0.0000000000000D+00  0.0000000000000D+00
331  3.3000000000000D+00  0.0000000000000D+00  0.0000000000000D+00
332  3.3100000000000D+00  0.0000000000000D+00  0.0000000000000D+00
333  3.3200000000000D+00  0.0000000000000D+00  0.0000000000000D+00
334  3.3300000000000D+00  0.0000000000000D+00  0.0000000000000D+00
335  3.3400000000000D+00  0.0000000000000D+00  0.0000000000000D+00
336  3.3500000000000D+00  0.0000000000000D+00  0.0000000000000D+00
337  3.3600000000000D+00  0.0000000000000D+00  0.0000000000000D+00
338  3.3700000000000D+00  0.0000000000000D+00  0.0000000000000D+00
339  3.3800000000000D+00  0.0000000000000D+00  0.0000000000000D+00
340  3.3900000000000D+00  0.0000000000000D+00  0.0000000000000D+00
341  3.4000000000000D+00  0.0000000000000D+00  0.0000000000000D+00
342  3.4100000000000D+00  0.0000000000000D+00  0.0000000000000D+00
343  3.4200000000000D+00  0.0000000000000D+00  0.0000000000000D+00
344  3.4300000000000D+00  0.0000000000000D+00  0.0000000000000D+00
345  3.4400000000000D+00  0.0000000000000D+00  0.0000000000000D+00
346  3.4500000000000D+00  0.0000000000000D+00  0.0000000000000D+00
347  3.4600000000000D+00  0.0000000000000D+00  0.0000000000000D+00
348  3.4700000000000D+00  0.0000000000000D+00  0.0000000000000D+00
349  3.4800000000000D+00  0.0000000000000D+00  0.0000000000000D+00
350  3.4900000000000D+00  0.0000000000000D+00  0.0000000000000D+00
351  3.5000000000000D+00  0.0000000000000D+00  0.0000000000000D+00
352  3.5100000000000D+00  0.0000000000000D+00  0.0000000000000D+00
353  3.5200000000000D+00  0.0000000000000D+00  0.0000000000000D+00
354  3.5300000000000D+00  0.0000000000000D+00  0.0000000000000D+00
355  3.5400000000000D+00  0.0000000000000D+00  0.0000000000000D+00
356  3.5500000000000D+00  0.0000000000000D+00  0.0000000000000D+00
357  3.5600000000000D+00  0.0000000000000D+00  0.0000000000000D+00
358  3.5700000000000D+00  0.0000000000000D+00  0.0000000000000D+00
359  3.5800000000000D+00  0.0000000000000D+00  0.0000000000000D+00
360  3.5900000000000D+00  0.0000000000000D+00  0.0000000000000D+00
361  3.6000000000000D+00  0.0000000000000D+00  0.0000000000000D+00
362  3.6100000000000D+00  0.0000000000000D+00  0.0000000000000D+00
363  3.6200000000000D+00  0.0000000000000D+00  0.0000000000000D+00
364  3.6300000000000D+00  0.0000000000000D+00  0.0000000000000D+00
365  3.6400000000000D+00  0.0000000000000D+00  0.0000000000000D+00
366  3.6500000000000D+00  0.0000000000000D+00  0.0000000000000D+00
367  3.6600000000000D+00  0.0000000000000D+00  0.0000000000000D+00
368  3.6700000000000D+00  0.0000000000000D+00  0.0000000000000D+00
369  3.6800000000000D+00  0.0000000000000D+00  0.0000000000000D+00
370  3.6900000000000D+00  0.0000000000000D+00  0.0000000000000D+00
371  3.7000000000000D+00  0.0000000000000D+00  0.0000000000000D+00
372  3.7100000000000D+00  0.0000000000000D+00  0.0000000000000D+00
373  3.7200000000000D+00  0.0000000000000D+00  0.0000000000000D+00
374  3.7300000000000D+00  0.0000000000000D+00  0.0000000000000D+00
375  3.7400000000000D+00  0.0000000000000D+00  0.0000000000000D+00
376  3.7500000000000D+00  0.0000000000000D+00  0.0000000000000D+00
377  3.7600000000000D+00  0.0000000000000D+00  0.0000000000000D+00
378  3.7700000000000D+00  0.0000000000000D+00  0.0000000000000D+00
379  3.7800000000000D+00  0.0000000000000D+00  0.0000000000000D+00
380  3.7900000000000D+00  0.0000000000000D+00  0.0000000000000D+00
381  3.8000000000000D+00  0.0000000000000D+00  0.0000000000000D+00
382  3.8100000000000D+00  0.0000000000000D+00  0.0000000000000D+00
383  3.8200000000000D+00  0.0000000000000D+00  0.0000000000000D+00
384  3.8300000000000D+00  0.0000000000000D+00  0.0000000000000D+00
385  3.8400000000000D+00  0.0000000000000D+00  0.0000000000000D+00
386  3.8500000000000D+00  0.0000000000000D+00  0.0000000000000D+00
387  3.8600000000000D+00  0.0000000000000D+00  0.0000000000000D+00
388  3.8700000000000D+00  0.0000000000000D+00  0.0000000000000D+00
389  3.8800000000000D+00  0.0000000000000D+00  0.0000000000000D+00
390  3.8900000000000D+00  0.0000000000000D+00  0.0000000000000D+00
391  3.9000000000000D+00  0.0000000000000D+00  0.0000000000000D+00
392  3.9100000000000D+00  0.0000000000000D+00  0.0000000000000D+00
393  3.9200000000000D+00  0.0000000000000D+00  0.0000000000000D+00
394  3.9300000000000D+00  0.0000000000000D+00  0.0000000000000D+00
395  3.9400000000000D+00  0.0000000000000D+00  0.0000000000000D+00
396  3.9500000000000D+00  0.0000000000000D+00  0.0000000000000D+00
397  3.9600000000000D+00  0.0000000000000D+00  0.0000000000000D+00
398  3.9700000000000D+00  0.0000000000000D+00  0.0000000000000D+00
399  3.9800000000000D+00  0.0000000000000D+00  0.0000000000000D+00
400  3.9900000000000D+00  0.0000000000000D+00  0.0000000000000D+00
401  4.0000000000000D+00  0.0000000000000D+00  0.0000000000000D+00
402  4.0100000000000D+00  0.0000000000000D+00  0.0000000000000D+00
403  4.0200000000000D+00  0.0000000000000D+00  0.0000000000000D+00
404  4.0300000000000D+00  0.0000000000000D+00  0.0000000000000D+00
405  4.0400000000000D+00  0.0000000000000D+00  0.0000000000000D+00
406  4.0500000000000D+00  0.0000000000000D+00  0.0000000000000D+00
407  4.0600000000000D+00  0.0000000000000D+00  0.0000000000000D+00
408  4.0700000000000D+00  0.0000000000000D+00  0.0000000000000D+00
409  4.0800000000000D+00  0.0000000000000D+00  0.0000000000000D+00
410  4.0900000000000D+00  0.0000000000000D+00  0.0000000000000D+00
411  4.1000000000000D+00  0.0000000000000D+00  0.0000000000000D+00
412  4.1100000000000D+00  0.0000000000000D+00  0.0000000000000D+00
413  4.1200000000000D+00  0.0000000000000D+00  0.0000000000000D+00
414  4.1300000000000D+00  0.0000000000000D+00  0.0000000000000D+00
415  4.1400000000000D+00  0.0000000000000D+00  0.0000000000000D+00
416  4.1500000000000D+00  0.0000000000000D+00  0.0000000000000D+00
417  4.1600000000000D+00  0.0000000000000D+00  0.0000000000000D+00
418  4.1700000000000D+00  0.0000000000000D+00  0.0000000000000D+00
419  4.1800000000000D+00  0.0000000000000D+00  0.0000000000000D+00
420  4.1900000000000D+00  0.0000000000000D+00  0.0000000000000D+00
421  4.2000000000000D+00  0.0000000000000D+00  0.0000000000000D+00
422  4.2100000000000D+00  0.0000000000000D+00  0.0000000000000D+00
423  4.2200000000000D+00  0.0000000000000D+00  0.0000000000000D+00
424  4.2300000000000D+00  0.0000000000000D+00  0.0000000000000D+00
425  4.2400000000000D+00  0.0000000000000D+00  0.0000000000000D+00
426  4.2500000000000D+00  0.0000000000000D+00  0.0000000000000D+00
427  4.2600000000000D+00  0.0000000000000D+00  0.0000000000000D+00
428  4.2700000000000D+00  0.0000000000000D+00  0.0000000000000D+00
429  4.2800000000000D+00  0.0000000000000D+00  0.0000000000000D+00
430  4.2900000000000D+00  0.0000000000000D+00  0.0000000000000D+00
431  4.3000000000000D+00  0.0000000000000D+00  0.0000000000000D+00
432  4.3100000000000D+00  0.0000000000000D+00  0.0000000000000D+00
433  4.3200000000000D+00  0.0000000000000D+00  0.0000000000000D+00
434  4.3300000000000D+00  0.0000000000000D+00  0.0000000000000D+00
435  4.3400000000000D+00  0.0000000000000D+00  0.0000000000000D+00
436  4.3500000000000D+00  0.0000000000000D+00  0.0000000000000D+00
437  4.3600000000000D+00  0.0000000000000D+00  0.0000000000000D+00
438  4.3700000000000D+00  0.0000000000000D+00  0.0000000000000D+00
439  4.3800000000000D+00  0.0000000000000D+00  0.0000000000000D+00
440  4.3900000000000D+00  0.0000000000000D+00  0.0000000000000D+00
441  4.4000000000000D+00  0.0000000000000D+00  0.0000000000000D+00
442  4.4100000000000D+00  0.0000000000000D+00  0.0000000000000D+00
443  4.4200000000000D+00  0.0000000000000D+00  0.0000000000000D+00