Lu    ONCVPSP-3.3.0  r_core=   2.05661   1.80371   1.80371   2.51896
71.0000     11.0000      180112    zatom,zion,pspd
8 -116133   3     4   600     0    pspcod,pspxc,lmax,lloc,mmax,r2well
5.99000000  5.40000000  0.00000000    rchrg fchrg qchrg
2     2     2     1     0    nproj
1     1           extension_switch
0                         3.0707424252985D+00 -2.1601377064043D-01
1  0.0000000000000D+00 -2.0098978037453D-11 -3.0443897403032D-11
2  1.0000000000000D-02  5.3845493677389D-02  1.0877806089622D-02
3  2.0000000000000D-02  1.0760309694582D-01  2.1739229642547D-02
4  3.0000000000000D-02  1.6118513991619D-01  3.2568018877362D-02
5  4.0000000000000D-02  2.1450439284790D-01  4.3348182510608D-02
6  5.0000000000000D-02  2.6747428400018D-01  5.4064117481967D-02
7  6.0000000000000D-02  3.2000911483022D-01  6.4700733672560D-02
8  7.0000000000000D-02  3.7202427167724D-01  7.5243574649958D-02
9  8.0000000000000D-02  4.2343643309203D-01  8.5678933503957D-02
10  9.0000000000000D-02  4.7416377199598D-01  9.5993962874730D-02
11  1.0000000000000D-01  5.2412615188333D-01  1.0617677831946D-01
12  1.1000000000000D-01  5.7324531631419D-01  1.1621655421456D-01
13  1.2000000000000D-01  6.2144507098358D-01  1.2610361144766D-01
14  1.3000000000000D-01  6.6865145769429D-01  1.3582949621657D-01
15  1.4000000000000D-01  7.1479291960616D-01  1.4538704932029D-01
16  1.5000000000000D-01  7.5980045718398D-01  1.5477046540002D-01
17  1.6000000000000D-01  8.0360777431750D-01  1.6397534166509D-01
18  1.7000000000000D-01  8.4615141414205D-01  1.7299871571909D-01
19  1.8000000000000D-01  8.8737088414473D-01  1.8183909218497D-01
20  1.9000000000000D-01  9.2720877020012D-01  1.9049645791358D-01
21  2.0000000000000D-01  9.6561083923958D-01  1.9897228564744D-01
22  2.1000000000000D-01  1.0025261303196D+00  2.0726952609996D-01
23  2.2000000000000D-01  1.0379070339167D+00  2.1539258849877D-01
24  2.3000000000000D-01  1.0717093593395D+00  2.2334730973043D-01
25  2.4000000000000D-01  1.1038923902091D+00  2.3114091231056D-01
26  2.5000000000000D-01  1.1344189280231D+00  2.3878195148945D-01
27  2.6000000000000D-01  1.1632553238781D+00  2.4628025188584D-01
28  2.7000000000000D-01  1.1903714984848D+00  2.5364683412227D-01
29  2.8000000000000D-01  1.2157409506696D+00  2.6089383201143D-01
30  2.9000000000000D-01  1.2393407546105D+00  2.6803440091583D-01
31  3.0000000000000D-01  1.2611515461105D+00  2.7508261797035D-01
32  3.1000000000000D-01  1.2811574982611D+00  2.8205337491995D-01
33  3.2000000000000D-01  1.2993462868984D+00  2.8896226438144D-01
34  3.3000000000000D-01  1.3157090462958D+00  2.9582546038875D-01
35  3.4000000000000D-01  1.3302403155826D+00  3.0265959412518D-01
36  3.5000000000000D-01  1.3429379764112D+00  3.0948162578367D-01
37  3.6000000000000D-01  1.3538031824309D+00  3.1630871352551D-01
38  3.7000000000000D-01  1.3628402811563D+00  3.2315808053160D-01
39  3.8000000000000D-01  1.3700567288400D+00  3.3004688115471D-01
40  3.9000000000000D-01  1.3754629989844D+00  3.3699206718942D-01
41  4.0000000000000D-01  1.3790724851379D+00  3.4401025527593D-01
42  4.1000000000000D-01  1.3809013986383D+00  3.5111759644650D-01
43  4.2000000000000D-01  1.3809686619665D+00  3.5832964880757D-01
44  4.3000000000000D-01  1.3792957983832D+00  3.6566125432793D-01
45  4.4000000000000D-01  1.3759068185108D+00  3.7312642067297D-01
46  4.5000000000000D-01  1.3708281045250D+00  3.8073820898786D-01
47  4.6000000000000D-01  1.3640882926014D+00  3.8850862848804D-01
48  4.7000000000000D-01  1.3557181542544D+00  3.9644853866518D-01
49  4.8000000000000D-01  1.3457504771804D+00  4.0456755985966D-01
50  4.9000000000000D-01  1.3342199462000D+00  4.1287399288821D-01
51  5.0000000000000D-01  1.3211630248629D+00  4.2137474834796D-01
52  5.1000000000000D-01  1.3066178382523D+00  4.3007528614525D-01
53  5.2000000000000D-01  1.2906240574912D+00  4.3897956572140D-01
54  5.3000000000000D-01  1.2732227864182D+00  4.4809000736709D-01
55  5.4000000000000D-01  1.2544564508605D+00  4.5740746493398D-01
56  5.5000000000000D-01  1.2343686908949D+00  4.6693121016635D-01
57  5.6000000000000D-01  1.2130042564405D+00  4.7665892878819D-01
58  5.7000000000000D-01  1.1904089064875D+00  4.8658672839252D-01
59  5.8000000000000D-01  1.1666293122191D+00  4.9670915809070D-01
60  5.9000000000000D-01  1.1417129642382D+00  5.0701923979046D-01
61  6.0000000000000D-01  1.1157080840654D+00  5.1750851088339D-01
62  6.1000000000000D-01  1.0886635400270D+00  5.2816707803592D-01
63  6.2000000000000D-01  1.0606287676070D+00  5.3898368169336D-01
64  6.3000000000000D-01  1.0316536942909D+00  5.4994577082454D-01
65  6.4000000000000D-01  1.0017886688857D+00  5.6103958735645D-01
66  6.5000000000000D-01  9.7108439525540D-01  5.7225025967329D-01
67  6.6000000000000D-01  9.3959187037203D-01  5.8356190448447D-01
68  6.7000000000000D-01  9.0736232654118D-01  5.9495773630067D-01
69  6.8000000000000D-01  8.7444717762364D-01  6.0642018369754D-01
70  6.9000000000000D-01  8.4089796904029D-01  6.1793101149236D-01
71  7.0000000000000D-01  8.0676633131488D-01  6.2947144791202D-01
72  7.1000000000000D-01  7.7210393687986D-01  6.4102231578884D-01
73  7.2000000000000D-01  7.3696245984451D-01  6.5256416678747D-01
74  7.3000000000000D-01  7.0139353840167D-01  6.6407741763898D-01
75  7.4000000000000D-01  6.6544873953012D-01  6.7554248733870D-01
76  7.5000000000000D-01  6.2917952563392D-01  6.8693993425296D-01
77  7.6000000000000D-01  5.9263722274807D-01  6.9825059207507D-01
78  7.7000000000000D-01  5.5587298993158D-01  7.0945570357527D-01
79  7.8000000000000D-01  5.1893778946494D-01  7.2053705109977D-01
80  7.9000000000000D-01  4.8188235746817D-01  7.3147708279373D-01
81  8.0000000000000D-01  4.4475717455928D-01  7.4225903354889D-01
82  8.1000000000000D-01  4.0761243618005D-01  7.5286703971116D-01
83  8.2000000000000D-01  3.7049802222678D-01  7.6328624662356D-01
84  8.3000000000000D-01  3.3346346563853D-01  7.7350290812908D-01
85  8.4000000000000D-01  2.9655791961301D-01  7.8350447721160D-01
86  8.5000000000000D-01  2.5983012314204D-01  7.9327968701437D-01
87  8.6000000000000D-01  2.2332836458284D-01  8.0281862154218D-01
88  8.7000000000000D-01  1.8710044300910D-01  8.1211277542510D-01
89  8.8000000000000D-01  1.5119362711597D-01  8.2115510219917D-01
90  8.9000000000000D-01  1.1565461148608D-01  8.2994005064025D-01
91  9.0000000000000D-01  8.0529470058782D-02  8.3846358877281D-01
92  9.1000000000000D-01  4.5863606681548D-02  8.4672321526395D-01
93  9.2000000000000D-01  1.1701702661781D-02  8.5471795800385D-01
94  9.3000000000000D-01 -2.1912338723250D-02  8.6244835976732D-01
95  9.4000000000000D-01 -5.4935450759055D-02  8.6991645094573D-01
96  9.5000000000000D-01 -8.7325464828172D-02  8.7712570943388D-01
97  9.6000000000000D-01 -1.1904117486280D-01  8.8408100785208D-01
98  9.7000000000000D-01 -1.5004240459027D-01  8.9078854837850D-01
99  9.8000000000000D-01 -1.8029007740393D-01  8.9725578556050D-01
100  9.9000000000000D-01 -2.0974628865004D-01  9.0349133756703D-01
101  1.0000000000000D+00 -2.3837438008265D-01  9.0950488642974D-01
102  1.0100000000000D+00 -2.6613901619707D-01  9.1530706791161D-01
103  1.0200000000000D+00 -2.9300626211675D-01  9.2090935172113D-01
104  1.0300000000000D+00 -3.1894366267256D-01  9.2632391286893D-01
105  1.0400000000000D+00 -3.4392032228012D-01  9.3156349503733D-01
106  1.0500000000000D+00 -3.6790698518985D-01  9.3664126690218D-01
107  1.0600000000000D+00 -3.9087611565823D-01  9.4157067240381D-01
108  1.0700000000000D+00 -4.1280197756191D-01  9.4636527602547D-01
109  1.0800000000000D+00 -4.3366071295609D-01  9.5103860418197D-01
110  1.0900000000000D+00 -4.5343041906086D-01  9.5560398386389D-01
111  1.1000000000000D+00 -4.7209122314440D-01  9.6007437971714D-01
112  1.1100000000000D+00 -4.8962535476284D-01  9.6446223076081D-01
113  1.1200000000000D+00 -5.0601721480865D-01  9.6877928796891D-01
114  1.1300000000000D+00 -5.2125344081855D-01  9.7303645394768D-01
115  1.1400000000000D+00 -5.3532296799478D-01  9.7724362594064D-01
116  1.1500000000000D+00 -5.4821708539765D-01  9.8140954339001D-01
117  1.1600000000000D+00 -5.5992948677964D-01  9.8554164126510D-01
118  1.1700000000000D+00 -5.7045631554532D-01  9.8964591034538D-01
119  1.1800000000000D+00 -5.7979620334539D-01  9.9372676560474D-01
120  1.1900000000000D+00 -5.8795030182373D-01  9.9778692382551D-01
121  1.2000000000000D+00 -5.9492230707818D-01  1.0018272914968D+00
122  1.2100000000000D+00 -6.0071847642195D-01  1.0058468640038D+00
123  1.2200000000000D+00 -6.0534763706254D-01  1.0098426370606D+00
124  1.2300000000000D+00 -6.0882118635503D-01  1.0138095312658D+00
125  1.2400000000000D+00 -6.1115308333813D-01  1.0177403305656D+00
126  1.2500000000000D+00 -6.1235983129842D-01  1.0216256353384D+00
127  1.2600000000000D+00 -6.1246045114119D-01  1.0254538307577D+00
128  1.2700000000000D+00 -6.1147644542966D-01  1.0292110709298D+00
129  1.2800000000000D+00 -6.0943175298737D-01  1.0328812792433D+00
130  1.2900000000000D+00 -6.0635269398730D-01  1.0364461653134D+00
131  1.3000000000000D+00 -6.0226790556458D-01  1.0398852586905D+00
132  1.3100000000000D+00 -5.9720826800391D-01  1.0431759594736D+00
133  1.3200000000000D+00 -5.9120682159263D-01  1.0462936058967D+00
134  1.3300000000000D+00 -5.8429867435900D-01  1.0492115587084D+00
135  1.3400000000000D+00 -5.7652090089557D-01  1.0519013022060D+00
136  1.3500000000000D+00 -5.6791243254711D-01  1.0543325616297D+00
137  1.3600000000000D+00 -5.5851393935329D-01  1.0564734364128D+00
138  1.3700000000000D+00 -5.4836770407728D-01  1.0582905488935D+00
139  1.3800000000000D+00 -5.3751748880971D-01  1.0597492077939D+00
140  1.3900000000000D+00 -5.2600839465308D-01  1.0608135857332D+00
141  1.4000000000000D+00 -5.1388671496983D-01  1.0614469100913D+00
142  1.4100000000000D+00 -5.0119978285982D-01  1.0616116661759D+00
143  1.4200000000000D+00 -4.8799581342656D-01  1.0612698118565D+00
144  1.4300000000000D+00 -4.7432374152220D-01  1.0603830025706D+00
145  1.4400000000000D+00 -4.6023305567616D-01  1.0589128255683D+00
146  1.4500000000000D+00 -4.4577362888168D-01  1.0568210423349D+00
147  1.4600000000000D+00 -4.3099554703772D-01  1.0540698378581D+00
148  1.4700000000000D+00 -4.1594893575323D-01  1.0506220756099D+00
149  1.4800000000000D+00 -4.0068378632143D-01  1.0464415568849D+00
150  1.4900000000000D+00 -3.8524978160705D-01  1.0414932832619D+00
151  1.5000000000000D+00 -3.6969612266050D-01  1.0357437208329D+00
152  1.5100000000000D+00 -3.5407135676894D-01  1.0291610649799D+00
153  1.5200000000000D+00 -3.3842320778976D-01  1.0217155042956D+00
154  1.5300000000000D+00 -3.2279840940075D-01  1.0133794825370D+00
155  1.5400000000000D+00 -3.0724254209361D-01  1.0041279572243D+00
156  1.5500000000000D+00 -2.9179987451050D-01  9.9393865383469D-01
157  1.5600000000000D+00 -2.7651320982724D-01  9.8279231439238D-01
158  1.5700000000000D+00 -2.6142373780817D-01  9.7067293936518D-01
159  1.5800000000000D+00 -2.4657089301357D-01  9.5756802203359D-01
160  1.5900000000000D+00 -2.3199221985899D-01  9.4346877411843D-01
161  1.6000000000000D+00 -2.1772324470215D-01  9.2837034234775D-01
162  1.6100000000000D+00 -2.0379735576509D-01  9.1227201456118D-01
163  1.6200000000000D+00 -1.9024569070090D-01  8.9517741566206D-01
164  1.6300000000000D+00 -1.7709703273674D-01  8.7709469179625D-01
165  1.6400000000000D+00 -1.6437771480384D-01  8.5803668376127D-01
166  1.6500000000000D+00 -1.5211153268560D-01  8.3802108784488D-01
167  1.6600000000000D+00 -1.4031966624691D-01  8.1707060570653D-01
168  1.6700000000000D+00 -1.2902060975480D-01  7.9521308153009D-01
169  1.6800000000000D+00 -1.1823011011550D-01  7.7248162848228D-01
170  1.6900000000000D+00 -1.0796111393649D-01  7.4891474287635D-01
171  1.7000000000000D+00 -9.8223722023371D-02  7.2455640845616D-01
172  1.7100000000000D+00 -8.9025152124681D-02  6.9945618936379D-01
173  1.7200000000000D+00 -8.0369708300815D-02  6.7366931461652D-01
174  1.7300000000000D+00 -7.2258757662545D-02  6.4725675277482D-01
175  1.7400000000000D+00 -6.4690712610319D-02  6.2028528005352D-01
176  1.7500000000000D+00 -5.7661015322327D-02  5.9282755740264D-01
177  1.7600000000000D+00 -5.1162149122589D-02  5.6496210668582D-01
178  1.7700000000000D+00 -4.5183573914869D-02  5.3677361599239D-01
179  1.7800000000000D+00 -3.9711880101880D-02  5.0835237217010D-01
180  1.7900000000000D+00 -3.4730665380245D-02  4.7979477450213D-01
181  1.8000000000000D+00 -3.0220263634301D-02  4.5120461529481D-01
182  1.8100000000000D+00 -2.6158313250451D-02  4.2269071572210D-01
183  1.8200000000000D+00 -2.2520330417912D-02  3.9436446220202D-01
184  1.8300000000000D+00 -1.9280306126355D-02  3.6633768153280D-01
185  1.8400000000000D+00 -1.6411566328959D-02  3.3871959035256D-01
186  1.8500000000000D+00 -1.3887287982978D-02  3.1161520947649D-01
187  1.8600000000000D+00 -1.1680487625842D-02  2.8512613586399D-01
188  1.8700000000000D+00 -9.7641869925203D-03  2.5935060031484D-01
189  1.8800000000000D+00 -8.1117504938754D-03  2.3438263028388D-01
190  1.8900000000000D+00 -6.6970459723520D-03  2.1031204747880D-01
191  1.9000000000000D+00 -5.4946743163373D-03  1.8722412038175D-01
192  1.9100000000000D+00 -4.4801675685912D-03  1.6519933757635D-01
193  1.9200000000000D+00 -3.6301822003401D-03  1.4431317321297D-01
194  1.9300000000000D+00 -2.9226833139112D-03  1.2463586473856D-01
195  1.9400000000000D+00 -2.3371179913606D-03  1.0623220535924D-01
196  1.9500000000000D+00 -1.8545771399525D-03  8.9161352229002D-02
197  1.9600000000000D+00 -1.4579455915545D-03  7.3476650843515D-02
198  1.9700000000000D+00 -1.1320381133824D-03  5.9225478939473D-02
199  1.9800000000000D+00 -8.6372315905487D-04  4.6449107464967D-02
200  1.9900000000000D+00 -6.4218622643672D-04  3.5189093251139D-02
201  2.0000000000000D+00 -4.5847193450680D-04  2.5464089113843D-02
202  2.0100000000000D+00 -3.0579347528331D-04  1.7274286227733D-02
203  2.0200000000000D+00 -1.8029926806775D-04  1.0633512615936D-02
204  2.0300000000000D+00 -8.2174762307052D-05  5.6694305156313D-03
205  2.0400000000000D+00 -1.1874222636562D-05  2.4371964940256D-03
206  2.0500000000000D+00  2.8402849358757D-05  6.6845492991229D-04
207  2.0600000000000D+00  3.7779650649934D-05 -5.1897550425654D-05
208  2.0700000000000D+00  2.2923601766399D-05 -1.6056381876402D-04
209  2.0800000000000D+00  2.2952501800337D-06 -2.0734691002429D-05
210  2.0900000000000D+00 -5.6097161320976D-06  5.8203396093563D-05
211  2.1000000000000D+00 -3.5469870415982D-06  3.9856551586804D-05
212  2.1100000000000D+00  6.3758672903071D-07 -5.3894484923431D-06
213  2.1200000000000D+00  1.1778161994796D-06 -1.0538120957722D-05
214  2.1300000000000D+00  2.0924958431877D-07 -1.9533683888026D-06
215  2.1400000000000D+00 -9.9021695972199D-08 -2.7044788982242D-07
216  2.1500000000000D+00 -8.0178497995622D-08 -2.1898337913880D-07
217  2.1600000000000D+00  0.0000000000000D+00  0.0000000000000D+00
218  2.1700000000000D+00  0.0000000000000D+00  0.0000000000000D+00
219  2.1800000000000D+00  0.0000000000000D+00  0.0000000000000D+00
220  2.1900000000000D+00  0.0000000000000D+00  0.0000000000000D+00
221  2.2000000000000D+00  0.0000000000000D+00  0.0000000000000D+00
222  2.2100000000000D+00  0.0000000000000D+00  0.0000000000000D+00
223  2.2200000000000D+00  0.0000000000000D+00  0.0000000000000D+00
224  2.2300000000000D+00  0.0000000000000D+00  0.0000000000000D+00
225  2.2400000000000D+00  0.0000000000000D+00  0.0000000000000D+00
226  2.2500000000000D+00  0.0000000000000D+00  0.0000000000000D+00
227  2.2600000000000D+00  0.0000000000000D+00  0.0000000000000D+00
228  2.2700000000000D+00  0.0000000000000D+00  0.0000000000000D+00
229  2.2800000000000D+00  0.0000000000000D+00  0.0000000000000D+00
230  2.2900000000000D+00  0.0000000000000D+00  0.0000000000000D+00
231  2.3000000000000D+00  0.0000000000000D+00  0.0000000000000D+00
232  2.3100000000000D+00  0.0000000000000D+00  0.0000000000000D+00
233  2.3200000000000D+00  0.0000000000000D+00  0.0000000000000D+00
234  2.3300000000000D+00  0.0000000000000D+00  0.0000000000000D+00
235  2.3400000000000D+00  0.0000000000000D+00  0.0000000000000D+00
236  2.3500000000000D+00  0.0000000000000D+00  0.0000000000000D+00
237  2.3600000000000D+00  0.0000000000000D+00  0.0000000000000D+00
238  2.3700000000000D+00  0.0000000000000D+00  0.0000000000000D+00
239  2.3800000000000D+00  0.0000000000000D+00  0.0000000000000D+00
240  2.3900000000000D+00  0.0000000000000D+00  0.0000000000000D+00
241  2.4000000000000D+00  0.0000000000000D+00  0.0000000000000D+00
242  2.4100000000000D+00  0.0000000000000D+00  0.0000000000000D+00
243  2.4200000000000D+00  0.0000000000000D+00  0.0000000000000D+00
244  2.4300000000000D+00  0.0000000000000D+00  0.0000000000000D+00
245  2.4400000000000D+00  0.0000000000000D+00  0.0000000000000D+00
246  2.4500000000000D+00  0.0000000000000D+00  0.0000000000000D+00
247  2.4600000000000D+00  0.0000000000000D+00  0.0000000000000D+00
248  2.4700000000000D+00  0.0000000000000D+00  0.0000000000000D+00
249  2.4800000000000D+00  0.0000000000000D+00  0.0000000000000D+00
250  2.4900000000000D+00  0.0000000000000D+00  0.0000000000000D+00
251  2.5000000000000D+00  0.0000000000000D+00  0.0000000000000D+00
252  2.5100000000000D+00  0.0000000000000D+00  0.0000000000000D+00
253  2.5200000000000D+00  0.0000000000000D+00  0.0000000000000D+00
254  2.5300000000000D+00  0.0000000000000D+00  0.0000000000000D+00
255  2.5400000000000D+00  0.0000000000000D+00  0.0000000000000D+00
256  2.5500000000000D+00  0.0000000000000D+00  0.0000000000000D+00
257  2.5600000000000D+00  0.0000000000000D+00  0.0000000000000D+00
258  2.5700000000000D+00  0.0000000000000D+00  0.0000000000000D+00
259  2.5800000000000D+00  0.0000000000000D+00  0.0000000000000D+00
260  2.5900000000000D+00  0.0000000000000D+00  0.0000000000000D+00
261  2.6000000000000D+00  0.0000000000000D+00  0.0000000000000D+00
262  2.6100000000000D+00  0.0000000000000D+00  0.0000000000000D+00
263  2.6200000000000D+00  0.0000000000000D+00  0.0000000000000D+00
264  2.6300000000000D+00  0.0000000000000D+00  0.0000000000000D+00
265  2.6400000000000D+00  0.0000000000000D+00  0.0000000000000D+00
266  2.6500000000000D+00  0.0000000000000D+00  0.0000000000000D+00
267  2.6600000000000D+00  0.0000000000000D+00  0.0000000000000D+00
268  2.6700000000000D+00  0.0000000000000D+00  0.0000000000000D+00
269  2.6800000000000D+00  0.0000000000000D+00  0.0000000000000D+00
270  2.6900000000000D+00  0.0000000000000D+00  0.0000000000000D+00
271  2.7000000000000D+00  0.0000000000000D+00  0.0000000000000D+00
272  2.7100000000000D+00  0.0000000000000D+00  0.0000000000000D+00
273  2.7200000000000D+00  0.0000000000000D+00  0.0000000000000D+00
274  2.7300000000000D+00  0.0000000000000D+00  0.0000000000000D+00
275  2.7400000000000D+00  0.0000000000000D+00  0.0000000000000D+00
276  2.7500000000000D+00  0.0000000000000D+00  0.0000000000000D+00
277  2.7600000000000D+00  0.0000000000000D+00  0.0000000000000D+00
278  2.7700000000000D+00  0.0000000000000D+00  0.0000000000000D+00
279  2.7800000000000D+00  0.0000000000000D+00  0.0000000000000D+00
280  2.7900000000000D+00  0.0000000000000D+00  0.0000000000000D+00
281  2.8000000000000D+00  0.0000000000000D+00  0.0000000000000D+00
282  2.8100000000000D+00  0.0000000000000D+00  0.0000000000000D+00
283  2.8200000000000D+00  0.0000000000000D+00  0.0000000000000D+00
284  2.8300000000000D+00  0.0000000000000D+00  0.0000000000000D+00
285  2.8400000000000D+00  0.0000000000000D+00  0.0000000000000D+00
286  2.8500000000000D+00  0.0000000000000D+00  0.0000000000000D+00
287  2.8600000000000D+00  0.0000000000000D+00  0.0000000000000D+00
288  2.8700000000000D+00  0.0000000000000D+00  0.0000000000000D+00
289  2.8800000000000D+00  0.0000000000000D+00  0.0000000000000D+00
290  2.8900000000000D+00  0.0000000000000D+00  0.0000000000000D+00
291  2.9000000000000D+00  0.0000000000000D+00  0.0000000000000D+00
292  2.9100000000000D+00  0.0000000000000D+00  0.0000000000000D+00
293  2.9200000000000D+00  0.0000000000000D+00  0.0000000000000D+00
294  2.9300000000000D+00  0.0000000000000D+00  0.0000000000000D+00
295  2.9400000000000D+00  0.0000000000000D+00  0.0000000000000D+00
296  2.9500000000000D+00  0.0000000000000D+00  0.0000000000000D+00
297  2.9600000000000D+00  0.0000000000000D+00  0.0000000000000D+00
298  2.9700000000000D+00  0.0000000000000D+00  0.0000000000000D+00
299  2.9800000000000D+00  0.0000000000000D+00  0.0000000000000D+00
300  2.9900000000000D+00  0.0000000000000D+00  0.0000000000000D+00
301  3.0000000000000D+00  0.0000000000000D+00  0.0000000000000D+00
302  3.0100000000000D+00  0.0000000000000D+00  0.0000000000000D+00
303  3.0200000000000D+00  0.0000000000000D+00  0.0000000000000D+00
304  3.0300000000000D+00  0.0000000000000D+00  0.0000000000000D+00
305  3.0400000000000D+00  0.0000000000000D+00  0.0000000000000D+00
306  3.0500000000000D+00  0.0000000000000D+00  0.0000000000000D+00
307  3.0600000000000D+00  0.0000000000000D+00  0.0000000000000D+00
308  3.0700000000000D+00  0.0000000000000D+00  0.0000000000000D+00
309  3.0800000000000D+00  0.0000000000000D+00  0.0000000000000D+00
310  3.0900000000000D+00  0.0000000000000D+00  0.0000000000000D+00
311  3.1000000000000D+00  0.0000000000000D+00  0.0000000000000D+00
312  3.1100000000000D+00  0.0000000000000D+00  0.0000000000000D+00
313  3.1200000000000D+00  0.0000000000000D+00  0.0000000000000D+00
314  3.1300000000000D+00  0.0000000000000D+00  0.0000000000000D+00
315  3.1400000000000D+00  0.0000000000000D+00  0.0000000000000D+00
316  3.1500000000000D+00  0.0000000000000D+00  0.0000000000000D+00
317  3.1600000000000D+00  0.0000000000000D+00  0.0000000000000D+00
318  3.1700000000000D+00  0.0000000000000D+00  0.0000000000000D+00
319  3.1800000000000D+00  0.0000000000000D+00  0.0000000000000D+00
320  3.1900000000000D+00  0.0000000000000D+00  0.0000000000000D+00
321  3.2000000000000D+00  0.0000000000000D+00  0.0000000000000D+00
322  3.2100000000000D+00  0.0000000000000D+00  0.0000000000000D+00
323  3.2200000000000D+00  0.0000000000000D+00  0.0000000000000D+00
324  3.2300000000000D+00  0.0000000000000D+00  0.0000000000000D+00
325  3.2400000000000D+00  0.0000000000000D+00  0.0000000000000D+00
326  3.2500000000000D+00  0.0000000000000D+00  0.0000000000000D+00
327  3.2600000000000D+00  0.0000000000000D+00  0.0000000000000D+00
328  3.2700000000000D+00  0.0000000000000D+00  0.0000000000000D+00
329  3.2800000000000D+00  0.0000000000000D+00  0.0000000000000D+00
330  3.2900000000000D+00  0.0000000000000D+00  0.0000000000000D+00
331  3.3000000000000D+00  0.0000000000000D+00  0.0000000000000D+00
332  3.3100000000000D+00  0.0000000000000D+00  0.0000000000000D+00
333  3.3200000000000D+00  0.0000000000000D+00  0.0000000000000D+00
334  3.3300000000000D+00  0.0000000000000D+00  0.0000000000000D+00
335  3.3400000000000D+00  0.0000000000000D+00  0.0000000000000D+00
336  3.3500000000000D+00  0.0000000000000D+00  0.0000000000000D+00
337  3.3600000000000D+00  0.0000000000000D+00  0.0000000000000D+00
338  3.3700000000000D+00  0.0000000000000D+00  0.0000000000000D+00
339  3.3800000000000D+00  0.0000000000000D+00  0.0000000000000D+00
340  3.3900000000000D+00  0.0000000000000D+00  0.0000000000000D+00
341  3.4000000000000D+00  0.0000000000000D+00  0.0000000000000D+00
342  3.4100000000000D+00  0.0000000000000D+00  0.0000000000000D+00
343  3.4200000000000D+00  0.0000000000000D+00  0.0000000000000D+00
344  3.4300000000000D+00  0.0000000000000D+00  0.0000000000000D+00
345  3.4400000000000D+00  0.0000000000000D+00  0.0000000000000D+00
346  3.4500000000000D+00  0.0000000000000D+00  0.0000000000000D+00
347  3.4600000000000D+00  0.0000000000000D+00  0.0000000000000D+00
348  3.4700000000000D+00  0.0000000000000D+00  0.0000000000000D+00
349  3.4800000000000D+00  0.0000000000000D+00  0.0000000000000D+00
350  3.4900000000000D+00  0.0000000000000D+00  0.0000000000000D+00
351  3.5000000000000D+00  0.0000000000000D+00  0.0000000000000D+00
352  3.5100000000000D+00  0.0000000000000D+00  0.0000000000000D+00
353  3.5200000000000D+00  0.0000000000000D+00  0.0000000000000D+00
354  3.5300000000000D+00  0.0000000000000D+00  0.0000000000000D+00
355  3.5400000000000D+00  0.0000000000000D+00  0.0000000000000D+00
356  3.5500000000000D+00  0.0000000000000D+00  0.0000000000000D+00
357  3.5600000000000D+00  0.0000000000000D+00  0.0000000000000D+00
358  3.5700000000000D+00  0.0000000000000D+00  0.0000000000000D+00
359  3.5800000000000D+00  0.0000000000000D+00  0.0000000000000D+00
360  3.5900000000000D+00  0.0000000000000D+00  0.0000000000000D+00
361  3.6000000000000D+00  0.0000000000000D+00  0.0000000000000D+00
362  3.6100000000000D+00  0.0000000000000D+00  0.0000000000000D+00
363  3.6200000000000D+00  0.0000000000000D+00  0.0000000000000D+00
364  3.6300000000000D+00  0.0000000000000D+00  0.0000000000000D+00
365  3.6400000000000D+00  0.0000000000000D+00  0.0000000000000D+00
366  3.6500000000000D+00  0.0000000000000D+00  0.0000000000000D+00
367  3.6600000000000D+00  0.0000000000000D+00  0.0000000000000D+00
368  3.6700000000000D+00  0.0000000000000D+00  0.0000000000000D+00
369  3.6800000000000D+00  0.0000000000000D+00  0.0000000000000D+00
370  3.6900000000000D+00  0.0000000000000D+00  0.0000000000000D+00
371  3.7000000000000D+00  0.0000000000000D+00  0.0000000000000D+00
372  3.7100000000000D+00  0.0000000000000D+00  0.0000000000000D+00
373  3.7200000000000D+00  0.0000000000000D+00  0.0000000000000D+00
374  3.7300000000000D+00  0.0000000000000D+00  0.0000000000000D+00
375  3.7400000000000D+00  0.0000000000000D+00  0.0000000000000D+00
376  3.7500000000000D+00  0.0000000000000D+00  0.0000000000000D+00
377  3.7600000000000D+00  0.0000000000000D+00  0.0000000000000D+00
378  3.7700000000000D+00  0.0000000000000D+00  0.0000000000000D+00
379  3.7800000000000D+00  0.0000000000000D+00  0.0000000000000D+00
380  3.7900000000000D+00  0.0000000000000D+00  0.0000000000000D+00
381  3.8000000000000D+00  0.0000000000000D+00  0.0000000000000D+00
382  3.8100000000000D+00  0.0000000000000D+00  0.0000000000000D+00
383  3.8200000000000D+00  0.0000000000000D+00  0.0000000000000D+00
384  3.8300000000000D+00  0.0000000000000D+00  0.0000000000000D+00
385  3.8400000000000D+00  0.0000000000000D+00  0.0000000000000D+00
386  3.8500000000000D+00  0.0000000000000D+00  0.0000000000000D+00
387  3.8600000000000D+00  0.0000000000000D+00  0.0000000000000D+00
388  3.8700000000000D+00  0.0000000000000D+00  0.0000000000000D+00
389  3.8800000000000D+00  0.0000000000000D+00  0.0000000000000D+00
390  3.8900000000000D+00  0.0000000000000D+00  0.0000000000000D+00
391  3.9000000000000D+00  0.0000000000000D+00  0.0000000000000D+00
392  3.9100000000000D+00  0.0000000000000D+00  0.0000000000000D+00
393  3.9200000000000D+00  0.0000000000000D+00  0.0000000000000D+00
394  3.9300000000000D+00  0.0000000000000D+00  0.0000000000000D+00
395  3.9400000000000D+00  0.0000000000000D+00  0.0000000000000D+00
396  3.9500000000000D+00  0.0000000000000D+00  0.0000000000000D+00
397  3.9600000000000D+00  0.0000000000000D+00  0.0000000000000D+00
398  3.9700000000000D+00  0.0000000000000D+00  0.0000000000000D+00
399  3.9800000000000D+00  0.0000000000000D+00  0.0000000000000D+00
400  3.9900000000000D+00  0.0000000000000D+00  0.0000000000000D+00
401  4.0000000000000D+00  0.0000000000000D+00  0.0000000000000D+00
402  4.0100000000000D+00  0.0000000000000D+00  0.0000000000000D+00
403  4.0200000000000D+00  0.0000000000000D+00  0.0000000000000D+00
404  4.0300000000000D+00  0.0000000000000D+00  0.0000000000000D+00
405  4.0400000000000D+00  0.0000000000000D+00  0.0000000000000D+00
406  4.0500000000000D+00  0.0000000000000D+00  0.0000000000000D+00
407  4.0600000000000D+00  0.0000000000000D+00  0.0000000000000D+00
408  4.0700000000000D+00  0.0000000000000D+00  0.0000000000000D+00
409  4.0800000000000D+00  0.0000000000000D+00  0.0000000000000D+00
410  4.0900000000000D+00  0.0000000000000D+00  0.0000000000000D+00
411  4.1000000000000D+00  0.0000000000000D+00  0.0000000000000D+00
412  4.1100000000000D+00  0.0000000000000D+00  0.0000000000000D+00
413  4.1200000000000D+00  0.0000000000000D+00  0.0000000000000D+00
414  4.1300000000000D+00  0.0000000000000D+00  0.0000000000000D+00
415  4.1400000000000D+00  0.0000000000000D+00  0.0000000000000D+00
416  4.1500000000000D+00  0.0000000000000D+00  0.0000000000000D+00
417  4.1600000000000D+00  0.0000000000000D+00  0.0000000000000D+00
418  4.1700000000000D+00  0.0000000000000D+00  0.0000000000000D+00
419  4.1800000000000D+00  0.0000000000000D+00  0.0000000000000D+00
420  4.1900000000000D+00  0.0000000000000D+00  0.0000000000000D+00
421  4.2000000000000D+00  0.0000000000000D+00  0.0000000000000D+00
422  4.2100000000000D+00  0.0000000000000D+00  0.0000000000000D+00
423  4.2200000000000D+00  0.0000000000000D+00  0.0000000000000D+00
424  4.2300000000000D+00  0.0000000000000D+00  0.0000000000000D+00
425  4.2400000000000D+00  0.0000000000000D+00  0.0000000000000D+00
426  4.2500000000000D+00  0.0000000000000D+00  0.0000000000000D+00
427  4.2600000000000D+00  0.0000000000000D+00  0.0000000000000D+00
428  4.2700000000000D+00  0.0000000000000D+00  0.0000000000000D+00
429  4.2800000000000D+00  0.0000000000000D+00  0.0000000000000D+00
430  4.2900000000000D+00  0.0000000000000D+00  0.0000000000000D+00
431  4.3000000000000D+00  0.0000000000000D+00  0.0000000000000D+00
432  4.3100000000000D+00  0.0000000000000D+00  0.0000000000000D+00
433  4.3200000000000D+00  0.0000000000000D+00  0.0000000000000D+00
434  4.3300000000000D+00  0.0000000000000D+00  0.0000000000000D+00
435  4.3400000000000D+00  0.0000000000000D+00  0.0000000000000D+00
436  4.3500000000000D+00  0.0000000000000D+00  0.0000000000000D+00
437  4.3600000000000D+00  0.0000000000000D+00  0.0000000000000D+00
438  4.3700000000000D+00  0.0000000000000D+00  0.0000000000000D+00
439  4.3800000000000D+00  0.0000000000000D+00  0.0000000000000D+00
440  4.3900000000000D+00  0.0000000000000D+00  0.0000000000000D+00
441  4.4000000000000D+00  0.0000000000000D+00  0.0000000000000D+00
442  4.4100000000000D+00  0.0000000000000D+00  0.0000000000000D+00
443  4.4200000000000D+00  0.0000000000000D+00  0.0000000000000D+00