Y     ONCVPSP  r_core=  1.61  1.51  1.57
39.0000     11.0000      160520    zatom,zion,pspd
8      11   2     4   600     0    pspcod,pspxc,lmax,lloc,mmax,r2well
5.99000000  4.00000000  0.00000000    rchrg fchrg qchrg
2     3     3     0    nproj
3                 extension_switch
4     4     0    nprojso
0                         8.7581579561810D-01  1.0205314756559D+01
1  0.0000000000000D+00 -2.4588169000861D-10  6.8577143963466D-11
2  1.0000000000000D-02 -1.1435621442168D-02  4.9586476474421D-02
3  2.0000000000000D-02 -2.2916940840782D-02  9.9136439503047D-02
4  3.0000000000000D-02 -3.4488766496118D-02  1.4861318501158D-01
5  4.0000000000000D-02 -4.6194135522605D-02  1.9797962989175D-01
6  5.0000000000000D-02 -5.8073448509633D-02  2.4719812802439D-01
7  6.0000000000000D-02 -7.0163628312162D-02  2.9623029290195D-01
8  7.0000000000000D-02 -8.2497310724675D-02  3.4503682896932D-01
9  8.0000000000000D-02 -9.5102074546135D-02  3.9357737373349D-01
10  9.0000000000000D-02 -1.0799971823965D-01  4.4181035260751D-01
11  1.0000000000000D-01 -1.2120559003034D-01  4.8969284835402D-01
12  1.1000000000000D-01 -1.3472797787120D-01  5.3718048687793D-01
13  1.2000000000000D-01 -1.4856756524205D-01  5.8422734098851D-01
14  1.3000000000000D-01 -1.6271695823505D-01  6.3078585360811D-01
15  1.4000000000000D-01 -1.7716028882395D-01  6.7680678174984D-01
16  1.5000000000000D-01 -1.9187289861874D-01  7.2223916242006D-01
17  1.6000000000000D-01 -2.0682110677543D-01  7.6703030142568D-01
18  1.7000000000000D-01 -2.2196206506808D-01  8.1112578588079D-01
19  1.8000000000000D-01 -2.3724370244046D-01  8.5446952101535D-01
20  1.9000000000000D-01 -2.5260476064350D-01  8.9700379168954D-01
21  2.0000000000000D-01 -2.6797492183737D-01  9.3866934881488D-01
22  2.1000000000000D-01 -2.8327502829756D-01  9.7940552067655D-01
23  2.2000000000000D-01 -2.9841739361978D-01  1.0191503489435D+00
24  2.3000000000000D-01 -3.1330620407311D-01  1.0578407489446D+00
25  2.4000000000000D-01 -3.2783800801042D-01  1.0954126935834D+00
26  2.5000000000000D-01 -3.4190229051541D-01  1.1318014200576D+00
27  2.6000000000000D-01 -3.5538212975191D-01  1.1669416583531D+00
28  2.7000000000000D-01 -3.6815493078849D-01  1.2007678802867D+00
29  2.8000000000000D-01 -3.8009323200635D-01  1.2332145676856D+00
30  2.9000000000000D-01 -3.9106557856389D-01  1.2642164981149D+00
31  3.0000000000000D-01 -4.0093745679514D-01  1.2937090463972D+00
32  3.1000000000000D-01 -4.0957228286329D-01  1.3216285000119D+00
33  3.2000000000000D-01 -4.1683243848150D-01  1.3479123863186D+00
34  3.3000000000000D-01 -4.2258034605405D-01  1.3724998094216D+00
35  3.4000000000000D-01 -4.2667957518572D-01  1.3953317943762D+00
36  3.5000000000000D-01 -4.2899597216054D-01  1.4163516363408D+00
37  3.6000000000000D-01 -4.2939880370404D-01  1.4355052521959D+00
38  3.7000000000000D-01 -4.2776190612076D-01  1.4527415320906D+00
39  3.8000000000000D-01 -4.2396483074167D-01  1.4680126883264D+00
40  3.9000000000000D-01 -4.1789397652680D-01  1.4812745989676D+00
41  4.0000000000000D-01 -4.0944370064843D-01  1.4924871435550D+00
42  4.1000000000000D-01 -3.9851739793000D-01  1.5016145283138D+00
43  4.2000000000000D-01 -3.8502854013606D-01  1.5086255982787D+00
44  4.3000000000000D-01 -3.6890166629902D-01  1.5134941338077D+00
45  4.4000000000000D-01 -3.5007331552853D-01  1.5161991290282D+00
46  4.5000000000000D-01 -3.2849289407728D-01  1.5167250498486D+00
47  4.6000000000000D-01 -3.0412346883268D-01  1.5150620692741D+00
48  4.7000000000000D-01 -2.7694247986211D-01  1.5112062778943D+00
49  4.8000000000000D-01 -2.4694236516181D-01  1.5051598675509D+00
50  4.9000000000000D-01 -2.1413109133752D-01  1.4969312863542D+00
51  5.0000000000000D-01 -1.7853258457992D-01  1.4865353633923D+00
52  5.1000000000000D-01 -1.4018705698244D-01  1.4739934016648D+00
53  5.2000000000000D-01 -9.9151223978744D-02  1.4593332379757D+00
54  5.3000000000000D-01 -5.5498409449737D-02  1.4425892687352D+00
55  5.4000000000000D-01 -9.3185358549761D-03  1.4238024408400D+00
56  5.5000000000000D-01  3.9282002418400D-02  1.4030202070388D+00
57  5.6000000000000D-01  9.0180583437746D-02  1.3802964454273D+00
58  5.7000000000000D-01  1.4323871990767D-01  1.3556913429608D+00
59  5.8000000000000D-01  1.9830253833650D-01  1.3292712431224D+00
60  5.9000000000000D-01  2.5520337347543D-01  1.3011084581347D+00
61  6.0000000000000D-01  3.1375847543183D-01  1.2712810463533D+00
62  6.1000000000000D-01  3.7377182597551D-01  1.2398725557256D+00
63  6.2000000000000D-01  4.3503505969678D-01  1.2069717344477D+00
64  6.3000000000000D-01  4.9732848483041D-01  1.1726722101853D+00
65  6.4000000000000D-01  5.6042219775411D-01  1.1370721394601D+00
66  6.5000000000000D-01  6.2407728439363D-01  1.1002738290196D+00
67  6.6000000000000D-01  6.8804710103661D-01  1.0623833312257D+00
68  6.7000000000000D-01  7.5207862637842D-01  1.0235100156866D+00
69  6.8000000000000D-01  8.1591387599521D-01  9.8376611954822D-01
70  6.9000000000000D-01  8.7929136987493D-01  9.4326627902174D-01
71  7.0000000000000D-01  9.4194764313796D-01  9.0212704487960D-01
72  7.1000000000000D-01  1.0036187896503D+00  8.6046638477910D-01
73  7.2000000000000D-01  1.0640420278766D+00  8.1840317538782D-01
74  7.3000000000000D-01  1.1229572780453D+00  7.7605668737442D-01
75  7.4000000000000D-01  1.1801087395018D+00  7.3354606639804D-01
76  7.5000000000000D-01  1.2352464570153D+00  6.9098981327674D-01
77  7.6000000000000D-01  1.2881278647771D+00  6.4850526653921D-01
78  7.7000000000000D-01  1.3385192968902D+00  6.0620809056517D-01
79  7.8000000000000D-01  1.3861974532957D+00  5.6421177249716D-01
80  7.9000000000000D-01  1.4309508103161D+00  5.2262713106045D-01
81  8.0000000000000D-01  1.4725809653152D+00  4.8156184035869D-01
82  8.1000000000000D-01  1.5109039053786D+00  4.4111997162062D-01
83  8.2000000000000D-01  1.5457511904024D+00  4.0140155575898D-01
84  8.3000000000000D-01  1.5769710415448D+00  3.6250216946633D-01
85  8.4000000000000D-01  1.6044293266318D+00  3.2451254741614D-01
86  8.5000000000000D-01  1.6280104348205D+00  2.8751822296065D-01
87  8.6000000000000D-01  1.6476180335977D+00  2.5159919952269D-01
88  8.7000000000000D-01  1.6631757020269D+00  2.1682965466659D-01
89  8.8000000000000D-01  1.6746274350502D+00  1.8327767860613D-01
90  8.9000000000000D-01  1.6819380145829D+00  1.5100504866681D-01
91  9.0000000000000D-01  1.6850932441223D+00  1.2006704096655D-01
92  9.1000000000000D-01  1.6841000445991D+00  9.0512280316317D-02
93  9.2000000000000D-01  1.6789864102355D+00  6.2382629071054D-02
94  9.3000000000000D-01  1.6698012242280D+00  3.5713115384782D-02
95  9.4000000000000D-01  1.6566139351323D+00  1.0531901042999D-02
96  9.5000000000000D-01  1.6395140958884D+00 -1.3139711236426D-02
97  9.6000000000000D-01  1.6186107684765D+00 -3.5287231423582D-02
98  9.7000000000000D-01  1.5940317982362D+00 -5.5902897389120D-02
99  9.8000000000000D-01  1.5659229628697D+00 -7.4985552646812D-02
100  9.9000000000000D-01  1.5344470021512D+00 -9.2540487837137D-02
101  1.0000000000000D+00  1.4997825352804D+00 -1.0857924741512D-01
102  1.0100000000000D+00  1.4621228737045D+00 -1.2311940325110D-01
103  1.0200000000000D+00  1.4216747380577D+00 -1.3618429708435D-01
104  1.0300000000000D+00  1.3786568886223D+00 -1.4780275398441D-01
105  1.0400000000000D+00  1.3332986794186D+00 -1.5800876917736D-01
106  1.0500000000000D+00  1.2858385465957D+00 -1.6684117076088D-01
107  1.0600000000000D+00  1.2365224423819D+00 -1.7434326100836D-01
108  1.0700000000000D+00  1.1856022262416D+00 -1.8056243908526D-01
109  1.0800000000000D+00  1.1333340252479D+00 -1.8554980811994D-01
110  1.0900000000000D+00  1.0799765759210D+00 -1.8935976966046D-01
111  1.1000000000000D+00  1.0257895599275D+00 -1.9204960860888D-01
112  1.1100000000000D+00  9.7103194609633D-01 -1.9367907177304D-01
113  1.1200000000000D+00  9.1596035113776D-01 -1.9430994318182D-01
114  1.1300000000000D+00  8.6082743127165D-01 -1.9400561929435D-01
115  1.1400000000000D+00  8.0588031676275D-01 -1.9283068720462D-01
116  1.1500000000000D+00  7.5135910096649D-01 -1.9085050887400D-01
117  1.1600000000000D+00  6.9749539503712D-01 -1.8813081433462D-01
118  1.1700000000000D+00  6.4451095880932D-01 -1.8473730667329D-01
119  1.1800000000000D+00  5.9261641795246D-01 -1.8073528151959D-01
120  1.1900000000000D+00  5.4201007651851D-01 -1.7618926354832D-01
121  1.2000000000000D+00  4.9287683327689D-01 -1.7116266234197D-01
122  1.2100000000000D+00  4.4538720932382D-01 -1.6571744975312D-01
123  1.2200000000000D+00  3.9969649372850D-01 -1.5991386074252D-01
124  1.2300000000000D+00  3.5594401258303D-01 -1.5381011934387D-01
125  1.2400000000000D+00  3.1425252576550D-01 -1.4746219115625D-01
126  1.2500000000000D+00  2.7472775536520D-01 -1.4092356368302D-01
127  1.2600000000000D+00  2.3745804752087D-01 -1.3424505531412D-01
128  1.2700000000000D+00  2.0251416862792D-01 -1.2747465355492D-01
129  1.2800000000000D+00  1.6994923646059D-01 -1.2065738300924D-01
130  1.2900000000000D+00  1.3979878438465D-01 -1.1383520305224D-01
131  1.3000000000000D+00  1.1208095595854D-01 -1.0704693491104D-01
132  1.3100000000000D+00  8.6796827187690D-02 -1.0032821786661D-01
133  1.3200000000000D+00  6.3930850816982D-02 -9.3711493584690D-02
134  1.3300000000000D+00  4.3451416770837D-02 -8.7226017510052D-02
135  1.3400000000000D+00  2.5311522670741D-02 -8.0897896219710D-02
136  1.3500000000000D+00  9.4495453442354D-03 -7.4750148877525D-02
137  1.3600000000000D+00 -4.2098949797008D-03 -6.8802791123497D-02
138  1.3700000000000D+00 -1.5754987366720D-02 -6.3072939418339D-02
139  1.3800000000000D+00 -2.5285711196697D-02 -5.7574933383960D-02
140  1.3900000000000D+00 -3.2912755806740D-02 -5.2320473973039D-02
141  1.4000000000000D+00 -3.8756391400391D-02 -4.7318774699625D-02
142  1.4100000000000D+00 -4.2945303530489D-02 -4.2576723231457D-02
143  1.4200000000000D+00 -4.5615403702552D-02 -3.8099050604593D-02
144  1.4300000000000D+00 -4.6908629869351D-02 -3.3888504958335D-02
145  1.4400000000000D+00 -4.6971749693509D-02 -2.9946026948609D-02
146  1.4500000000000D+00 -4.5955180596049D-02 -2.6270923668409D-02
147  1.4600000000000D+00 -4.4011840941804D-02 -2.2861037873569D-02
148  1.4700000000000D+00 -4.1296045981128D-02 -1.9712909427163D-02
149  1.4800000000000D+00 -3.7962460182917D-02 -1.6821926061292D-02
150  1.4900000000000D+00 -3.4165067201949D-02 -1.4182472062862D-02
151  1.5000000000000D+00 -3.0056083237122D-02 -1.1788086900913D-02
152  1.5100000000000D+00 -2.5786294330595D-02 -9.6313389934120D-03
153  1.5200000000000D+00 -2.1502577248321D-02 -7.7042646687598D-03
154  1.5300000000000D+00 -1.7343751759907D-02 -5.9991335033677D-03
155  1.5400000000000D+00 -1.3436930405942D-02 -4.5091629847650D-03
156  1.5500000000000D+00 -9.8934162621621D-03 -3.2295953855089D-03
157  1.5600000000000D+00 -6.8085479495436D-03 -2.1577828058155D-03
158  1.5700000000000D+00 -4.2449570072449D-03 -1.2894278065764D-03
159  1.5800000000000D+00 -2.2736173793421D-03 -6.2856113539379D-04
160  1.5900000000000D+00 -1.0016538483183D-03 -1.9017266114339D-04
161  1.6000000000000D+00 -3.6992266024100D-04  3.2730269651156D-05
162  1.6100000000000D+00 -1.1040795591835D-04  7.7988317219854D-05
163  1.6200000000000D+00 -1.5169381177591D-05  2.6575351579783D-05
164  1.6300000000000D+00  4.1364454088430D-06 -1.2866827958920D-05
165  1.6400000000000D+00  1.1291811992639D-06 -7.3994798089974D-06
166  1.6500000000000D+00 -1.5383316568195D-06  2.6208705953203D-06
167  1.6600000000000D+00 -7.6402516139192D-07  1.5207245526073D-06
168  1.6700000000000D+00  5.2638286291903D-07 -1.9087415868293D-07
169  1.6800000000000D+00  3.0579355893560D-07 -1.1088523659151D-07
170  1.6900000000000D+00  0.0000000000000D+00  0.0000000000000D+00
171  1.7000000000000D+00  0.0000000000000D+00  0.0000000000000D+00
172  1.7100000000000D+00  0.0000000000000D+00  0.0000000000000D+00
173  1.7200000000000D+00  0.0000000000000D+00  0.0000000000000D+00
174  1.7300000000000D+00  0.0000000000000D+00  0.0000000000000D+00
175  1.7400000000000D+00  0.0000000000000D+00  0.0000000000000D+00
176  1.7500000000000D+00  0.0000000000000D+00  0.0000000000000D+00
177  1.7600000000000D+00  0.0000000000000D+00  0.0000000000000D+00
178  1.7700000000000D+00  0.0000000000000D+00  0.0000000000000D+00
179  1.7800000000000D+00  0.0000000000000D+00  0.0000000000000D+00
180  1.7900000000000D+00  0.0000000000000D+00  0.0000000000000D+00
181  1.8000000000000D+00  0.0000000000000D+00  0.0000000000000D+00
182  1.8100000000000D+00  0.0000000000000D+00  0.0000000000000D+00
183  1.8200000000000D+00  0.0000000000000D+00  0.0000000000000D+00
184  1.8300000000000D+00  0.0000000000000D+00  0.0000000000000D+00
185  1.8400000000000D+00  0.0000000000000D+00  0.0000000000000D+00
186  1.8500000000000D+00  0.0000000000000D+00  0.0000000000000D+00
187  1.8600000000000D+00  0.0000000000000D+00  0.0000000000000D+00
188  1.8700000000000D+00  0.0000000000000D+00  0.0000000000000D+00
189  1.8800000000000D+00  0.0000000000000D+00  0.0000000000000D+00
190  1.8900000000000D+00  0.0000000000000D+00  0.0000000000000D+00
191  1.9000000000000D+00  0.0000000000000D+00  0.0000000000000D+00
192  1.9100000000000D+00  0.0000000000000D+00  0.0000000000000D+00
193  1.9200000000000D+00  0.0000000000000D+00  0.0000000000000D+00
194  1.9300000000000D+00  0.0000000000000D+00  0.0000000000000D+00
195  1.9400000000000D+00  0.0000000000000D+00  0.0000000000000D+00
196  1.9500000000000D+00  0.0000000000000D+00  0.0000000000000D+00
197  1.9600000000000D+00  0.0000000000000D+00  0.0000000000000D+00
198  1.9700000000000D+00  0.0000000000000D+00  0.0000000000000D+00
199  1.9800000000000D+00  0.0000000000000D+00  0.0000000000000D+00
200  1.9900000000000D+00  0.0000000000000D+00  0.0000000000000D+00
201  2.0000000000000D+00  0.0000000000000D+00  0.0000000000000D+00
202  2.0100000000000D+00  0.0000000000000D+00  0.0000000000000D+00
203  2.0200000000000D+00  0.0000000000000D+00  0.0000000000000D+00
204  2.0300000000000D+00  0.0000000000000D+00  0.0000000000000D+00
205  2.0400000000000D+00  0.0000000000000D+00  0.0000000000000D+00
206  2.0500000000000D+00  0.0000000000000D+00  0.0000000000000D+00
207  2.0600000000000D+00  0.0000000000000D+00  0.0000000000000D+00
208  2.0700000000000D+00  0.0000000000000D+00  0.0000000000000D+00
209  2.0800000000000D+00  0.0000000000000D+00  0.0000000000000D+00
210  2.0900000000000D+00  0.0000000000000D+00  0.0000000000000D+00
211  2.1000000000000D+00  0.0000000000000D+00  0.0000000000000D+00
212  2.1100000000000D+00  0.0000000000000D+00  0.0000000000000D+00
213  2.1200000000000D+00  0.0000000000000D+00  0.0000000000000D+00
214  2.1300000000000D+00  0.0000000000000D+00  0.0000000000000D+00
215  2.1400000000000D+00  0.0000000000000D+00  0.0000000000000D+00
216  2.1500000000000D+00  0.0000000000000D+00  0.0000000000000D+00
217  2.1600000000000D+00  0.0000000000000D+00  0.0000000000000D+00
218  2.1700000000000D+00  0.0000000000000D+00  0.0000000000000D+00
219  2.1800000000000D+00  0.0000000000000D+00  0.0000000000000D+00
220  2.1900000000000D+00  0.0000000000000D+00  0.0000000000000D+00
221  2.2000000000000D+00  0.0000000000000D+00  0.0000000000000D+00
222  2.2100000000000D+00  0.0000000000000D+00  0.0000000000000D+00
223  2.2200000000000D+00  0.0000000000000D+00  0.0000000000000D+00
224  2.2300000000000D+00  0.0000000000000D+00  0.0000000000000D+00
225  2.2400000000000D+00  0.0000000000000D+00  0.0000000000000D+00
226  2.2500000000000D+00  0.0000000000000D+00  0.0000000000000D+00
227  2.2600000000000D+00  0.0000000000000D+00  0.0000000000000D+00
228  2.2700000000000D+00  0.0000000000000D+00  0.0000000000000D+00
229  2.2800000000000D+00  0.0000000000000D+00  0.0000000000000D+00
230  2.2900000000000D+00  0.0000000000000D+00  0.0000000000000D+00
231  2.3000000000000D+00  0.0000000000000D+00  0.0000000000000D+00
232  2.3100000000000D+00  0.0000000000000D+00  0.0000000000000D+00
233  2.3200000000000D+00  0.0000000000000D+00  0.0000000000000D+00
234  2.3300000000000D+00  0.0000000000000D+00  0.0000000000000D+00
235  2.3400000000000D+00  0.0000000000000D+00  0.0000000000000D+00
236  2.3500000000000D+00  0.0000000000000D+00  0.0000000000000D+00
237  2.3600000000000D+00  0.0000000000000D+00  0.0000000000000D+00
238  2.3700000000000D+00  0.0000000000000D+00  0.0000000000000D+00
239  2.3800000000000D+00  0.0000000000000D+00  0.0000000000000D+00
240  2.3900000000000D+00  0.0000000000000D+00  0.0000000000000D+00
241  2.4000000000000D+00  0.0000000000000D+00  0.0000000000000D+00
242  2.4100000000000D+00  0.0000000000000D+00  0.0000000000000D+00
243  2.4200000000000D+00  0.0000000000000D+00  0.0000000000000D+00
244  2.4300000000000D+00  0.0000000000000D+00  0.0000000000000D+00
245  2.4400000000000D+00  0.0000000000000D+00  0.0000000000000D+00
246  2.4500000000000D+00  0.0000000000000D+00  0.0000000000000D+00
247  2.4600000000000D+00  0.0000000000000D+00  0.0000000000000D+00
248  2.4700000000000D+00  0.0000000000000D+00  0.0000000000000D+00
249  2.4800000000000D+00  0.0000000000000D+00  0.0000000000000D+00
250  2.4900000000000D+00  0.0000000000000D+00  0.0000000000000D+00
251  2.5000000000000D+00  0.0000000000000D+00  0.0000000000000D+00
252  2.5100000000000D+00  0.0000000000000D+00  0.0000000000000D+00
253  2.5200000000000D+00  0.0000000000000D+00  0.0000000000000D+00
254  2.5300000000000D+00  0.0000000000000D+00  0.0000000000000D+00
255  2.5400000000000D+00  0.0000000000000D+00  0.0000000000000D+00
256  2.5500000000000D+00  0.0000000000000D+00  0.0000000000000D+00
257  2.5600000000000D+00  0.0000000000000D+00  0.0000000000000D+00
258  2.5700000000000D+00  0.0000000000000D+00  0.0000000000000D+00
259  2.5800000000000D+00  0.0000000000000D+00  0.0000000000000D+00
260  2.5900000000000D+00  0.0000000000000D+00  0.0000000000000D+00
261  2.6000000000000D+00  0.0000000000000D+00  0.0000000000000D+00
262  2.6100000000000D+00  0.0000000000000D+00  0.0000000000000D+00
263  2.6200000000000D+00  0.0000000000000D+00  0.0000000000000D+00
264  2.6300000000000D+00  0.0000000000000D+00  0.0000000000000D+00
265  2.6400000000000D+00  0.0000000000000D+00  0.0000000000000D+00
266  2.6500000000000D+00  0.0000000000000D+00  0.0000000000000D+00
267  2.6600000000000D+00  0.0000000000000D+00  0.0000000000000D+00
268  2.6700000000000D+00  0.0000000000000D+00  0.0000000000000D+00
269  2.6800000000000D+00  0.0000000000000D+00  0.0000000000000D+00
270  2.6900000000000D+00  0.0000000000000D+00  0.0000000000000D+00
271  2.7000000000000D+00  0.0000000000000D+00  0.0000000000000D+00
272  2.7100000000000D+00  0.0000000000000D+00  0.0000000000000D+00
273  2.7200000000000D+00  0.0000000000000D+00  0.0000000000000D+00
274  2.7300000000000D+00  0.0000000000000D+00  0.0000000000000D+00
275  2.7400000000000D+00  0.0000000000000D+00  0.0000000000000D+00
276  2.7500000000000D+00  0.0000000000000D+00  0.0000000000000D+00
277  2.7600000000000D+00  0.0000000000000D+00  0.0000000000000D+00
278  2.7700000000000D+00  0.0000000000000D+00  0.0000000000000D+00
279  2.7800000000000D+00  0.0000000000000D+00  0.0000000000000D+00
280  2.7900000000000D+00  0.0000000000000D+00  0.0000000000000D+00
281  2.8000000000000D+00  0.0000000000000D+00  0.0000000000000D+00
282  2.8100000000000D+00  0.0000000000000D+00  0.0000000000000D+00
283  2.8200000000000D+00  0.0000000000000D+00  0.0000000000000D+00
284  2.8300000000000D+00  0.0000000000000D+00  0.0000000000000D+00
285  2.8400000000000D+00  0.0000000000000D+00  0.0000000000000D+00
286  2.8500000000000D+00  0.0000000000000D+00  0.0000000000000D+00
287  2.8600000000000D+00  0.0000000000000D+00  0.0000000000000D+00
288  2.8700000000000D+00  0.0000000000000D+00  0.0000000000000D+00
289  2.8800000000000D+00  0.0000000000000D+00  0.0000000000000D+00
290  2.8900000000000D+00  0.0000000000000D+00  0.0000000000000D+00
291  2.9000000000000D+00  0.0000000000000D+00  0.0000000000000D+00
292  2.9100000000000D+00  0.0000000000000D+00  0.0000000000000D+00
293  2.9200000000000D+00  0.0000000000000D+00  0.0000000000000D+00
294  2.9300000000000D+00  0.0000000000000D+00  0.0000000000000D+00
295  2.9400000000000D+00  0.0000000000000D+00  0.0000000000000D+00
296  2.9500000000000D+00  0.0000000000000D+00  0.0000000000000D+00
297  2.9600000000000D+00  0.0000000000000D+00  0.0000000000000D+00
298  2.9700000000000D+00  0.0000000000000D+00  0.0000000000000D+00
299  2.9800000000000D+00  0.0000000000000D+00  0.0000000000000D+00
300  2.9900000000000D+00  0.0000000000000D+00  0.0000000000000D+00
301  3.0000000000000D+00  0.0000000000000D+00  0.0000000000000D+00
302  3.0100000000000D+00  0.0000000000000D+00  0.0000000000000D+00
303  3.0200000000000D+00  0.0000000000000D+00  0.0000000000000D+00
304  3.0300000000000D+00  0.0000000000000D+00  0.0000000000000D+00
305  3.0400000000000D+00  0.0000000000000D+00  0.0000000000000D+00
306  3.0500000000000D+00  0.0000000000000D+00  0.0000000000000D+00
307  3.0600000000000D+00  0.0000000000000D+00  0.0000000000000D+00
308  3.0700000000000D+00  0.0000000000000D+00  0.0000000000000D+00
309  3.0800000000000D+00  0.0000000000000D+00  0.0000000000000D+00
310  3.0900000000000D+00  0.0000000000000D+00  0.0000000000000D+00
311  3.1000000000000D+00  0.0000000000000D+00  0.0000000000000D+00
312  3.1100000000000D+00  0.0000000000000D+00  0.0000000000000D+00
313  3.1200000000000D+00  0.0000000000000D+00  0.0000000000000D+00
314  3.1300000000000D+00  0.0000000000000D+00  0.0000000000000D+00
315  3.1400000000000D+00  0.0000000000000D+00  0.0000000000000D+00
316  3.1500000000000D+00  0.0000000000000D+00  0.0000000000000D+00
317  3.1600000000000D+00  0.0000000000000D+00  0.0000000000000D+00
318  3.1700000000000D+00  0.0000000000000D+00  0.0000000000000D+00
319  3.1800000000000D+00  0.0000000000000D+00  0.0000000000000D+00
320  3.1900000000000D+00  0.0000000000000D+00  0.0000000000000D+00
321  3.2000000000000D+00  0.0000000000000D+00  0.0000000000000D+00
322  3.2100000000000D+00  0.0000000000000D+00  0.0000000000000D+00
323  3.2200000000000D+00  0.0000000000000D+00  0.0000000000000D+00
324  3.2300000000000D+00  0.0000000000000D+00  0.0000000000000D+00
325  3.2400000000000D+00  0.0000000000000D+00  0.0000000000000D+00
326  3.2500000000000D+00  0.0000000000000D+00  0.0000000000000D+00
327  3.2600000000000D+00  0.0000000000000D+00  0.0000000000000D+00
328  3.2700000000000D+00  0.0000000000000D+00  0.0000000000000D+00
329  3.2800000000000D+00  0.0000000000000D+00  0.0000000000000D+00
330  3.2900000000000D+00  0.0000000000000D+00  0.0000000000000D+00
331  3.3000000000000D+00  0.0000000000000D+00  0.0000000000000D+00
332  3.3100000000000D+00  0.0000000000000D+00  0.0000000000000D+00
333  3.3200000000000D+00  0.0000000000000D+00  0.0000000000000D+00
334  3.3300000000000D+00  0.0000000000000D+00  0.0000000000000D+00
335  3.3400000000000D+00  0.0000000000000D+00  0.0000000000000D+00
336  3.3500000000000D+00  0.0000000000000D+00  0.0000000000000D+00
337  3.3600000000000D+00  0.0000000000000D+00  0.0000000000000D+00
338  3.3700000000000D+00  0.0000000000000D+00  0.0000000000000D+00
339  3.3800000000000D+00  0.0000000000000D+00  0.0000000000000D+00
340  3.3900000000000D+00  0.0000000000000D+00  0.0000000000000D+00
341  3.4000000000000D+00  0.0000000000000D+00  0.0000000000000D+00
342  3.4100000000000D+00  0.0000000000000D+00  0.0000000000000D+00
343  3.4200000000000D+00  0.0000000000000D+00  0.0000000000000D+00
344  3.4300000000000D+00  0.0000000000000D+00  0.0000000000000D+00
345  3.4400000000000D+00  0.0000000000000D+00  0.0000000000000D+00
346  3.4500000000000D+00  0.0000000000000D+00  0.0000000000000D+00
347  3.4600000000000D+00  0.0000000000000D+00  0.0000000000000D+00
348  3.4700000000000D+00  0.0000000000000D+00  0.0000000000000D+00
349  3.4800000000000D+00  0.0000000000000D+00  0.0000000000000D+00
350  3.4900000000000D+00  0.0000000000000D+00  0.0000000000000D+00
351  3.5000000000000D+00  0.0000000000000D+00  0.0000000000000D+00
352  3.5100000000000D+00  0.0000000000000D+00  0.0000000000000D+00
353  3.5200000000000D+00  0.0000000000000D+00  0.0000000000000D+00
354  3.5300000000000D+00  0.0000000000000D+00  0.0000000000000D+00
355  3.5400000000000D+00  0.0000000000000D+00  0.0000000000000D+00
356  3.5500000000000D+00  0.0000000000000D+00  0.0000000000000D+00
357  3.5600000000000D+00  0.0000000000000D+00  0.0000000000000D+00
358  3.5700000000000D+00  0.0000000000000D+00  0.0000000000000D+00
359  3.5800000000000D+00  0.0000000000000D+00  0.0000000000000D+00
360  3.5900000000000D+00  0.0000000000000D+00  0.0000000000000D+00
361  3.6000000000000D+00  0.0000000000000D+00  0.0000000000000D+00
362  3.6100000000000D+00  0.0000000000000D+00  0.0000000000000D+00
363  3.6200000000000D+00  0.0000000000000D+00  0.0000000000000D+00
364  3.6300000000000D+00  0.0000000000000D+00  0.0000000000000D+00
365  3.6400000000000D+00  0.0000000000000D+00  0.0000000000000D+00
366  3.6500000000000D+00  0.0000000000000D+00  0.0000000000000D+00
367  3.6600000000000D+00  0.0000000000000D+00  0.0000000000000D+00
368  3.6700000000000D+00  0.0000000000000D+00  0.0000000000000D+00
369  3.6800000000000D+00  0.0000000000000D+00  0.0000000000000D+00
370  3.6900000000000D+00  0.0000000000000D+00  0.0000000000000D+00
371  3.7000000000000D+00  0.0000000000000D+00  0.0000000000000D+00
372  3.7100000000000D+00  0.0000000000000D+00  0.0000000000000D+00
373  3.7200000000000D+00  0.0000000000000D+00  0.0000000000000D+00
374  3.7300000000000D+00  0.0000000000000D+00  0.0000000000000D+00
375  3.7400000000000D+00  0.0000000000000D+00  0.0000000000000D+00
376  3.7500000000000D+00  0.0000000000000D+00  0.0000000000000D+00
377  3.7600000000000D+00  0.0000000000000D+00  0.0000000000000D+00
378  3.7700000000000D+00  0.0000000000000D+00  0.0000000000000D+00
379  3.7800000000000D+00  0.0000000000000D+00  0.0000000000000D+00
380  3.7900000000000D+00  0.0000000000000D+00  0.0000000000000D+00
381  3.8000000000000D+00  0.0000000000000D+00  0.0000000000000D+00
382  3.8100000000000D+00  0.0000000000000D+00  0.0000000000000D+00
383  3.8200000000000D+00  0.0000000000000D+00  0.0000000000000D+00
384  3.8300000000000D+00  0.0000000000000D+00  0.0000000000000D+00
385  3.8400000000000D+00  0.0000000000000D+00  0.0000000000000D+00
386  3.8500000000000D+00  0.0000000000000D+00  0.0000000000000D+00
387  3.8600000000000D+00  0.0000000000000D+00  0.0000000000000D+00
388  3.8700000000000D+00  0.0000000000000D+00  0.0000000000000D+00
389  3.8800000000000D+00  0.0000000000000D+00  0.0000000000000D+00
390  3.8900000000000D+00  0.0000000000000D+00  0.0000000000000D+00
391  3.9000000000000D+00  0.0000000000000D+00  0.0000000000000D+00
392  3.9100000000000D+00  0.0000000000000D+00  0.0000000000000D+00
393  3.9200000000000D+00  0.0000000000000D+00  0.0000000000000D+00
394  3.9300000000000D+00  0.0000000000000D+00  0.0000000000000D+00
395  3.9400000000000D+00  0.0000000000000D+00  0.0000000000000D+00
396  3.9500000000000D+00  0.0000000000000D+00  0.0000000000000D+00
397  3.9600000000000D+00  0.0000000000000D+00  0.0000000000000D+00
398  3.9700000000000D+00  0.0000000000000D+00  0.0000000000000D+00
399  3.9800000000000D+00  0.0000000000000D+00  0.0000000000000D+00
400  3.9900000000000D+00  0.0000000000000D+00  0.0000000000000D+00
401  4.0000000000000D+00  0.0000000000000D+00  0.0000000000000D+00
402  4.0100000000000D+00  0.0000000000000D+00  0.0000000000000D+00
403  4.0200000000000D+00  0.0000000000000D+00  0.0000000000000D+00
404  4.0300000000000D+00  0.0000000000000D+00  0.0000000000000D+00
405  4.0400000000000D+00  0.0000000000000D+00  0.0000000000000D+00
406  4.0500000000000D+00  0.0000000000000D+00  0.0000000000000D+00
407  4.0600000000000D+00  0.0000000000000D+00  0.0000000000000D+00
408  4.0700000000000D+00  0.0000000000000D+00  0.0000000000000D+00
409  4.0800000000000D+00  0.0000000000000D+00  0.0000000000000D+00
410  4.0900000000000D+00  0.0000000000000D+00  0.0000000000000D+00
411  4.1000000000000D+00  0.0000000000000D+00  0.0000000000000D+00
412  4.1100000000000D+00  0.0000000000000D+00  0.0000000000000D+00
413  4.1200000000000D+00  0.0000000000000D+00  0.0000000000000D+00
414  4.1300000000000D+00  0.0000000000000D+00  0.0000000000000D+00
415  4.1400000000000D+00  0.0000000000000D+00  0.0000000000000D+00
416  4.1500000000000D+00  0.0000000000000D+00  0.0000000000000D+00
417  4.1600000000000D+00  0.0000000000000D+00  0.0000000000000D+00
418  4.1700000000000D+00  0.0000000000000D+00  0.0000000000000D+00
419  4.1800000000000D+00  0.0000000000000D+00  0.0000000000000D+00
420  4.1900000000000D+00  0.0000000000000D+00  0.0000000000000D+00
421  4.2000000000000D+00  0.0000000000000D+00  0.0000000000000D+00
422  4.2100000000000D+00  0.0000000000000D+00  0.0000000000000D+00
423  4.2200000000000D+00  0.0000000000000D+00  0.0000000000000D+00
424  4.2300000000000D+00  0.0000000000000D+00  0.0000000000000D+00
425  4.2400000000000D+00  0.0000000000000D+00  0.0000000000000D+00
426  4.2500000000000D+00  0.0000000000000D+00  0.0000000000000D+00
427  4.2600000000000D+00  0.0000000000000D+00  0.0000000000000D+00
428  4.2700000000000D+00  0.0000000000000D+00  0.0000000000000D+00
429  4.2800000000000D+00  0.0000000000000D+00  0.0000000000000D+00
430  4.2900000000000D+00  0.0000000000000D+00  0.0000000000000D+00
431  4.3000000000000D+00  0.0000000000000D+00  0.0000000000000D+00
432  4.3100000000000D+00  0.0000000000000D+00  0.0000000000000D+00
433  4.3200000000000D+00  0.0000000000000D+00  0.0000000000000D+00
434  4.3300000000000D+00  0.0000000000000D+00  0.0000000000000D+00
435  4.3400000000000D+00  0.0000000000000D+00  0.0000000000000D+00
436  4.3500000000000D+00  0.0000000000000D+00  0.0000000000000D+00
437  4.3600000000000D+00  0.0000000000000D+00  0.0000000000000D+00
438  4.3700000000000D+00  0.0000000000000D+00  0.0000000000000D+00
439  4.3800000000000D+00  0.0000000000000D+00  0.0000000000000D+00
440  4.3900000000000D+00  0.0000000000000D+00  0.0000000000000D+00
441  4.4000000000000D+00  0.0000000000000D+00  0.0000000000000D+00
442  4.4100000000000D+00  0.0000000000000D+00  0.0000000000000D+00
443  4.4200000000000D+00  0.0000000000000D+00  0.0000000000000D+00