Cl    ONCVPSP-3.2.3  r_core=   1.56009   1.35202   1.75774
17.0000      7.0000      170222    zatom,zion,pspd
8      11   2     4   600     0    pspcod,pspxc,lmax,lloc,mmax,r2well
5.99000000  8.00000000  0.00000000    rchrg fchrg qchrg
2     3     2     0    nproj
3     1           extension_switch
4     3     0    nprojso
0                         6.6508567513922D-01  7.9519449676855D+00
1  0.0000000000000D+00 -6.9437655104976D-09  1.4266604564384D-09
2  1.0000000000000D-02 -6.9484019415456D-04  4.2290368458150D-02
3  2.0000000000000D-02 -1.6767893447634D-03  8.4605581341654D-02
4  3.0000000000000D-02 -3.2270575079162D-03  1.2696925676492D-01
5  4.0000000000000D-02 -5.6151615931303D-03  1.6940258203269D-01
6  5.0000000000000D-02 -9.0933386130379D-03  2.1192315239343D-01
7  6.0000000000000D-02 -1.3891265676685D-02  2.5454387374683D-01
8  7.0000000000000D-02 -2.0211180660118D-02  2.9727194891522D-01
9  8.0000000000000D-02 -2.8223490544184D-02  3.4010796566283D-01
10  9.0000000000000D-02 -3.8062945955104D-02  3.8304510290851D-01
11  1.0000000000000D-01 -4.9825450622151D-02  4.2606846955921D-01
12  1.1000000000000D-01 -6.3565563447327D-02  4.6915458812483D-01
13  1.2000000000000D-01 -7.9294738851937D-02  5.1227103280012D-01
14  1.3000000000000D-01 -9.6980338230822D-02  5.5537622905710D-01
15  1.4000000000000D-01 -1.1654543192649D-01  5.9841941902719D-01
16  1.5000000000000D-01 -1.3786939736234D-01  6.4134079411269D-01
17  1.6000000000000D-01 -1.6078930508333D-01  6.8407179340081D-01
18  1.7000000000000D-01 -1.8510207068258D-01  7.2653556360862D-01
19  1.8000000000000D-01 -2.1056733718044D-01  7.6864757351261D-01
20  1.9000000000000D-01 -2.3691103960011D-01  8.1031637315945D-01
21  2.0000000000000D-01 -2.6382959147311D-01  8.5144448566039D-01
22  2.1000000000000D-01 -2.9099462201600D-01  8.9192941708282D-01
23  2.2000000000000D-01 -3.1805818293969D-01  9.3166476790869D-01
24  2.3000000000000D-01 -3.4465833545401D-01  9.7054142776582D-01
25  2.4000000000000D-01 -3.7042502116196D-01  1.0084488336843D+00
26  2.5000000000000D-01 -3.9498611532132D-01  1.0452762710134D+00
27  2.6000000000000D-01 -4.1797355748110D-01  1.0809141953707D+00
28  2.7000000000000D-01 -4.3902945284029D-01  1.1152555536049D+00
29  2.8000000000000D-01 -4.5781203786057D-01  1.1481970817329D+00
30  2.9000000000000D-01 -4.7400140569551D-01  1.1796405581775D+00
31  3.0000000000000D-01 -4.8730489084625D-01  1.2094939913608D+00
32  3.1000000000000D-01 -4.9746201805793D-01  1.2376727218027D+00
33  3.2000000000000D-01 -5.0424892774054D-01  1.2641004203126D+00
34  3.3000000000000D-01 -5.0748219901338D-01  1.2887099656104D+00
35  3.4000000000000D-01 -5.0702200168669D-01  1.3114441867631D+00
36  3.5000000000000D-01 -5.0277451993665D-01  1.3322564581162D+00
37  3.6000000000000D-01 -4.9469360290772D-01  1.3511111369190D+00
38  3.7000000000000D-01 -4.8278161077796D-01  1.3679838365265D+00
39  3.8000000000000D-01 -4.6708943872272D-01  1.3828615308824D+00
40  3.9000000000000D-01 -4.4771571547120D-01  1.3957424888808D+00
41  4.0000000000000D-01 -4.2480518752674D-01  1.4066360401336D+00
42  4.1000000000000D-01 -3.9854631436487D-01  1.4155621765791D+00
43  4.2000000000000D-01 -3.6916811378907D-01  1.4225509972035D+00
44  4.3000000000000D-01 -3.3693630987048D-01  1.4276420058712D+00
45  4.4000000000000D-01 -3.0214884829430D-01  1.4308832748083D+00
46  4.5000000000000D-01 -2.6513085526270D-01  1.4323304886333D+00
47  4.6000000000000D-01 -2.2622912616343D-01  1.4320458859174D+00
48  4.7000000000000D-01 -1.8580623882339D-01  1.4300971170631D+00
49  4.8000000000000D-01 -1.4423439317228D-01  1.4265560387730D+00
50  4.9000000000000D-01 -1.0188908441459D-01  1.4214974665172D+00
51  5.0000000000000D-01 -5.9142720248415D-02  1.4149979071749D+00
52  5.1000000000000D-01 -1.6358294207015D-02  1.4071342944130D+00
53  5.2000000000000D-01  2.6116773198930D-02  1.3979827493568D+00
54  5.3000000000000D-01  6.7956516202622D-02  1.3876173887087D+00
55  5.4000000000000D-01  1.0886192328437D-01  1.3761092016851D+00
56  5.5000000000000D-01  1.4856595546802D-01  1.3635250159793D+00
57  5.6000000000000D-01  1.8683799229160D-01  1.3499265714366D+00
58  5.7000000000000D-01  2.2348762378985D-01  1.3353697182775D+00
59  5.8000000000000D-01  2.5836771781224D-01  1.3199037545451D+00
60  5.9000000000000D-01  2.9137670420681D-01  1.3035709150370D+00
61  6.0000000000000D-01  3.2246003078423D-01  1.2864060213239D+00
62  6.1000000000000D-01  3.5161076011211D-01  1.2684362996385D+00
63  6.2000000000000D-01  3.7886929108810D-01  1.2496813704412D+00
64  6.3000000000000D-01  4.0432220436299D-01  1.2301534104324D+00
65  6.4000000000000D-01  4.2810024604199D-01  1.2098574846979D+00
66  6.5000000000000D-01  4.5037547925413D-01  1.1887920436114D+00
67  6.6000000000000D-01  4.7135764786845D-01  1.1669495761510D+00
68  6.7000000000000D-01  4.9128981078602D-01  1.1443174084151D+00
69  6.8000000000000D-01  5.1044331835631D-01  1.1208786334504D+00
70  6.9000000000000D-01  5.2911221447331D-01  1.0966131560556D+00
71  7.0000000000000D-01  5.4760715857430D-01  1.0714988340266D+00
72  7.1000000000000D-01  5.6624897085828D-01  1.0455126954351D+00
73  7.2000000000000D-01  5.8536191140544D-01  1.0186322099890D+00
74  7.3000000000000D-01  6.0526680940312D-01  9.9083659135620D-01
75  7.4000000000000D-01  6.2627416223087D-01  9.6210810655243D-01
76  7.5000000000000D-01  6.4867732568228D-01  9.3243336812375D-01
77  7.6000000000000D-01  6.7274591602817D-01  9.0180458490081D-01
78  7.7000000000000D-01  6.9871954198959D-01  8.7022074756645D-01
79  7.8000000000000D-01  7.2680197999894D-01  8.3768872615511D-01
80  7.9000000000000D-01  7.5715589945890D-01  8.0422425788057D-01
81  8.0000000000000D-01  7.8989823616345D-01  7.6985280534713D-01
82  8.1000000000000D-01  8.2509630175542D-01  7.3461026721329D-01
83  8.2000000000000D-01  8.6276470522312D-01  6.9854352571494D-01
84  8.3000000000000D-01  9.0286314921999D-01  6.6171081807004D-01
85  8.4000000000000D-01  9.4529514953154D-01  6.2418192165901D-01
86  8.5000000000000D-01  9.8990771071501D-01  5.8603814592419D-01
87  8.6000000000000D-01  1.0364919749166D+00  5.4737212713507D-01
88  8.7000000000000D-01  1.0847848444708D+00  5.0828742545528D-01
89  8.8000000000000D-01  1.1344715623627D+00  4.6889792707078D-01
90  8.9000000000000D-01  1.1851892182817D+00  4.2932705743923D-01
91  9.0000000000000D-01  1.2365311320288D+00  3.8970681495259D-01
92  9.1000000000000D-01  1.2880520509461D+00  3.5017663737246D-01
93  9.2000000000000D-01  1.3392740836709D+00  3.1088211632955D-01
94  9.3000000000000D-01  1.3896932796185D+00  2.7197357782473D-01
95  9.4000000000000D-01  1.4387867520158D+00  2.3360454906038D-01
96  9.5000000000000D-01  1.4860202324243D+00  1.9593013398901D-01
97  9.6000000000000D-01  1.5308559366409D+00  1.5910532166395D-01
98  9.7000000000000D-01  1.5727606157915D+00  1.2328325278503D-01
99  9.8000000000000D-01  1.6112136624483D+00  8.8613470724448D-02
100  9.9000000000000D-01  1.6457151397705D+00  5.5240183784542D-02
101  1.0000000000000D+00  1.6757936021848D+00  2.3300565437486D-02
102  1.0100000000000D+00  1.7010135784977D+00 -7.0768810824493D-03
103  1.0200000000000D+00  1.7209825933196D+00 -3.5773868355933D-02
104  1.0300000000000D+00  1.7353576094904D+00 -6.2683756316993D-02
105  1.0400000000000D+00  1.7438507830684D+00 -8.7712847226253D-02
106  1.0500000000000D+00  1.7462344330526D+00 -1.1078152358891D-01
107  1.0600000000000D+00  1.7423451411943D+00 -1.3182521108321D-01
108  1.0700000000000D+00  1.7320869092152D+00 -1.5079515089384D-01
109  1.0800000000000D+00  1.7154333181771D+00 -1.6765896926029D-01
110  1.0900000000000D+00  1.6924286492138D+00 -1.8240103490016D-01
111  1.1000000000000D+00  1.6631879423661D+00 -1.9502259843210D-01
112  1.1100000000000D+00  1.6278959875659D+00 -2.0554171136090D-01
113  1.1200000000000D+00  1.5868052574964D+00 -2.1399292530808D-01
114  1.1300000000000D+00  1.5402328121335D+00 -2.2042677618986D-01
115  1.1400000000000D+00  1.4885562192096D+00 -2.2490906094763D-01
116  1.1500000000000D+00  1.4322085524017D+00 -2.2751991798470D-01
117  1.1600000000000D+00  1.3716725410583D+00 -2.2835272489382D-01
118  1.1700000000000D+00  1.3074739634811D+00 -2.2751283077891D-01
119  1.1800000000000D+00  1.2401743848474D+00 -2.2511614235762D-01
120  1.1900000000000D+00  1.1703633514751D+00 -2.2128758523831D-01
121  1.2000000000000D+00  1.0986501625348D+00 -2.1615946373675D-01
122  1.2100000000000D+00  1.0256553475397D+00 -2.0986974417862D-01
123  1.2200000000000D+00  9.5200198021595D-01 -2.0256028722689D-01
124  1.2300000000000D+00  8.7830696319025D-01 -1.9437505558875D-01
125  1.2400000000000D+00  8.0517241819792D-01 -1.8545832376632D-01
126  1.2500000000000D+00  7.3317731087312D-01 -1.7595291549982D-01
127  1.2600000000000D+00  6.6286943826457D-01 -1.6599849457034D-01
128  1.2700000000000D+00  5.9475790402851D-01 -1.5572993366820D-01
129  1.2800000000000D+00  5.2930615726756D-01 -1.4527577944033D-01
130  1.2900000000000D+00  4.6692590967632D-01 -1.3475685987015D-01
131  1.3000000000000D+00  4.0797139426719D-01 -1.2428497887580D-01
132  1.3100000000000D+00  3.5273460381292D-01 -1.1396178494908D-01
133  1.3200000000000D+00  3.0144512194304D-01 -1.0387819013394D-01
134  1.3300000000000D+00  2.5427088798180D-01 -9.4114024042160D-02
135  1.3400000000000D+00  2.1132056713907D-01 -8.4737989899650D-02
136  1.3500000000000D+00  1.7264328445469D-01 -7.5807444073374D-02
137  1.3600000000000D+00  1.3822962485094D-01 -6.7368400769648D-02
138  1.3700000000000D+00  1.0801389480291D-01 -5.9455746676122D-02
139  1.3800000000000D+00  8.1877158845441D-02 -5.2093623617522D-02
140  1.3900000000000D+00  5.9651169265673D-02 -4.5295981777616D-02
141  1.4000000000000D+00  4.1123095027869D-02 -3.9067291007343D-02
142  1.4100000000000D+00  2.6040957971314D-02 -3.3403392578884D-02
143  1.4200000000000D+00  1.4119676746200D-02 -2.8292473373722D-02
144  1.4300000000000D+00  5.0476195003457D-03 -2.3716144518790D-02
145  1.4400000000000D+00 -1.5064692803467D-03 -1.9650599308261D-02
146  1.4500000000000D+00 -5.8862760409572D-03 -1.6067830548472D-02
147  1.4600000000000D+00 -8.4406012754488D-03 -1.2936880727684D-02
148  1.4700000000000D+00 -9.5160376924189D-03 -1.0225102763648D-02
149  1.4800000000000D+00 -9.4497878143984D-03 -7.8994042882842D-03
150  1.4900000000000D+00 -8.5627278159474D-03 -5.9274552672908D-03
151  1.5000000000000D+00 -7.1528693440230D-03 -4.2788305290194D-03
152  1.5100000000000D+00 -5.4907686509670D-03 -2.9266273925929D-03
153  1.5200000000000D+00 -3.8080705551872D-03 -1.8461345807860D-03
154  1.5300000000000D+00 -2.2881409057091D-03 -1.0149176889958D-03
155  1.5400000000000D+00 -1.1190803938201D-03 -4.3047686193552D-04
156  1.5500000000000D+00 -4.3595586930161D-04 -9.1263319135335D-05
157  1.5600000000000D+00 -1.3754835508395D-04  4.3250994308573D-05
158  1.5700000000000D+00 -2.4897203879181D-05  3.9359173810355D-05
159  1.5800000000000D+00  7.4429060154940D-07 -2.9437071166720D-06
160  1.5900000000000D+00  3.6497785816087D-07 -9.8554526730545D-06
161  1.6000000000000D+00 -4.3344879954996D-07  9.2778713933144D-07
162  1.6100000000000D+00 -7.0728491368988D-07  1.8995912367613D-06
163  1.6200000000000D+00  2.0728247337869D-07 -6.6556651514307D-08
164  1.6300000000000D+00  3.1671195333029D-07 -1.0169353329603D-07
165  1.6400000000000D+00  0.0000000000000D+00  0.0000000000000D+00
166  1.6500000000000D+00  0.0000000000000D+00  0.0000000000000D+00
167  1.6600000000000D+00  0.0000000000000D+00  0.0000000000000D+00
168  1.6700000000000D+00  0.0000000000000D+00  0.0000000000000D+00
169  1.6800000000000D+00  0.0000000000000D+00  0.0000000000000D+00
170  1.6900000000000D+00  0.0000000000000D+00  0.0000000000000D+00
171  1.7000000000000D+00  0.0000000000000D+00  0.0000000000000D+00
172  1.7100000000000D+00  0.0000000000000D+00  0.0000000000000D+00
173  1.7200000000000D+00  0.0000000000000D+00  0.0000000000000D+00
174  1.7300000000000D+00  0.0000000000000D+00  0.0000000000000D+00
175  1.7400000000000D+00  0.0000000000000D+00  0.0000000000000D+00
176  1.7500000000000D+00  0.0000000000000D+00  0.0000000000000D+00
177  1.7600000000000D+00  0.0000000000000D+00  0.0000000000000D+00
178  1.7700000000000D+00  0.0000000000000D+00  0.0000000000000D+00
179  1.7800000000000D+00  0.0000000000000D+00  0.0000000000000D+00
180  1.7900000000000D+00  0.0000000000000D+00  0.0000000000000D+00
181  1.8000000000000D+00  0.0000000000000D+00  0.0000000000000D+00
182  1.8100000000000D+00  0.0000000000000D+00  0.0000000000000D+00
183  1.8200000000000D+00  0.0000000000000D+00  0.0000000000000D+00
184  1.8300000000000D+00  0.0000000000000D+00  0.0000000000000D+00
185  1.8400000000000D+00  0.0000000000000D+00  0.0000000000000D+00
186  1.8500000000000D+00  0.0000000000000D+00  0.0000000000000D+00
187  1.8600000000000D+00  0.0000000000000D+00  0.0000000000000D+00
188  1.8700000000000D+00  0.0000000000000D+00  0.0000000000000D+00
189  1.8800000000000D+00  0.0000000000000D+00  0.0000000000000D+00
190  1.8900000000000D+00  0.0000000000000D+00  0.0000000000000D+00
191  1.9000000000000D+00  0.0000000000000D+00  0.0000000000000D+00
192  1.9100000000000D+00  0.0000000000000D+00  0.0000000000000D+00
193  1.9200000000000D+00  0.0000000000000D+00  0.0000000000000D+00
194  1.9300000000000D+00  0.0000000000000D+00  0.0000000000000D+00
195  1.9400000000000D+00  0.0000000000000D+00  0.0000000000000D+00
196  1.9500000000000D+00  0.0000000000000D+00  0.0000000000000D+00
197  1.9600000000000D+00  0.0000000000000D+00  0.0000000000000D+00
198  1.9700000000000D+00  0.0000000000000D+00  0.0000000000000D+00
199  1.9800000000000D+00  0.0000000000000D+00  0.0000000000000D+00
200  1.9900000000000D+00  0.0000000000000D+00  0.0000000000000D+00
201  2.0000000000000D+00  0.0000000000000D+00  0.0000000000000D+00
202  2.0100000000000D+00  0.0000000000000D+00  0.0000000000000D+00
203  2.0200000000000D+00  0.0000000000000D+00  0.0000000000000D+00
204  2.0300000000000D+00  0.0000000000000D+00  0.0000000000000D+00
205  2.0400000000000D+00  0.0000000000000D+00  0.0000000000000D+00
206  2.0500000000000D+00  0.0000000000000D+00  0.0000000000000D+00
207  2.0600000000000D+00  0.0000000000000D+00  0.0000000000000D+00
208  2.0700000000000D+00  0.0000000000000D+00  0.0000000000000D+00
209  2.0800000000000D+00  0.0000000000000D+00  0.0000000000000D+00
210  2.0900000000000D+00  0.0000000000000D+00  0.0000000000000D+00
211  2.1000000000000D+00  0.0000000000000D+00  0.0000000000000D+00
212  2.1100000000000D+00  0.0000000000000D+00  0.0000000000000D+00
213  2.1200000000000D+00  0.0000000000000D+00  0.0000000000000D+00
214  2.1300000000000D+00  0.0000000000000D+00  0.0000000000000D+00
215  2.1400000000000D+00  0.0000000000000D+00  0.0000000000000D+00
216  2.1500000000000D+00  0.0000000000000D+00  0.0000000000000D+00
217  2.1600000000000D+00  0.0000000000000D+00  0.0000000000000D+00
218  2.1700000000000D+00  0.0000000000000D+00  0.0000000000000D+00
219  2.1800000000000D+00  0.0000000000000D+00  0.0000000000000D+00
220  2.1900000000000D+00  0.0000000000000D+00  0.0000000000000D+00
221  2.2000000000000D+00  0.0000000000000D+00  0.0000000000000D+00
222  2.2100000000000D+00  0.0000000000000D+00  0.0000000000000D+00
223  2.2200000000000D+00  0.0000000000000D+00  0.0000000000000D+00
224  2.2300000000000D+00  0.0000000000000D+00  0.0000000000000D+00
225  2.2400000000000D+00  0.0000000000000D+00  0.0000000000000D+00
226  2.2500000000000D+00  0.0000000000000D+00  0.0000000000000D+00
227  2.2600000000000D+00  0.0000000000000D+00  0.0000000000000D+00
228  2.2700000000000D+00  0.0000000000000D+00  0.0000000000000D+00
229  2.2800000000000D+00  0.0000000000000D+00  0.0000000000000D+00
230  2.2900000000000D+00  0.0000000000000D+00  0.0000000000000D+00
231  2.3000000000000D+00  0.0000000000000D+00  0.0000000000000D+00
232  2.3100000000000D+00  0.0000000000000D+00  0.0000000000000D+00
233  2.3200000000000D+00  0.0000000000000D+00  0.0000000000000D+00
234  2.3300000000000D+00  0.0000000000000D+00  0.0000000000000D+00
235  2.3400000000000D+00  0.0000000000000D+00  0.0000000000000D+00
236  2.3500000000000D+00  0.0000000000000D+00  0.0000000000000D+00
237  2.3600000000000D+00  0.0000000000000D+00  0.0000000000000D+00
238  2.3700000000000D+00  0.0000000000000D+00  0.0000000000000D+00
239  2.3800000000000D+00  0.0000000000000D+00  0.0000000000000D+00
240  2.3900000000000D+00  0.0000000000000D+00  0.0000000000000D+00
241  2.4000000000000D+00  0.0000000000000D+00  0.0000000000000D+00
242  2.4100000000000D+00  0.0000000000000D+00  0.0000000000000D+00
243  2.4200000000000D+00  0.0000000000000D+00  0.0000000000000D+00
244  2.4300000000000D+00  0.0000000000000D+00  0.0000000000000D+00
245  2.4400000000000D+00  0.0000000000000D+00  0.0000000000000D+00
246  2.4500000000000D+00  0.0000000000000D+00  0.0000000000000D+00
247  2.4600000000000D+00  0.0000000000000D+00  0.0000000000000D+00
248  2.4700000000000D+00  0.0000000000000D+00  0.0000000000000D+00
249  2.4800000000000D+00  0.0000000000000D+00  0.0000000000000D+00
250  2.4900000000000D+00  0.0000000000000D+00  0.0000000000000D+00
251  2.5000000000000D+00  0.0000000000000D+00  0.0000000000000D+00
252  2.5100000000000D+00  0.0000000000000D+00  0.0000000000000D+00
253  2.5200000000000D+00  0.0000000000000D+00  0.0000000000000D+00
254  2.5300000000000D+00  0.0000000000000D+00  0.0000000000000D+00
255  2.5400000000000D+00  0.0000000000000D+00  0.0000000000000D+00
256  2.5500000000000D+00  0.0000000000000D+00  0.0000000000000D+00
257  2.5600000000000D+00  0.0000000000000D+00  0.0000000000000D+00
258  2.5700000000000D+00  0.0000000000000D+00  0.0000000000000D+00
259  2.5800000000000D+00  0.0000000000000D+00  0.0000000000000D+00
260  2.5900000000000D+00  0.0000000000000D+00  0.0000000000000D+00
261  2.6000000000000D+00  0.0000000000000D+00  0.0000000000000D+00
262  2.6100000000000D+00  0.0000000000000D+00  0.0000000000000D+00
263  2.6200000000000D+00  0.0000000000000D+00  0.0000000000000D+00
264  2.6300000000000D+00  0.0000000000000D+00  0.0000000000000D+00
265  2.6400000000000D+00  0.0000000000000D+00  0.0000000000000D+00
266  2.6500000000000D+00  0.0000000000000D+00  0.0000000000000D+00
267  2.6600000000000D+00  0.0000000000000D+00  0.0000000000000D+00
268  2.6700000000000D+00  0.0000000000000D+00  0.0000000000000D+00
269  2.6800000000000D+00  0.0000000000000D+00  0.0000000000000D+00
270  2.6900000000000D+00  0.0000000000000D+00  0.0000000000000D+00
271  2.7000000000000D+00  0.0000000000000D+00  0.0000000000000D+00
272  2.7100000000000D+00  0.0000000000000D+00  0.0000000000000D+00
273  2.7200000000000D+00  0.0000000000000D+00  0.0000000000000D+00
274  2.7300000000000D+00  0.0000000000000D+00  0.0000000000000D+00
275  2.7400000000000D+00  0.0000000000000D+00  0.0000000000000D+00
276  2.7500000000000D+00  0.0000000000000D+00  0.0000000000000D+00
277  2.7600000000000D+00  0.0000000000000D+00  0.0000000000000D+00
278  2.7700000000000D+00  0.0000000000000D+00  0.0000000000000D+00
279  2.7800000000000D+00  0.0000000000000D+00  0.0000000000000D+00
280  2.7900000000000D+00  0.0000000000000D+00  0.0000000000000D+00
281  2.8000000000000D+00  0.0000000000000D+00  0.0000000000000D+00
282  2.8100000000000D+00  0.0000000000000D+00  0.0000000000000D+00
283  2.8200000000000D+00  0.0000000000000D+00  0.0000000000000D+00
284  2.8300000000000D+00  0.0000000000000D+00  0.0000000000000D+00
285  2.8400000000000D+00  0.0000000000000D+00  0.0000000000000D+00
286  2.8500000000000D+00  0.0000000000000D+00  0.0000000000000D+00
287  2.8600000000000D+00  0.0000000000000D+00  0.0000000000000D+00
288  2.8700000000000D+00  0.0000000000000D+00  0.0000000000000D+00
289  2.8800000000000D+00  0.0000000000000D+00  0.0000000000000D+00
290  2.8900000000000D+00  0.0000000000000D+00  0.0000000000000D+00
291  2.9000000000000D+00  0.0000000000000D+00  0.0000000000000D+00
292  2.9100000000000D+00  0.0000000000000D+00  0.0000000000000D+00
293  2.9200000000000D+00  0.0000000000000D+00  0.0000000000000D+00
294  2.9300000000000D+00  0.0000000000000D+00  0.0000000000000D+00
295  2.9400000000000D+00  0.0000000000000D+00  0.0000000000000D+00
296  2.9500000000000D+00  0.0000000000000D+00  0.0000000000000D+00
297  2.9600000000000D+00  0.0000000000000D+00  0.0000000000000D+00
298  2.9700000000000D+00  0.0000000000000D+00  0.0000000000000D+00
299  2.9800000000000D+00  0.0000000000000D+00  0.0000000000000D+00
300  2.9900000000000D+00  0.0000000000000D+00  0.0000000000000D+00
301  3.0000000000000D+00  0.0000000000000D+00  0.0000000000000D+00
302  3.0100000000000D+00  0.0000000000000D+00  0.0000000000000D+00
303  3.0200000000000D+00  0.0000000000000D+00  0.0000000000000D+00
304  3.0300000000000D+00  0.0000000000000D+00  0.0000000000000D+00
305  3.0400000000000D+00  0.0000000000000D+00  0.0000000000000D+00
306  3.0500000000000D+00  0.0000000000000D+00  0.0000000000000D+00
307  3.0600000000000D+00  0.0000000000000D+00  0.0000000000000D+00
308  3.0700000000000D+00  0.0000000000000D+00  0.0000000000000D+00
309  3.0800000000000D+00  0.0000000000000D+00  0.0000000000000D+00
310  3.0900000000000D+00  0.0000000000000D+00  0.0000000000000D+00
311  3.1000000000000D+00  0.0000000000000D+00  0.0000000000000D+00
312  3.1100000000000D+00  0.0000000000000D+00  0.0000000000000D+00
313  3.1200000000000D+00  0.0000000000000D+00  0.0000000000000D+00
314  3.1300000000000D+00  0.0000000000000D+00  0.0000000000000D+00
315  3.1400000000000D+00  0.0000000000000D+00  0.0000000000000D+00
316  3.1500000000000D+00  0.0000000000000D+00  0.0000000000000D+00
317  3.1600000000000D+00  0.0000000000000D+00  0.0000000000000D+00
318  3.1700000000000D+00  0.0000000000000D+00  0.0000000000000D+00
319  3.1800000000000D+00  0.0000000000000D+00  0.0000000000000D+00
320  3.1900000000000D+00  0.0000000000000D+00  0.0000000000000D+00
321  3.2000000000000D+00  0.0000000000000D+00  0.0000000000000D+00
322  3.2100000000000D+00  0.0000000000000D+00  0.0000000000000D+00
323  3.2200000000000D+00  0.0000000000000D+00  0.0000000000000D+00
324  3.2300000000000D+00  0.0000000000000D+00  0.0000000000000D+00
325  3.2400000000000D+00  0.0000000000000D+00  0.0000000000000D+00
326  3.2500000000000D+00  0.0000000000000D+00  0.0000000000000D+00
327  3.2600000000000D+00  0.0000000000000D+00  0.0000000000000D+00
328  3.2700000000000D+00  0.0000000000000D+00  0.0000000000000D+00
329  3.2800000000000D+00  0.0000000000000D+00  0.0000000000000D+00
330  3.2900000000000D+00  0.0000000000000D+00  0.0000000000000D+00
331  3.3000000000000D+00  0.0000000000000D+00  0.0000000000000D+00
332  3.3100000000000D+00  0.0000000000000D+00  0.0000000000000D+00
333  3.3200000000000D+00  0.0000000000000D+00  0.0000000000000D+00
334  3.3300000000000D+00  0.0000000000000D+00  0.0000000000000D+00
335  3.3400000000000D+00  0.0000000000000D+00  0.0000000000000D+00
336  3.3500000000000D+00  0.0000000000000D+00  0.0000000000000D+00
337  3.3600000000000D+00  0.0000000000000D+00  0.0000000000000D+00
338  3.3700000000000D+00  0.0000000000000D+00  0.0000000000000D+00
339  3.3800000000000D+00  0.0000000000000D+00  0.0000000000000D+00
340  3.3900000000000D+00  0.0000000000000D+00  0.0000000000000D+00
341  3.4000000000000D+00  0.0000000000000D+00  0.0000000000000D+00
342  3.4100000000000D+00  0.0000000000000D+00  0.0000000000000D+00
343  3.4200000000000D+00  0.0000000000000D+00  0.0000000000000D+00
344  3.4300000000000D+00  0.0000000000000D+00  0.0000000000000D+00
345  3.4400000000000D+00  0.0000000000000D+00  0.0000000000000D+00
346  3.4500000000000D+00  0.0000000000000D+00  0.0000000000000D+00
347  3.4600000000000D+00  0.0000000000000D+00  0.0000000000000D+00
348  3.4700000000000D+00  0.0000000000000D+00  0.0000000000000D+00
349  3.4800000000000D+00  0.0000000000000D+00  0.0000000000000D+00
350  3.4900000000000D+00  0.0000000000000D+00  0.0000000000000D+00
351  3.5000000000000D+00  0.0000000000000D+00  0.0000000000000D+00
352  3.5100000000000D+00  0.0000000000000D+00  0.0000000000000D+00
353  3.5200000000000D+00  0.0000000000000D+00  0.0000000000000D+00
354  3.5300000000000D+00  0.0000000000000D+00  0.0000000000000D+00
355  3.5400000000000D+00  0.0000000000000D+00  0.0000000000000D+00
356  3.5500000000000D+00  0.0000000000000D+00  0.0000000000000D+00
357  3.5600000000000D+00  0.0000000000000D+00  0.0000000000000D+00
358  3.5700000000000D+00  0.0000000000000D+00  0.0000000000000D+00
359  3.5800000000000D+00  0.0000000000000D+00  0.0000000000000D+00
360  3.5900000000000D+00  0.0000000000000D+00  0.0000000000000D+00
361  3.6000000000000D+00  0.0000000000000D+00  0.0000000000000D+00
362  3.6100000000000D+00  0.0000000000000D+00  0.0000000000000D+00
363  3.6200000000000D+00  0.0000000000000D+00  0.0000000000000D+00
364  3.6300000000000D+00  0.0000000000000D+00  0.0000000000000D+00
365  3.6400000000000D+00  0.0000000000000D+00  0.0000000000000D+00
366  3.6500000000000D+00  0.0000000000000D+00  0.0000000000000D+00
367  3.6600000000000D+00  0.0000000000000D+00  0.0000000000000D+00
368  3.6700000000000D+00  0.0000000000000D+00  0.0000000000000D+00
369  3.6800000000000D+00  0.0000000000000D+00  0.0000000000000D+00
370  3.6900000000000D+00  0.0000000000000D+00  0.0000000000000D+00
371  3.7000000000000D+00  0.0000000000000D+00  0.0000000000000D+00
372  3.7100000000000D+00  0.0000000000000D+00  0.0000000000000D+00
373  3.7200000000000D+00  0.0000000000000D+00  0.0000000000000D+00
374  3.7300000000000D+00  0.0000000000000D+00  0.0000000000000D+00
375  3.7400000000000D+00  0.0000000000000D+00  0.0000000000000D+00
376  3.7500000000000D+00  0.0000000000000D+00  0.0000000000000D+00
377  3.7600000000000D+00  0.0000000000000D+00  0.0000000000000D+00
378  3.7700000000000D+00  0.0000000000000D+00  0.0000000000000D+00
379  3.7800000000000D+00  0.0000000000000D+00  0.0000000000000D+00
380  3.7900000000000D+00  0.0000000000000D+00  0.0000000000000D+00
381  3.8000000000000D+00  0.0000000000000D+00  0.0000000000000D+00
382  3.8100000000000D+00  0.0000000000000D+00  0.0000000000000D+00
383  3.8200000000000D+00  0.0000000000000D+00  0.0000000000000D+00
384  3.8300000000000D+00  0.0000000000000D+00  0.0000000000000D+00
385  3.8400000000000D+00  0.0000000000000D+00  0.0000000000000D+00
386  3.8500000000000D+00  0.0000000000000D+00  0.0000000000000D+00
387  3.8600000000000D+00  0.0000000000000D+00  0.0000000000000D+00
388  3.8700000000000D+00  0.0000000000000D+00  0.0000000000000D+00
389  3.8800000000000D+00  0.0000000000000D+00  0.0000000000000D+00
390  3.8900000000000D+00  0.0000000000000D+00  0.0000000000000D+00
391  3.9000000000000D+00  0.0000000000000D+00  0.0000000000000D+00
392  3.9100000000000D+00  0.0000000000000D+00  0.0000000000000D+00
393  3.9200000000000D+00  0.0000000000000D+00  0.0000000000000D+00
394  3.9300000000000D+00  0.0000000000000D+00  0.0000000000000D+00
395  3.9400000000000D+00  0.0000000000000D+00  0.0000000000000D+00
396  3.9500000000000D+00  0.0000000000000D+00  0.0000000000000D+00
397  3.9600000000000D+00  0.0000000000000D+00  0.0000000000000D+00
398  3.9700000000000D+00  0.0000000000000D+00  0.0000000000000D+00
399  3.9800000000000D+00  0.0000000000000D+00  0.0000000000000D+00
400  3.9900000000000D+00  0.0000000000000D+00  0.0000000000000D+00
401  4.0000000000000D+00  0.0000000000000D+00  0.0000000000000D+00
402  4.0100000000000D+00  0.0000000000000D+00  0.0000000000000D+00
403  4.0200000000000D+00  0.0000000000000D+00  0.0000000000000D+00
404  4.0300000000000D+00  0.0000000000000D+00  0.0000000000000D+00
405  4.0400000000000D+00  0.0000000000000D+00  0.0000000000000D+00
406  4.0500000000000D+00  0.0000000000000D+00  0.0000000000000D+00
407  4.0600000000000D+00  0.0000000000000D+00  0.0000000000000D+00
408  4.0700000000000D+00  0.0000000000000D+00  0.0000000000000D+00
409  4.0800000000000D+00  0.0000000000000D+00  0.0000000000000D+00
410  4.0900000000000D+00  0.0000000000000D+00  0.0000000000000D+00
411  4.1000000000000D+00  0.0000000000000D+00  0.0000000000000D+00
412  4.1100000000000D+00  0.0000000000000D+00  0.0000000000000D+00
413  4.1200000000000D+00  0.0000000000000D+00  0.0000000000000D+00
414  4.1300000000000D+00  0.0000000000000D+00  0.0000000000000D+00
415  4.1400000000000D+00  0.0000000000000D+00  0.0000000000000D+00
416  4.1500000000000D+00  0.0000000000000D+00  0.0000000000000D+00
417  4.1600000000000D+00  0.0000000000000D+00  0.0000000000000D+00
418  4.1700000000000D+00  0.0000000000000D+00  0.0000000000000D+00
419  4.1800000000000D+00  0.0000000000000D+00  0.0000000000000D+00
420  4.1900000000000D+00  0.0000000000000D+00  0.0000000000000D+00
421  4.2000000000000D+00  0.0000000000000D+00  0.0000000000000D+00
422  4.2100000000000D+00  0.0000000000000D+00  0.0000000000000D+00
423  4.2200000000000D+00  0.0000000000000D+00  0.0000000000000D+00
424  4.2300000000000D+00  0.0000000000000D+00  0.0000000000000D+00
425  4.2400000000000D+00  0.0000000000000D+00  0.0000000000000D+00
426  4.2500000000000D+00  0.0000000000000D+00  0.0000000000000D+00
427  4.2600000000000D+00  0.0000000000000D+00  0.0000000000000D+00
428  4.2700000000000D+00  0.0000000000000D+00  0.0000000000000D+00
429  4.2800000000000D+00  0.0000000000000D+00  0.0000000000000D+00
430  4.2900000000000D+00  0.0000000000000D+00  0.0000000000000D+00
431  4.3000000000000D+00  0.0000000000000D+00  0.0000000000000D+00
432  4.3100000000000D+00  0.0000000000000D+00  0.0000000000000D+00
433  4.3200000000000D+00  0.0000000000000D+00  0.0000000000000D+00
434  4.3300000000000D+00  0.0000000000000D+00  0.0000000000000D+00
435  4.3400000000000D+00  0.0000000000000D+00  0.0000000000000D+00
436  4.3500000000000D+00  0.0000000000000D+00  0.0000000000000D+00
437  4.3600000000000D+00  0.0000000000000D+00  0.0000000000000D+00
438  4.3700000000000D+00  0.0000000000000D+00  0.0000000000000D+00
439  4.3800000000000D+00  0.0000000000000D+00  0.0000000000000D+00
440  4.3900000000000D+00  0.0000000000000D+00  0.0000000000000D+00
441  4.4000000000000D+00  0.0000000000000D+00  0.0000000000000D+00
442  4.4100000000000D+00  0.0000000000000D+00  0.0000000000000D+00
443  4.4200000000000D+00  0.0000000000000D+00  0.0000000000000D+00