He    ONCVPSP  r_core=  1.26  1.14
2.0000      2.0000      151026    zatom,zion,pspd
8      11   1     1   600     0    pspcod,pspxc,lmax,lloc,mmax,r2well
5.99000000  0.00000000  0.00000000    rchrg fchrg qchrg
2     0     0     0     0    nproj
0                 extension_switch
0                         1.0521597005305D+01 -2.0700966173307D+00
1  0.0000000000000D+00  1.3532639453473D-09 -5.9245697237031D-09
2  1.0000000000000D-02  2.0566310496791D-01  1.0002875394445D-01
3  2.0000000000000D-02  4.0952996983995D-01  1.9806592209499D-01
4  3.0000000000000D-02  6.0982139616717D-01  2.9215005351464D-01
5  4.0000000000000D-02  8.0479214319209D-01  3.8037961486578D-01
6  5.0000000000000D-02  9.9274759226667D-01  4.6094207022187D-01
7  6.0000000000000D-02  1.1720600328154D+00  5.3214190980691D-01
8  7.0000000000000D-02  1.3411844418824D+00  5.9242728370902D-01
9  8.0000000000000D-02  1.4986736279486D+00  6.4041490253925D-01
10  9.0000000000000D-02  1.6431926082568D+00  6.7491287494638D-01
11  1.0000000000000D-01  1.7735320875126D+00  6.9494116220458D-01
12  1.1000000000000D-01  1.8886209047413D+00  6.9974934317056D-01
13  1.2000000000000D-01  1.9875373145180D+00  6.8883139921591D-01
14  1.3000000000000D-01  2.0695189690313D+00  6.6193724877638D-01
15  1.4000000000000D-01  2.1339714688048D+00  6.1908078544151D-01
16  1.5000000000000D-01  2.1804753527336D+00  5.6054420255509D-01
17  1.6000000000000D-01  2.2087914027658D+00  4.8687842161154D-01
18  1.7000000000000D-01  2.2188641454622D+00  3.9889948175711D-01
19  1.8000000000000D-01  2.2108234421925D+00  2.9768079379736D-01
20  1.9000000000000D-01  2.1849840722592D+00  1.8454121449681D-01
21  2.0000000000000D-01  2.1418432291227D+00  6.1028955683575D-02
22  2.1000000000000D-01  2.0820758694408D+00 -7.1098592431529D-02
23  2.2000000000000D-01  2.0065278780352D+00 -2.0989897369098D-01
24  2.3000000000000D-01  1.9162070392729D+00 -3.5327248856569D-01
25  2.4000000000000D-01  1.8122718366550D+00 -4.9899342181542D-01
26  2.5000000000000D-01  1.6960181374531D+00 -6.4474428839086D-01
27  2.6000000000000D-01  1.5688638576028D+00 -7.8815262847454D-01
28  2.7000000000000D-01  1.4323317431597D+00 -9.2682980210909D-01
29  2.8000000000000D-01  1.2880304475901D+00 -1.0584111578455D+00
30  2.9000000000000D-01  1.1376341279222D+00 -1.1805968811776D+00
31  3.0000000000000D-01  9.8286082604028D-01 -1.2911927703236D+00
32  3.1000000000000D-01  8.2544994265534D-01 -1.3881501423627D+00
33  3.2000000000000D-01  6.6713914909527D-01 -1.4696040449392D+00
34  3.3000000000000D-01  5.0964111429499D-01 -1.5339089405698D+00
35  3.4000000000000D-01  3.5462044948828D-01 -1.5796710444495D+00
36  3.5000000000000D-01  2.0367128945415D-01 -1.6057765343245D+00
37  3.6000000000000D-01  5.8295935273130D-02 -1.6114149134511D+00
38  3.7000000000000D-01 -8.0115021781199D-02 -1.5960968948755D+00
39  3.8000000000000D-01 -2.1030069315759D-01 -1.5596662861400D+00
40  3.9000000000000D-01 -3.3114563082261D-01 -1.5023054857943D+00
41  4.0000000000000D-01 -4.4169298049039D-01 -1.4245343533418D+00
42  4.1000000000000D-01 -5.4115477488953D-01 -1.3272023780405D+00
43  4.2000000000000D-01 -6.2891915591076D-01 -1.2114742438961D+00
44  4.3000000000000D-01 -7.0455438700058D-01 -1.0788090622107D+00
45  4.4000000000000D-01 -7.6780959557707D-01 -9.3093371273279D-01
46  4.5000000000000D-01 -8.1861226679026D-01 -7.6981089331886D-01
47  4.6000000000000D-01 -8.5706259164303D-01 -5.9760261988345D-01
48  4.7000000000000D-01 -8.8342485127409D-01 -4.1663003774442D-01
49  4.8000000000000D-01 -8.9811609211423D-01 -2.2933049769763D-01
50  4.9000000000000D-01 -9.0169241095902D-01 -3.8212911917103D-02
51  5.0000000000000D-01 -8.9483322242951D-01  1.5418756588489D-01
52  5.1000000000000D-01 -8.7832392207250D-01  3.4535449516600D-01
53  5.2000000000000D-01 -8.5303738526015D-01  5.3283373276030D-01
54  5.3000000000000D-01 -8.1991475459132D-01  7.1427470625334D-01
55  5.4000000000000D-01 -7.7994596681605D-01  8.8746852718735D-01
56  5.5000000000000D-01 -7.3415045507202D-01  1.0503822074397D+00
57  5.6000000000000D-01 -6.8355843486185D-01  1.2011883708075D+00
58  5.7000000000000D-01 -6.2919314422587D-01  1.3382899918493D+00
59  5.8000000000000D-01 -5.7205436227019D-01  1.4603398388942D+00
60  5.9000000000000D-01 -5.1310347754282D-01  1.5662544434953D+00
61  6.0000000000000D-01 -4.5325032130494D-01  1.6552225587460D+00
62  6.1000000000000D-01 -3.9334192235383D-01  1.7267082006486D+00
63  6.2000000000000D-01 -3.3415328236900D-01  1.7804484854938D+00
64  6.3000000000000D-01 -2.7638021479974D-01  1.8164465810661D+00
65  6.4000000000000D-01 -2.2063423859678D-01  1.8349601769755D+00
66  6.5000000000000D-01 -1.6743947093813D-01  1.8364859502803D+00
67  6.6000000000000D-01 -1.1723142195339D-01  1.8217405556294D+00
68  6.7000000000000D-01 -7.0357559783407D-02  1.7916387052628D+00
69  6.8000000000000D-01 -2.7079486130901D-02  1.7472689244980D+00
70  6.9000000000000D-01  1.2423458917552D-02  1.6898675738394D+00
71  7.0000000000000D-01  4.8049358965916D-02  1.6207917213143D+00
72  7.1000000000000D-01  7.9767855336555D-02  1.5414914299796D+00
73  7.2000000000000D-01  1.0761346145169D-01  1.4534819970164D+00
74  7.3000000000000D-01  1.3167826430761D-01  1.3583166446951D+00
75  7.4000000000000D-01  1.5210421383170D-01  1.2575601210306D+00
76  7.5000000000000D-01  1.6907519126484D-01  1.1527636206789D+00
77  7.6000000000000D-01  1.8280903507523D-01  1.0454413860595D+00
78  7.7000000000000D-01  1.9354968783418D-01  9.3704929574017D-01
79  7.8000000000000D-01  2.0155961054724D-01  8.2896569287142D-01
80  7.9000000000000D-01  2.0711259273985D-01  7.2247465201157D-01
81  8.0000000000000D-01  2.1048706751334D-01  6.1875182846027D-01
82  8.1000000000000D-01  2.1196002130332D-01  5.1885298111569D-01
83  8.2000000000000D-01  2.1180156854208D-01  4.2370520840447D-01
84  8.3000000000000D-01  2.1027024218625D-01  3.3410088756686D-01
85  8.4000000000000D-01  2.0760903241304D-01  2.5069426101794D-01
86  8.5000000000000D-01  2.0404218797190D-01  1.7400057013566D-01
87  8.6000000000000D-01  1.9977277793270D-01  1.0439759710774D-01
88  8.7000000000000D-01  1.9498099609601D-01  4.2129439844158D-02
89  8.8000000000000D-01  1.8982317630060D-01 -1.2687686159154D-02
90  8.9000000000000D-01  1.8443147442719D-01 -6.0057851359053D-02
91  9.0000000000000D-01  1.7891416217799D-01 -1.0009627449322D-01
92  9.1000000000000D-01  1.7335646880587D-01 -1.3301891264747D-01
93  9.2000000000000D-01  1.6782189994214D-01 -1.5913105792177D-01
94  9.3000000000000D-01  1.6235395756645D-01 -1.7881522371831D-01
95  9.4000000000000D-01  1.5697818198079D-01 -1.9251860210484D-01
96  9.5000000000000D-01  1.5170443536649D-01 -2.0074036652659D-01
97  9.6000000000000D-01  1.4652934703960D-01 -2.0401908166364D-01
98  9.7000000000000D-01  1.4143884290235D-01 -2.0292046428723D-01
99  9.8000000000000D-01  1.3641068531262D-01 -1.9802571775823D-01
100  9.9000000000000D-01  1.3141695516363D-01 -1.8992063578045D-01
101  1.0000000000000D+00  1.2642641449359D-01 -1.7918564232694D-01
102  1.0100000000000D+00  1.2140669568562D-01 -1.6638690265099D-01
103  1.0200000000000D+00  1.1632627186122D-01 -1.5206860678800D-01
104  1.0300000000000D+00  1.1115617223916D-01 -1.3674649249534D-01
105  1.0400000000000D+00  1.0587141590347D-01 -1.2090263967962D-01
106  1.0500000000000D+00  1.0045214646968D-01 -1.0498153665946D-01
107  1.0600000000000D+00  9.4884460524175D-02 -8.9387383716548D-02
108  1.0700000000000D+00  8.9160931181227D-02 -7.4482572137567D-02
109  1.0800000000000D+00  8.3280836938585D-02 -6.0587249542435D-02
110  1.0900000000000D+00  7.7250113992935D-02 -4.7979859267024D-02
111  1.1000000000000D+00  7.1080673523204D-02 -3.6901208513682D-02
112  1.1100000000000D+00  6.4792271605548D-02 -2.7539738330332D-02
113  1.1200000000000D+00  5.8407690984296D-02 -2.0063036926760D-02
114  1.1300000000000D+00  5.1938832110195D-02 -1.4714578496571D-02
115  1.1400000000000D+00  4.5487721006307D-02 -1.1088213538571D-02
116  1.1500000000000D+00  3.9205456216558D-02 -8.4508521976385D-03
117  1.1600000000000D+00  3.3216835709826D-02 -6.2883634654216D-03
118  1.1700000000000D+00  2.7580692628300D-02 -4.5445722549099D-03
119  1.1800000000000D+00  2.2347191696323D-02 -3.2025255326983D-03
120  1.1900000000000D+00  1.7570168357220D-02 -2.1893909673794D-03
121  1.2000000000000D+00  1.3296805972344D-02 -1.4475760491470D-03
122  1.2100000000000D+00  9.5691835286903D-03 -9.1878887482423D-04
123  1.2200000000000D+00  6.4229517344321D-03 -5.4980123175665D-04
124  1.2300000000000D+00  3.8878804836765D-03 -2.9550392904595D-04
125  1.2400000000000D+00  1.9718007309249D-03 -1.2157684191558D-04
126  1.2500000000000D+00  7.1592959784088D-04 -6.5335044655332D-06
127  1.2600000000000D+00  1.2895149192114D-04  5.7322995253231D-05
128  1.2700000000000D+00 -2.0524647491279D-05  4.7000460995573D-05
129  1.2800000000000D+00  1.5789009320140D-07 -1.7005543472382D-07
130  1.2900000000000D+00  7.2974873456657D-06 -6.2425342247923D-06
131  1.3000000000000D+00 -1.2920925188561D-06  1.5171228446566D-06
132  1.3100000000000D+00 -2.4272424460657D-07  2.5966746222483D-07
133  1.3200000000000D+00 -5.8210008493831D-08 -1.6987514819578D-07
134  1.3300000000000D+00  0.0000000000000D+00  0.0000000000000D+00
135  1.3400000000000D+00  0.0000000000000D+00  0.0000000000000D+00
136  1.3500000000000D+00  0.0000000000000D+00  0.0000000000000D+00
137  1.3600000000000D+00  0.0000000000000D+00  0.0000000000000D+00
138  1.3700000000000D+00  0.0000000000000D+00  0.0000000000000D+00
139  1.3800000000000D+00  0.0000000000000D+00  0.0000000000000D+00
140  1.3900000000000D+00  0.0000000000000D+00  0.0000000000000D+00
141  1.4000000000000D+00  0.0000000000000D+00  0.0000000000000D+00
142  1.4100000000000D+00  0.0000000000000D+00  0.0000000000000D+00
143  1.4200000000000D+00  0.0000000000000D+00  0.0000000000000D+00
144  1.4300000000000D+00  0.0000000000000D+00  0.0000000000000D+00
145  1.4400000000000D+00  0.0000000000000D+00  0.0000000000000D+00
146  1.4500000000000D+00  0.0000000000000D+00  0.0000000000000D+00
147  1.4600000000000D+00  0.0000000000000D+00  0.0000000000000D+00
148  1.4700000000000D+00  0.0000000000000D+00  0.0000000000000D+00
149  1.4800000000000D+00  0.0000000000000D+00  0.0000000000000D+00
150  1.4900000000000D+00  0.0000000000000D+00  0.0000000000000D+00
151  1.5000000000000D+00  0.0000000000000D+00  0.0000000000000D+00
152  1.5100000000000D+00  0.0000000000000D+00  0.0000000000000D+00
153  1.5200000000000D+00  0.0000000000000D+00  0.0000000000000D+00
154  1.5300000000000D+00  0.0000000000000D+00  0.0000000000000D+00
155  1.5400000000000D+00  0.0000000000000D+00  0.0000000000000D+00
156  1.5500000000000D+00  0.0000000000000D+00  0.0000000000000D+00
157  1.5600000000000D+00  0.0000000000000D+00  0.0000000000000D+00
158  1.5700000000000D+00  0.0000000000000D+00  0.0000000000000D+00
159  1.5800000000000D+00  0.0000000000000D+00  0.0000000000000D+00
160  1.5900000000000D+00  0.0000000000000D+00  0.0000000000000D+00
161  1.6000000000000D+00  0.0000000000000D+00  0.0000000000000D+00
162  1.6100000000000D+00  0.0000000000000D+00  0.0000000000000D+00
163  1.6200000000000D+00  0.0000000000000D+00  0.0000000000000D+00
164  1.6300000000000D+00  0.0000000000000D+00  0.0000000000000D+00
165  1.6400000000000D+00  0.0000000000000D+00  0.0000000000000D+00
166  1.6500000000000D+00  0.0000000000000D+00  0.0000000000000D+00
167  1.6600000000000D+00  0.0000000000000D+00  0.0000000000000D+00
168  1.6700000000000D+00  0.0000000000000D+00  0.0000000000000D+00
169  1.6800000000000D+00  0.0000000000000D+00  0.0000000000000D+00
170  1.6900000000000D+00  0.0000000000000D+00  0.0000000000000D+00
171  1.7000000000000D+00  0.0000000000000D+00  0.0000000000000D+00
172  1.7100000000000D+00  0.0000000000000D+00  0.0000000000000D+00
173  1.7200000000000D+00  0.0000000000000D+00  0.0000000000000D+00
174  1.7300000000000D+00  0.0000000000000D+00  0.0000000000000D+00
175  1.7400000000000D+00  0.0000000000000D+00  0.0000000000000D+00
176  1.7500000000000D+00  0.0000000000000D+00  0.0000000000000D+00
177  1.7600000000000D+00  0.0000000000000D+00  0.0000000000000D+00
178  1.7700000000000D+00  0.0000000000000D+00  0.0000000000000D+00
179  1.7800000000000D+00  0.0000000000000D+00  0.0000000000000D+00
180  1.7900000000000D+00  0.0000000000000D+00  0.0000000000000D+00
181  1.8000000000000D+00  0.0000000000000D+00  0.0000000000000D+00
182  1.8100000000000D+00  0.0000000000000D+00  0.0000000000000D+00
183  1.8200000000000D+00  0.0000000000000D+00  0.0000000000000D+00
184  1.8300000000000D+00  0.0000000000000D+00  0.0000000000000D+00
185  1.8400000000000D+00  0.0000000000000D+00  0.0000000000000D+00
186  1.8500000000000D+00  0.0000000000000D+00  0.0000000000000D+00
187  1.8600000000000D+00  0.0000000000000D+00  0.0000000000000D+00
188  1.8700000000000D+00  0.0000000000000D+00  0.0000000000000D+00
189  1.8800000000000D+00  0.0000000000000D+00  0.0000000000000D+00
190  1.8900000000000D+00  0.0000000000000D+00  0.0000000000000D+00
191  1.9000000000000D+00  0.0000000000000D+00  0.0000000000000D+00
192  1.9100000000000D+00  0.0000000000000D+00  0.0000000000000D+00
193  1.9200000000000D+00  0.0000000000000D+00  0.0000000000000D+00
194  1.9300000000000D+00  0.0000000000000D+00  0.0000000000000D+00
195  1.9400000000000D+00  0.0000000000000D+00  0.0000000000000D+00
196  1.9500000000000D+00  0.0000000000000D+00  0.0000000000000D+00
197  1.9600000000000D+00  0.0000000000000D+00  0.0000000000000D+00
198  1.9700000000000D+00  0.0000000000000D+00  0.0000000000000D+00
199  1.9800000000000D+00  0.0000000000000D+00  0.0000000000000D+00
200  1.9900000000000D+00  0.0000000000000D+00  0.0000000000000D+00
201  2.0000000000000D+00  0.0000000000000D+00  0.0000000000000D+00
202  2.0100000000000D+00  0.0000000000000D+00  0.0000000000000D+00
203  2.0200000000000D+00  0.0000000000000D+00  0.0000000000000D+00
204  2.0300000000000D+00  0.0000000000000D+00  0.0000000000000D+00
205  2.0400000000000D+00  0.0000000000000D+00  0.0000000000000D+00
206  2.0500000000000D+00  0.0000000000000D+00  0.0000000000000D+00
207  2.0600000000000D+00  0.0000000000000D+00  0.0000000000000D+00
208  2.0700000000000D+00  0.0000000000000D+00  0.0000000000000D+00
209  2.0800000000000D+00  0.0000000000000D+00  0.0000000000000D+00
210  2.0900000000000D+00  0.0000000000000D+00  0.0000000000000D+00
211  2.1000000000000D+00  0.0000000000000D+00  0.0000000000000D+00
212  2.1100000000000D+00  0.0000000000000D+00  0.0000000000000D+00
213  2.1200000000000D+00  0.0000000000000D+00  0.0000000000000D+00
214  2.1300000000000D+00  0.0000000000000D+00  0.0000000000000D+00
215  2.1400000000000D+00  0.0000000000000D+00  0.0000000000000D+00
216  2.1500000000000D+00  0.0000000000000D+00  0.0000000000000D+00
217  2.1600000000000D+00  0.0000000000000D+00  0.0000000000000D+00
218  2.1700000000000D+00  0.0000000000000D+00  0.0000000000000D+00
219  2.1800000000000D+00  0.0000000000000D+00  0.0000000000000D+00
220  2.1900000000000D+00  0.0000000000000D+00  0.0000000000000D+00
221  2.2000000000000D+00  0.0000000000000D+00  0.0000000000000D+00
222  2.2100000000000D+00  0.0000000000000D+00  0.0000000000000D+00
223  2.2200000000000D+00  0.0000000000000D+00  0.0000000000000D+00
224  2.2300000000000D+00  0.0000000000000D+00  0.0000000000000D+00
225  2.2400000000000D+00  0.0000000000000D+00  0.0000000000000D+00
226  2.2500000000000D+00  0.0000000000000D+00  0.0000000000000D+00
227  2.2600000000000D+00  0.0000000000000D+00  0.0000000000000D+00
228  2.2700000000000D+00  0.0000000000000D+00  0.0000000000000D+00
229  2.2800000000000D+00  0.0000000000000D+00  0.0000000000000D+00
230  2.2900000000000D+00  0.0000000000000D+00  0.0000000000000D+00
231  2.3000000000000D+00  0.0000000000000D+00  0.0000000000000D+00
232  2.3100000000000D+00  0.0000000000000D+00  0.0000000000000D+00
233  2.3200000000000D+00  0.0000000000000D+00  0.0000000000000D+00
234  2.3300000000000D+00  0.0000000000000D+00  0.0000000000000D+00
235  2.3400000000000D+00  0.0000000000000D+00  0.0000000000000D+00
236  2.3500000000000D+00  0.0000000000000D+00  0.0000000000000D+00
237  2.3600000000000D+00  0.0000000000000D+00  0.0000000000000D+00
238  2.3700000000000D+00  0.0000000000000D+00  0.0000000000000D+00
239  2.3800000000000D+00  0.0000000000000D+00  0.0000000000000D+00
240  2.3900000000000D+00  0.0000000000000D+00  0.0000000000000D+00
241  2.4000000000000D+00  0.0000000000000D+00  0.0000000000000D+00
242  2.4100000000000D+00  0.0000000000000D+00  0.0000000000000D+00
243  2.4200000000000D+00  0.0000000000000D+00  0.0000000000000D+00
244  2.4300000000000D+00  0.0000000000000D+00  0.0000000000000D+00
245  2.4400000000000D+00  0.0000000000000D+00  0.0000000000000D+00
246  2.4500000000000D+00  0.0000000000000D+00  0.0000000000000D+00
247  2.4600000000000D+00  0.0000000000000D+00  0.0000000000000D+00
248  2.4700000000000D+00  0.0000000000000D+00  0.0000000000000D+00
249  2.4800000000000D+00  0.0000000000000D+00  0.0000000000000D+00
250  2.4900000000000D+00  0.0000000000000D+00  0.0000000000000D+00
251  2.5000000000000D+00  0.0000000000000D+00  0.0000000000000D+00
252  2.5100000000000D+00  0.0000000000000D+00  0.0000000000000D+00
253  2.5200000000000D+00  0.0000000000000D+00  0.0000000000000D+00
254  2.5300000000000D+00  0.0000000000000D+00  0.0000000000000D+00
255  2.5400000000000D+00  0.0000000000000D+00  0.0000000000000D+00
256  2.5500000000000D+00  0.0000000000000D+00  0.0000000000000D+00
257  2.5600000000000D+00  0.0000000000000D+00  0.0000000000000D+00
258  2.5700000000000D+00  0.0000000000000D+00  0.0000000000000D+00
259  2.5800000000000D+00  0.0000000000000D+00  0.0000000000000D+00
260  2.5900000000000D+00  0.0000000000000D+00  0.0000000000000D+00
261  2.6000000000000D+00  0.0000000000000D+00  0.0000000000000D+00
262  2.6100000000000D+00  0.0000000000000D+00  0.0000000000000D+00
263  2.6200000000000D+00  0.0000000000000D+00  0.0000000000000D+00
264  2.6300000000000D+00  0.0000000000000D+00  0.0000000000000D+00
265  2.6400000000000D+00  0.0000000000000D+00  0.0000000000000D+00
266  2.6500000000000D+00  0.0000000000000D+00  0.0000000000000D+00
267  2.6600000000000D+00  0.0000000000000D+00  0.0000000000000D+00
268  2.6700000000000D+00  0.0000000000000D+00  0.0000000000000D+00
269  2.6800000000000D+00  0.0000000000000D+00  0.0000000000000D+00
270  2.6900000000000D+00  0.0000000000000D+00  0.0000000000000D+00
271  2.7000000000000D+00  0.0000000000000D+00  0.0000000000000D+00
272  2.7100000000000D+00  0.0000000000000D+00  0.0000000000000D+00
273  2.7200000000000D+00  0.0000000000000D+00  0.0000000000000D+00
274  2.7300000000000D+00  0.0000000000000D+00  0.0000000000000D+00
275  2.7400000000000D+00  0.0000000000000D+00  0.0000000000000D+00
276  2.7500000000000D+00  0.0000000000000D+00  0.0000000000000D+00
277  2.7600000000000D+00  0.0000000000000D+00  0.0000000000000D+00
278  2.7700000000000D+00  0.0000000000000D+00  0.0000000000000D+00
279  2.7800000000000D+00  0.0000000000000D+00  0.0000000000000D+00
280  2.7900000000000D+00  0.0000000000000D+00  0.0000000000000D+00
281  2.8000000000000D+00  0.0000000000000D+00  0.0000000000000D+00
282  2.8100000000000D+00  0.0000000000000D+00  0.0000000000000D+00
283  2.8200000000000D+00  0.0000000000000D+00  0.0000000000000D+00
284  2.8300000000000D+00  0.0000000000000D+00  0.0000000000000D+00
285  2.8400000000000D+00  0.0000000000000D+00  0.0000000000000D+00
286  2.8500000000000D+00  0.0000000000000D+00  0.0000000000000D+00
287  2.8600000000000D+00  0.0000000000000D+00  0.0000000000000D+00
288  2.8700000000000D+00  0.0000000000000D+00  0.0000000000000D+00
289  2.8800000000000D+00  0.0000000000000D+00  0.0000000000000D+00
290  2.8900000000000D+00  0.0000000000000D+00  0.0000000000000D+00
291  2.9000000000000D+00  0.0000000000000D+00  0.0000000000000D+00
292  2.9100000000000D+00  0.0000000000000D+00  0.0000000000000D+00
293  2.9200000000000D+00  0.0000000000000D+00  0.0000000000000D+00
294  2.9300000000000D+00  0.0000000000000D+00  0.0000000000000D+00
295  2.9400000000000D+00  0.0000000000000D+00  0.0000000000000D+00
296  2.9500000000000D+00  0.0000000000000D+00  0.0000000000000D+00
297  2.9600000000000D+00  0.0000000000000D+00  0.0000000000000D+00
298  2.9700000000000D+00  0.0000000000000D+00  0.0000000000000D+00
299  2.9800000000000D+00  0.0000000000000D+00  0.0000000000000D+00
300  2.9900000000000D+00  0.0000000000000D+00  0.0000000000000D+00
301  3.0000000000000D+00  0.0000000000000D+00  0.0000000000000D+00
302  3.0100000000000D+00  0.0000000000000D+00  0.0000000000000D+00
303  3.0200000000000D+00  0.0000000000000D+00  0.0000000000000D+00
304  3.0300000000000D+00  0.0000000000000D+00  0.0000000000000D+00
305  3.0400000000000D+00  0.0000000000000D+00  0.0000000000000D+00
306  3.0500000000000D+00  0.0000000000000D+00  0.0000000000000D+00
307  3.0600000000000D+00  0.0000000000000D+00  0.0000000000000D+00
308  3.0700000000000D+00  0.0000000000000D+00  0.0000000000000D+00
309  3.0800000000000D+00  0.0000000000000D+00  0.0000000000000D+00
310  3.0900000000000D+00  0.0000000000000D+00  0.0000000000000D+00
311  3.1000000000000D+00  0.0000000000000D+00  0.0000000000000D+00
312  3.1100000000000D+00  0.0000000000000D+00  0.0000000000000D+00
313  3.1200000000000D+00  0.0000000000000D+00  0.0000000000000D+00
314  3.1300000000000D+00  0.0000000000000D+00  0.0000000000000D+00
315  3.1400000000000D+00  0.0000000000000D+00  0.0000000000000D+00
316  3.1500000000000D+00  0.0000000000000D+00  0.0000000000000D+00
317  3.1600000000000D+00  0.0000000000000D+00  0.0000000000000D+00
318  3.1700000000000D+00  0.0000000000000D+00  0.0000000000000D+00
319  3.1800000000000D+00  0.0000000000000D+00  0.0000000000000D+00
320  3.1900000000000D+00  0.0000000000000D+00  0.0000000000000D+00
321  3.2000000000000D+00  0.0000000000000D+00  0.0000000000000D+00
322  3.2100000000000D+00  0.0000000000000D+00  0.0000000000000D+00
323  3.2200000000000D+00  0.0000000000000D+00  0.0000000000000D+00
324  3.2300000000000D+00  0.0000000000000D+00  0.0000000000000D+00
325  3.2400000000000D+00  0.0000000000000D+00  0.0000000000000D+00
326  3.2500000000000D+00  0.0000000000000D+00  0.0000000000000D+00
327  3.2600000000000D+00  0.0000000000000D+00  0.0000000000000D+00
328  3.2700000000000D+00  0.0000000000000D+00  0.0000000000000D+00
329  3.2800000000000D+00  0.0000000000000D+00  0.0000000000000D+00
330  3.2900000000000D+00  0.0000000000000D+00  0.0000000000000D+00
331  3.3000000000000D+00  0.0000000000000D+00  0.0000000000000D+00
332  3.3100000000000D+00  0.0000000000000D+00  0.0000000000000D+00
333  3.3200000000000D+00  0.0000000000000D+00  0.0000000000000D+00
334  3.3300000000000D+00  0.0000000000000D+00  0.0000000000000D+00
335  3.3400000000000D+00  0.0000000000000D+00  0.0000000000000D+00
336  3.3500000000000D+00  0.0000000000000D+00  0.0000000000000D+00
337  3.3600000000000D+00  0.0000000000000D+00  0.0000000000000D+00
338  3.3700000000000D+00  0.0000000000000D+00  0.0000000000000D+00
339  3.3800000000000D+00  0.0000000000000D+00  0.0000000000000D+00
340  3.3900000000000D+00  0.0000000000000D+00  0.0000000000000D+00
341  3.4000000000000D+00  0.0000000000000D+00  0.0000000000000D+00
342  3.4100000000000D+00  0.0000000000000D+00  0.0000000000000D+00
343  3.4200000000000D+00  0.0000000000000D+00  0.0000000000000D+00
344  3.4300000000000D+00  0.0000000000000D+00  0.0000000000000D+00
345  3.4400000000000D+00  0.0000000000000D+00  0.0000000000000D+00
346  3.4500000000000D+00  0.0000000000000D+00  0.0000000000000D+00
347  3.4600000000000D+00  0.0000000000000D+00  0.0000000000000D+00
348  3.4700000000000D+00  0.0000000000000D+00  0.0000000000000D+00
349  3.4800000000000D+00  0.0000000000000D+00  0.0000000000000D+00
350  3.4900000000000D+00  0.0000000000000D+00  0.0000000000000D+00
351  3.5000000000000D+00  0.0000000000000D+00  0.0000000000000D+00
352  3.5100000000000D+00  0.0000000000000D+00  0.0000000000000D+00
353  3.5200000000000D+00  0.0000000000000D+00  0.0000000000000D+00
354  3.5300000000000D+00  0.0000000000000D+00  0.0000000000000D+00
355  3.5400000000000D+00  0.0000000000000D+00  0.0000000000000D+00
356  3.5500000000000D+00  0.0000000000000D+00  0.0000000000000D+00
357  3.5600000000000D+00  0.0000000000000D+00  0.0000000000000D+00
358  3.5700000000000D+00  0.0000000000000D+00  0.0000000000000D+00
359  3.5800000000000D+00  0.0000000000000D+00  0.0000000000000D+00
360  3.5900000000000D+00  0.0000000000000D+00  0.0000000000000D+00
361  3.6000000000000D+00  0.0000000000000D+00  0.0000000000000D+00
362  3.6100000000000D+00  0.0000000000000D+00  0.0000000000000D+00
363  3.6200000000000D+00  0.0000000000000D+00  0.0000000000000D+00
364  3.6300000000000D+00  0.0000000000000D+00  0.0000000000000D+00
365  3.6400000000000D+00  0.0000000000000D+00  0.0000000000000D+00
366  3.6500000000000D+00  0.0000000000000D+00  0.0000000000000D+00
367  3.6600000000000D+00  0.0000000000000D+00  0.0000000000000D+00
368  3.6700000000000D+00  0.0000000000000D+00  0.0000000000000D+00
369  3.6800000000000D+00  0.0000000000000D+00  0.0000000000000D+00
370  3.6900000000000D+00  0.0000000000000D+00  0.0000000000000D+00
371  3.7000000000000D+00  0.0000000000000D+00  0.0000000000000D+00
372  3.7100000000000D+00  0.0000000000000D+00  0.0000000000000D+00
373  3.7200000000000D+00  0.0000000000000D+00  0.0000000000000D+00
374  3.7300000000000D+00  0.0000000000000D+00  0.0000000000000D+00
375  3.7400000000000D+00  0.0000000000000D+00  0.0000000000000D+00
376  3.7500000000000D+00  0.0000000000000D+00  0.0000000000000D+00
377  3.7600000000000D+00  0.0000000000000D+00  0.0000000000000D+00
378  3.7700000000000D+00  0.0000000000000D+00  0.0000000000000D+00
379  3.7800000000000D+00  0.0000000000000D+00  0.0000000000000D+00
380  3.7900000000000D+00  0.0000000000000D+00  0.0000000000000D+00
381  3.8000000000000D+00  0.0000000000000D+00  0.0000000000000D+00
382  3.8100000000000D+00  0.0000000000000D+00  0.0000000000000D+00
383  3.8200000000000D+00  0.0000000000000D+00  0.0000000000000D+00
384  3.8300000000000D+00  0.0000000000000D+00  0.0000000000000D+00
385  3.8400000000000D+00  0.0000000000000D+00  0.0000000000000D+00
386  3.8500000000000D+00  0.0000000000000D+00  0.0000000000000D+00
387  3.8600000000000D+00  0.0000000000000D+00  0.0000000000000D+00
388  3.8700000000000D+00  0.0000000000000D+00  0.0000000000000D+00
389  3.8800000000000D+00  0.0000000000000D+00  0.0000000000000D+00
390  3.8900000000000D+00  0.0000000000000D+00  0.0000000000000D+00
391  3.9000000000000D+00  0.0000000000000D+00  0.0000000000000D+00
392  3.9100000000000D+00  0.0000000000000D+00  0.0000000000000D+00
393  3.9200000000000D+00  0.0000000000000D+00  0.0000000000000D+00
394  3.9300000000000D+00  0.0000000000000D+00  0.0000000000000D+00
395  3.9400000000000D+00  0.0000000000000D+00  0.0000000000000D+00
396  3.9500000000000D+00  0.0000000000000D+00  0.0000000000000D+00
397  3.9600000000000D+00  0.0000000000000D+00  0.0000000000000D+00
398  3.9700000000000D+00  0.0000000000000D+00  0.0000000000000D+00
399  3.9800000000000D+00  0.0000000000000D+00  0.0000000000000D+00
400  3.9900000000000D+00  0.0000000000000D+00  0.0000000000000D+00
401  4.0000000000000D+00  0.0000000000000D+00  0.0000000000000D+00
402  4.0100000000000D+00  0.0000000000000D+00  0.0000000000000D+00
403  4.0200000000000D+00  0.0000000000000D+00  0.0000000000000D+00
404  4.0300000000000D+00  0.0000000000000D+00  0.0000000000000D+00
405  4.0400000000000D+00  0.0000000000000D+00  0.0000000000000D+00
406  4.0500000000000D+00  0.0000000000000D+00  0.0000000000000D+00
407  4.0600000000000D+00  0.0000000000000D+00  0.0000000000000D+00
408  4.0700000000000D+00  0.0000000000000D+00  0.0000000000000D+00
409  4.0800000000000D+00  0.0000000000000D+00  0.0000000000000D+00
410  4.0900000000000D+00  0.0000000000000D+00  0.0000000000000D+00
411  4.1000000000000D+00  0.0000000000000D+00  0.0000000000000D+00
412  4.1100000000000D+00  0.0000000000000D+00  0.0000000000000D+00
413  4.1200000000000D+00  0.0000000000000D+00  0.0000000000000D+00
414  4.1300000000000D+00  0.0000000000000D+00  0.0000000000000D+00
415  4.1400000000000D+00  0.0000000000000D+00  0.0000000000000D+00
416  4.1500000000000D+00  0.0000000000000D+00  0.0000000000000D+00
417  4.1600000000000D+00  0.0000000000000D+00  0.0000000000000D+00
418  4.1700000000000D+00  0.0000000000000D+00  0.0000000000000D+00
419  4.1800000000000D+00  0.0000000000000D+00  0.0000000000000D+00
420  4.1900000000000D+00  0.0000000000000D+00  0.0000000000000D+00
421  4.2000000000000D+00  0.0000000000000D+00  0.0000000000000D+00
422  4.2100000000000D+00  0.0000000000000D+00  0.0000000000000D+00
423  4.2200000000000D+00  0.0000000000000D+00  0.0000000000000D+00
424  4.2300000000000D+00  0.0000000000000D+00  0.0000000000000D+00
425  4.2400000000000D+00  0.0000000000000D+00  0.0000000000000D+00
426  4.2500000000000D+00  0.0000000000000D+00  0.0000000000000D+00
427  4.2600000000000D+00  0.0000000000000D+00  0.0000000000000D+00
428  4.2700000000000D+00  0.0000000000000D+00  0.0000000000000D+00
429  4.2800000000000D+00  0.0000000000000D+00  0.0000000000000D+00
430  4.2900000000000D+00  0.0000000000000D+00  0.0000000000000D+00
431  4.3000000000000D+00  0.0000000000000D+00  0.0000000000000D+00
432  4.3100000000000D+00  0.0000000000000D+00  0.0000000000000D+00
433  4.3200000000000D+00  0.0000000000000D+00  0.0000000000000D+00
434  4.3300000000000D+00  0.0000000000000D+00  0.0000000000000D+00
435  4.3400000000000D+00  0.0000000000000D+00  0.0000000000000D+00
436  4.3500000000000D+00  0.0000000000000D+00  0.0000000000000D+00
437  4.3600000000000D+00  0.0000000000000D+00  0.0000000000000D+00
438  4.3700000000000D+00  0.0000000000000D+00  0.0000000000000D+00
439  4.3800000000000D+00  0.0000000000000D+00  0.0000000000000D+00
440  4.3900000000000D+00  0.0000000000000D+00  0.0000000000000D+00
441  4.4000000000000D+00  0.0000000000000D+00  0.0000000000000D+00
442  4.4100000000000D+00  0.0000000000000D+00  0.0000000000000D+00
443  4.4200000000000D+00  0.0000000000000D+00  0.0000000000000D+00
444  4.4300000000000D+00  0.0000000000000D+00  0.0000000000000D+00