He    ONCVPSP  r_core=  1.26  1.14
2.0000      2.0000      161003    zatom,zion,pspd
8      11   1     4   600     0    pspcod,pspxc,lmax,lloc,mmax,r2well
5.99000000  0.00000000  0.00000000    rchrg fchrg qchrg
2     1     0     0     0    nproj
1                 extension_switch
0                        -4.0443832311099D+00 -1.2336486922745D+00
1  0.0000000000000D+00  4.5397817727277D-09 -7.5619726036535D-09
2  1.0000000000000D-02  1.1159672059848D-01 -2.0536819789411D-02
3  2.0000000000000D-02  2.2286834380719D-01 -4.0974850485414D-02
4  3.0000000000000D-02  3.3348881938566D-01 -6.1212150623530D-02
5  4.0000000000000D-02  4.4313024477911D-01 -8.1140568370717D-02
6  5.0000000000000D-02  5.5146207123644D-01 -1.0064287029031D-01
7  6.0000000000000D-02  6.5815046534348D-01 -1.1959014532704D-01
8  7.0000000000000D-02  7.6285787232001D-01 -1.3783956666738D-01
9  8.0000000000000D-02  8.6524282288982D-01 -1.5523258656850D-01
10  9.0000000000000D-02  9.6496002002624D-01 -1.7159363007270D-01
11  1.0000000000000D-01  1.0616607355096D+00 -1.8672934291055D-01
12  1.1000000000000D-01  1.1549935391329D+00 -2.0042843704875D-01
13  1.2000000000000D-01  1.2446053756945D+00 -2.1246216448699D-01
14  1.3000000000000D-01  1.3301429967775D+00 -2.2258543630111D-01
15  1.4000000000000D-01  1.4112547458882D+00 -2.3053858982950D-01
16  1.5000000000000D-01  1.4875926869856D+00 -2.3604979258232D-01
17  1.6000000000000D-01  1.5588150579412D+00 -2.3883805719604D-01
18  1.7000000000000D-01  1.6245890222027D+00 -2.3861682783939D-01
19  1.8000000000000D-01  1.6845936840508D+00 -2.3509808517504D-01
20  1.9000000000000D-01  1.7385233255101D+00 -2.2799690455640D-01
21  2.0000000000000D-01  1.7860908163358D+00 -2.1703639084184D-01
22  2.1000000000000D-01  1.8270311427053D+00 -2.0195290326349D-01
23  2.2000000000000D-01  1.8611049954003D+00 -1.8250147540287D-01
24  2.3000000000000D-01  1.8881023544949D+00 -1.5846132867242D-01
25  2.4000000000000D-01  1.9078460049428D+00 -1.2964137292671D-01
26  2.5000000000000D-01  1.9201949160495D+00 -9.5885585038643D-02
27  2.6000000000000D-01  1.9250474176727D+00 -5.7078155545846D-02
28  2.7000000000000D-01  1.9223441071262D+00 -1.3148294837326D-02
29  2.8000000000000D-01  1.9120704231683D+00  3.5925406196259D-02
30  2.9000000000000D-01  1.8942588271143D+00  9.0111160625165D-02
31  3.0000000000000D-01  1.8689905359586D+00  1.4932080716819D-01
32  3.1000000000000D-01  1.8363967583619D+00  2.1340735190772D-01
33  3.2000000000000D-01  1.7966593913543D+00  2.8216330183283D-01
34  3.3000000000000D-01  1.7500111435090D+00  3.5531984950349D-01
35  3.4000000000000D-01  1.6967350590208D+00  4.3254695433086D-01
36  3.5000000000000D-01  1.6371634264322D+00  5.1345435112050D-01
37  3.6000000000000D-01  1.5716760655271D+00  5.9759350088754D-01
38  3.7000000000000D-01  1.5006979959811D+00  6.8446048280428D-01
39  3.8000000000000D-01  1.4246965015512D+00  7.7349980976840D-01
40  3.9000000000000D-01  1.3441776137127D+00  8.6410913377915D-01
41  4.0000000000000D-01  1.2596820485364D+00  9.5564479137577D-01
42  4.1000000000000D-01  1.1717806400630D+00  1.0474281241140D+00
43  4.2000000000000D-01  1.0810693222989D+00  1.1387524947176D+00
44  4.3000000000000D-01  9.8816372006965D-01  1.2288909064012D+00
45  4.4000000000000D-01  8.9369341617573D-01  1.3171041211713D+00
46  4.5000000000000D-01  7.9829596846167D-01  1.4026491628832D+00
47  4.6000000000000D-01  7.0261075541723D-01  1.4847880826629D+00
48  4.7000000000000D-01  6.0727273268715D-01  1.5627968581510D+00
49  4.8000000000000D-01  5.1290618529187D-01  1.6359742940072D+00
50  4.9000000000000D-01  4.2011856140812D-01  1.7036507893270D+00
51  5.0000000000000D-01  3.2949447319782D-01  1.7651968380972D+00
52  5.1000000000000D-01  2.4158994840236D-01  1.8200311315729D+00
53  5.2000000000000D-01  1.5692701325946D-01  1.8676281364537D+00
54  5.3000000000000D-01  7.5988682800521D-02  1.9075250298948D+00
55  5.4000000000000D-01 -7.8557118012358D-04  1.9393278815957D+00
56  5.5000000000000D-01 -7.3003811146148D-02  1.9627169843305D+00
57  5.6000000000000D-01 -1.4032502848529D-01  1.9774512470862D+00
58  5.7000000000000D-01 -2.0246189542582D-01  1.9833715793234D+00
59  5.8000000000000D-01 -2.5918283750385D-01  1.9804032104247D+00
60  5.9000000000000D-01 -3.1031340022121D-01  1.9685569049839D+00
61  6.0000000000000D-01 -3.5573689427727D-01  1.9479290518316D+00
62  6.1000000000000D-01 -3.9539431480066D-01  1.9187006224087D+00
63  6.2000000000000D-01 -4.2928354104877D-01  1.8811350118138D+00
64  6.3000000000000D-01 -4.5745783405429D-01  1.8355747935101D+00
65  6.4000000000000D-01 -4.8002366029802D-01  1.7824374356588D+00
66  6.5000000000000D-01 -4.9713787967783D-01  1.7222100433655D+00
67  6.6000000000000D-01 -5.0900434554006D-01  1.6554432063090D+00
68  6.7000000000000D-01 -5.1586997318931D-01  1.5827440450274D+00
69  6.8000000000000D-01 -5.1802034101968D-01  1.5047685614407D+00
70  6.9000000000000D-01 -5.1577489500853D-01  1.4222134096569D+00
71  7.0000000000000D-01 -5.0948183271311D-01  1.3358072116233D+00
72  7.1000000000000D-01 -4.9951274701090D-01  1.2463015485965D+00
73  7.2000000000000D-01 -4.8625711259020D-01  1.1544617636349D+00
74  7.3000000000000D-01 -4.7011669953955D-01  1.0610577122473D+00
75  7.4000000000000D-01 -4.5149999833452D-01  9.6685459799019D-01
76  7.5000000000000D-01 -4.3081673906183D-01  8.7260402718403D-01
77  7.6000000000000D-01 -4.0847258490777D-01  7.7903541209593D-01
78  7.7000000000000D-01 -3.8486407581820D-01  6.8684784499493D-01
79  7.8000000000000D-01 -3.6037389288544D-01  5.9670255654455D-01
80  7.9000000000000D-01 -3.3536650756960D-01  5.0921606128419D-01
81  8.0000000000000D-01 -3.1018427240845D-01  4.2495408060701D-01
82  8.1000000000000D-01 -2.8514400156903D-01  3.4442631993050D-01
83  8.2000000000000D-01 -2.6053408059781D-01  2.6808216192292D-01
84  8.3000000000000D-01 -2.3661213520066D-01  1.9630732196474D-01
85  8.4000000000000D-01 -2.1360327900431D-01  1.2942149577725D-01
86  8.5000000000000D-01 -1.9169895019848D-01  6.7677012633778D-02
87  8.6000000000000D-01 -1.7105633691357D-01  1.1258491079107D-02
88  8.7000000000000D-01 -1.5179838133425D-01 -3.9716522085240D-02
89  8.8000000000000D-01 -1.3401434305826D-01 -8.5195964353436D-02
90  8.9000000000000D-01 -1.1776089325118D-01 -1.2519077109001D-01
91  9.0000000000000D-01 -1.0306370287623D-01 -1.5977155315890D-01
92  9.1000000000000D-01 -8.9919480835830D-02 -1.8906451382217D-01
93  9.2000000000000D-01 -7.8298411372980D-02 -2.1324669073820D-01
94  9.3000000000000D-01 -6.8146934652222D-02 -2.3254061776415D-01
95  9.4000000000000D-01 -5.9390810156142D-02 -2.4720850826249D-01
96  9.5000000000000D-01 -5.1938399457698D-02 -2.5754606662568D-01
97  9.6000000000000D-01 -4.5684103092175D-02 -2.6387603771525D-01
98  9.7000000000000D-01 -4.0511885724405D-02 -2.6654160474808D-01
99  9.8000000000000D-01 -3.6298824995241D-02 -2.6589974375216D-01
100  9.9000000000000D-01 -3.2918620715011D-02 -2.6231464135445D-01
101  1.0000000000000D+00 -3.0244975685700D-02 -2.5615134393166D-01
102  1.0100000000000D+00 -2.8154955239460D-02 -2.4776934543055D-01
103  1.0200000000000D+00 -2.6531577807805D-02 -2.3751786773237D-01
104  1.0300000000000D+00 -2.5265088569268D-02 -2.2573405167459D-01
105  1.0400000000000D+00 -2.4253877933912D-02 -2.1274160169230D-01
106  1.0500000000000D+00 -2.3406198502639D-02 -1.9884720028815D-01
107  1.0600000000000D+00 -2.2641586673742D-02 -1.8433737415751D-01
108  1.0700000000000D+00 -2.1891890373076D-02 -1.6947604991257D-01
109  1.0800000000000D+00 -2.1101928655254D-02 -1.5450272942208D-01
110  1.0900000000000D+00 -2.0229780147650D-02 -1.3963129723990D-01
111  1.1000000000000D+00 -1.9246707314317D-02 -1.2504945215752D-01
112  1.1100000000000D+00 -1.8136735389697D-02 -1.1091873332332D-01
113  1.1200000000000D+00 -1.6895910113782D-02 -9.7375103173858D-02
114  1.1300000000000D+00 -1.5531265580594D-02 -8.4530037569452D-02
115  1.1400000000000D+00 -1.4059537571671D-02 -7.2472067169636D-02
116  1.1500000000000D+00 -1.2505666123847D-02 -6.1268698908725D-02
117  1.1600000000000D+00 -1.0901130275534D-02 -5.0968649833984D-02
118  1.1700000000000D+00 -9.2821615703091D-03 -4.1604319032568D-02
119  1.1800000000000D+00 -7.6878916371017D-03 -3.3194405120735D-02
120  1.1900000000000D+00 -6.1584783633120D-03 -2.5746600812813D-02
121  1.2000000000000D+00 -4.7332613921625D-03 -1.9260281718647D-02
122  1.2100000000000D+00 -3.4489966664441D-03 -1.3729107782595D-02
123  1.2200000000000D+00 -2.3382143610034D-03 -9.1434665689519D-03
124  1.2300000000000D+00 -1.4282829692709D-03 -5.4946778861902D-03
125  1.2400000000000D+00 -7.3419048481928D-04 -2.7564013664304D-03
126  1.2500000000000D+00 -2.7961848376229D-04 -9.6051183882243D-04
127  1.2600000000000D+00 -7.0656143506205D-05 -1.1032929566819D-04
128  1.2700000000000D+00 -8.2219256132286D-06  7.7691332685606D-05
129  1.2800000000000D+00 -3.1789861373144D-09 -3.9248086350040D-07
130  1.2900000000000D+00 -7.0789742647398D-07 -1.6407322084741D-05
131  1.3000000000000D+00 -1.7508677790464D-08  3.3462968012440D-06
132  1.3100000000000D+00  5.4970421065751D-09  6.0147626608490D-07
133  1.3200000000000D+00  8.1844117984306D-08 -1.0447445178655D-07
134  1.3300000000000D+00  0.0000000000000D+00  0.0000000000000D+00
135  1.3400000000000D+00  0.0000000000000D+00  0.0000000000000D+00
136  1.3500000000000D+00  0.0000000000000D+00  0.0000000000000D+00
137  1.3600000000000D+00  0.0000000000000D+00  0.0000000000000D+00
138  1.3700000000000D+00  0.0000000000000D+00  0.0000000000000D+00
139  1.3800000000000D+00  0.0000000000000D+00  0.0000000000000D+00
140  1.3900000000000D+00  0.0000000000000D+00  0.0000000000000D+00
141  1.4000000000000D+00  0.0000000000000D+00  0.0000000000000D+00
142  1.4100000000000D+00  0.0000000000000D+00  0.0000000000000D+00
143  1.4200000000000D+00  0.0000000000000D+00  0.0000000000000D+00
144  1.4300000000000D+00  0.0000000000000D+00  0.0000000000000D+00
145  1.4400000000000D+00  0.0000000000000D+00  0.0000000000000D+00
146  1.4500000000000D+00  0.0000000000000D+00  0.0000000000000D+00
147  1.4600000000000D+00  0.0000000000000D+00  0.0000000000000D+00
148  1.4700000000000D+00  0.0000000000000D+00  0.0000000000000D+00
149  1.4800000000000D+00  0.0000000000000D+00  0.0000000000000D+00
150  1.4900000000000D+00  0.0000000000000D+00  0.0000000000000D+00
151  1.5000000000000D+00  0.0000000000000D+00  0.0000000000000D+00
152  1.5100000000000D+00  0.0000000000000D+00  0.0000000000000D+00
153  1.5200000000000D+00  0.0000000000000D+00  0.0000000000000D+00
154  1.5300000000000D+00  0.0000000000000D+00  0.0000000000000D+00
155  1.5400000000000D+00  0.0000000000000D+00  0.0000000000000D+00
156  1.5500000000000D+00  0.0000000000000D+00  0.0000000000000D+00
157  1.5600000000000D+00  0.0000000000000D+00  0.0000000000000D+00
158  1.5700000000000D+00  0.0000000000000D+00  0.0000000000000D+00
159  1.5800000000000D+00  0.0000000000000D+00  0.0000000000000D+00
160  1.5900000000000D+00  0.0000000000000D+00  0.0000000000000D+00
161  1.6000000000000D+00  0.0000000000000D+00  0.0000000000000D+00
162  1.6100000000000D+00  0.0000000000000D+00  0.0000000000000D+00
163  1.6200000000000D+00  0.0000000000000D+00  0.0000000000000D+00
164  1.6300000000000D+00  0.0000000000000D+00  0.0000000000000D+00
165  1.6400000000000D+00  0.0000000000000D+00  0.0000000000000D+00
166  1.6500000000000D+00  0.0000000000000D+00  0.0000000000000D+00
167  1.6600000000000D+00  0.0000000000000D+00  0.0000000000000D+00
168  1.6700000000000D+00  0.0000000000000D+00  0.0000000000000D+00
169  1.6800000000000D+00  0.0000000000000D+00  0.0000000000000D+00
170  1.6900000000000D+00  0.0000000000000D+00  0.0000000000000D+00
171  1.7000000000000D+00  0.0000000000000D+00  0.0000000000000D+00
172  1.7100000000000D+00  0.0000000000000D+00  0.0000000000000D+00
173  1.7200000000000D+00  0.0000000000000D+00  0.0000000000000D+00
174  1.7300000000000D+00  0.0000000000000D+00  0.0000000000000D+00
175  1.7400000000000D+00  0.0000000000000D+00  0.0000000000000D+00
176  1.7500000000000D+00  0.0000000000000D+00  0.0000000000000D+00
177  1.7600000000000D+00  0.0000000000000D+00  0.0000000000000D+00
178  1.7700000000000D+00  0.0000000000000D+00  0.0000000000000D+00
179  1.7800000000000D+00  0.0000000000000D+00  0.0000000000000D+00
180  1.7900000000000D+00  0.0000000000000D+00  0.0000000000000D+00
181  1.8000000000000D+00  0.0000000000000D+00  0.0000000000000D+00
182  1.8100000000000D+00  0.0000000000000D+00  0.0000000000000D+00
183  1.8200000000000D+00  0.0000000000000D+00  0.0000000000000D+00
184  1.8300000000000D+00  0.0000000000000D+00  0.0000000000000D+00
185  1.8400000000000D+00  0.0000000000000D+00  0.0000000000000D+00
186  1.8500000000000D+00  0.0000000000000D+00  0.0000000000000D+00
187  1.8600000000000D+00  0.0000000000000D+00  0.0000000000000D+00
188  1.8700000000000D+00  0.0000000000000D+00  0.0000000000000D+00
189  1.8800000000000D+00  0.0000000000000D+00  0.0000000000000D+00
190  1.8900000000000D+00  0.0000000000000D+00  0.0000000000000D+00
191  1.9000000000000D+00  0.0000000000000D+00  0.0000000000000D+00
192  1.9100000000000D+00  0.0000000000000D+00  0.0000000000000D+00
193  1.9200000000000D+00  0.0000000000000D+00  0.0000000000000D+00
194  1.9300000000000D+00  0.0000000000000D+00  0.0000000000000D+00
195  1.9400000000000D+00  0.0000000000000D+00  0.0000000000000D+00
196  1.9500000000000D+00  0.0000000000000D+00  0.0000000000000D+00
197  1.9600000000000D+00  0.0000000000000D+00  0.0000000000000D+00
198  1.9700000000000D+00  0.0000000000000D+00  0.0000000000000D+00
199  1.9800000000000D+00  0.0000000000000D+00  0.0000000000000D+00
200  1.9900000000000D+00  0.0000000000000D+00  0.0000000000000D+00
201  2.0000000000000D+00  0.0000000000000D+00  0.0000000000000D+00
202  2.0100000000000D+00  0.0000000000000D+00  0.0000000000000D+00
203  2.0200000000000D+00  0.0000000000000D+00  0.0000000000000D+00
204  2.0300000000000D+00  0.0000000000000D+00  0.0000000000000D+00
205  2.0400000000000D+00  0.0000000000000D+00  0.0000000000000D+00
206  2.0500000000000D+00  0.0000000000000D+00  0.0000000000000D+00
207  2.0600000000000D+00  0.0000000000000D+00  0.0000000000000D+00
208  2.0700000000000D+00  0.0000000000000D+00  0.0000000000000D+00
209  2.0800000000000D+00  0.0000000000000D+00  0.0000000000000D+00
210  2.0900000000000D+00  0.0000000000000D+00  0.0000000000000D+00
211  2.1000000000000D+00  0.0000000000000D+00  0.0000000000000D+00
212  2.1100000000000D+00  0.0000000000000D+00  0.0000000000000D+00
213  2.1200000000000D+00  0.0000000000000D+00  0.0000000000000D+00
214  2.1300000000000D+00  0.0000000000000D+00  0.0000000000000D+00
215  2.1400000000000D+00  0.0000000000000D+00  0.0000000000000D+00
216  2.1500000000000D+00  0.0000000000000D+00  0.0000000000000D+00
217  2.1600000000000D+00  0.0000000000000D+00  0.0000000000000D+00
218  2.1700000000000D+00  0.0000000000000D+00  0.0000000000000D+00
219  2.1800000000000D+00  0.0000000000000D+00  0.0000000000000D+00
220  2.1900000000000D+00  0.0000000000000D+00  0.0000000000000D+00
221  2.2000000000000D+00  0.0000000000000D+00  0.0000000000000D+00
222  2.2100000000000D+00  0.0000000000000D+00  0.0000000000000D+00
223  2.2200000000000D+00  0.0000000000000D+00  0.0000000000000D+00
224  2.2300000000000D+00  0.0000000000000D+00  0.0000000000000D+00
225  2.2400000000000D+00  0.0000000000000D+00  0.0000000000000D+00
226  2.2500000000000D+00  0.0000000000000D+00  0.0000000000000D+00
227  2.2600000000000D+00  0.0000000000000D+00  0.0000000000000D+00
228  2.2700000000000D+00  0.0000000000000D+00  0.0000000000000D+00
229  2.2800000000000D+00  0.0000000000000D+00  0.0000000000000D+00
230  2.2900000000000D+00  0.0000000000000D+00  0.0000000000000D+00
231  2.3000000000000D+00  0.0000000000000D+00  0.0000000000000D+00
232  2.3100000000000D+00  0.0000000000000D+00  0.0000000000000D+00
233  2.3200000000000D+00  0.0000000000000D+00  0.0000000000000D+00
234  2.3300000000000D+00  0.0000000000000D+00  0.0000000000000D+00
235  2.3400000000000D+00  0.0000000000000D+00  0.0000000000000D+00
236  2.3500000000000D+00  0.0000000000000D+00  0.0000000000000D+00
237  2.3600000000000D+00  0.0000000000000D+00  0.0000000000000D+00
238  2.3700000000000D+00  0.0000000000000D+00  0.0000000000000D+00
239  2.3800000000000D+00  0.0000000000000D+00  0.0000000000000D+00
240  2.3900000000000D+00  0.0000000000000D+00  0.0000000000000D+00
241  2.4000000000000D+00  0.0000000000000D+00  0.0000000000000D+00
242  2.4100000000000D+00  0.0000000000000D+00  0.0000000000000D+00
243  2.4200000000000D+00  0.0000000000000D+00  0.0000000000000D+00
244  2.4300000000000D+00  0.0000000000000D+00  0.0000000000000D+00
245  2.4400000000000D+00  0.0000000000000D+00  0.0000000000000D+00
246  2.4500000000000D+00  0.0000000000000D+00  0.0000000000000D+00
247  2.4600000000000D+00  0.0000000000000D+00  0.0000000000000D+00
248  2.4700000000000D+00  0.0000000000000D+00  0.0000000000000D+00
249  2.4800000000000D+00  0.0000000000000D+00  0.0000000000000D+00
250  2.4900000000000D+00  0.0000000000000D+00  0.0000000000000D+00
251  2.5000000000000D+00  0.0000000000000D+00  0.0000000000000D+00
252  2.5100000000000D+00  0.0000000000000D+00  0.0000000000000D+00
253  2.5200000000000D+00  0.0000000000000D+00  0.0000000000000D+00
254  2.5300000000000D+00  0.0000000000000D+00  0.0000000000000D+00
255  2.5400000000000D+00  0.0000000000000D+00  0.0000000000000D+00
256  2.5500000000000D+00  0.0000000000000D+00  0.0000000000000D+00
257  2.5600000000000D+00  0.0000000000000D+00  0.0000000000000D+00
258  2.5700000000000D+00  0.0000000000000D+00  0.0000000000000D+00
259  2.5800000000000D+00  0.0000000000000D+00  0.0000000000000D+00
260  2.5900000000000D+00  0.0000000000000D+00  0.0000000000000D+00
261  2.6000000000000D+00  0.0000000000000D+00  0.0000000000000D+00
262  2.6100000000000D+00  0.0000000000000D+00  0.0000000000000D+00
263  2.6200000000000D+00  0.0000000000000D+00  0.0000000000000D+00
264  2.6300000000000D+00  0.0000000000000D+00  0.0000000000000D+00
265  2.6400000000000D+00  0.0000000000000D+00  0.0000000000000D+00
266  2.6500000000000D+00  0.0000000000000D+00  0.0000000000000D+00
267  2.6600000000000D+00  0.0000000000000D+00  0.0000000000000D+00
268  2.6700000000000D+00  0.0000000000000D+00  0.0000000000000D+00
269  2.6800000000000D+00  0.0000000000000D+00  0.0000000000000D+00
270  2.6900000000000D+00  0.0000000000000D+00  0.0000000000000D+00
271  2.7000000000000D+00  0.0000000000000D+00  0.0000000000000D+00
272  2.7100000000000D+00  0.0000000000000D+00  0.0000000000000D+00
273  2.7200000000000D+00  0.0000000000000D+00  0.0000000000000D+00
274  2.7300000000000D+00  0.0000000000000D+00  0.0000000000000D+00
275  2.7400000000000D+00  0.0000000000000D+00  0.0000000000000D+00
276  2.7500000000000D+00  0.0000000000000D+00  0.0000000000000D+00
277  2.7600000000000D+00  0.0000000000000D+00  0.0000000000000D+00
278  2.7700000000000D+00  0.0000000000000D+00  0.0000000000000D+00
279  2.7800000000000D+00  0.0000000000000D+00  0.0000000000000D+00
280  2.7900000000000D+00  0.0000000000000D+00  0.0000000000000D+00
281  2.8000000000000D+00  0.0000000000000D+00  0.0000000000000D+00
282  2.8100000000000D+00  0.0000000000000D+00  0.0000000000000D+00
283  2.8200000000000D+00  0.0000000000000D+00  0.0000000000000D+00
284  2.8300000000000D+00  0.0000000000000D+00  0.0000000000000D+00
285  2.8400000000000D+00  0.0000000000000D+00  0.0000000000000D+00
286  2.8500000000000D+00  0.0000000000000D+00  0.0000000000000D+00
287  2.8600000000000D+00  0.0000000000000D+00  0.0000000000000D+00
288  2.8700000000000D+00  0.0000000000000D+00  0.0000000000000D+00
289  2.8800000000000D+00  0.0000000000000D+00  0.0000000000000D+00
290  2.8900000000000D+00  0.0000000000000D+00  0.0000000000000D+00
291  2.9000000000000D+00  0.0000000000000D+00  0.0000000000000D+00
292  2.9100000000000D+00  0.0000000000000D+00  0.0000000000000D+00
293  2.9200000000000D+00  0.0000000000000D+00  0.0000000000000D+00
294  2.9300000000000D+00  0.0000000000000D+00  0.0000000000000D+00
295  2.9400000000000D+00  0.0000000000000D+00  0.0000000000000D+00
296  2.9500000000000D+00  0.0000000000000D+00  0.0000000000000D+00
297  2.9600000000000D+00  0.0000000000000D+00  0.0000000000000D+00
298  2.9700000000000D+00  0.0000000000000D+00  0.0000000000000D+00
299  2.9800000000000D+00  0.0000000000000D+00  0.0000000000000D+00
300  2.9900000000000D+00  0.0000000000000D+00  0.0000000000000D+00
301  3.0000000000000D+00  0.0000000000000D+00  0.0000000000000D+00
302  3.0100000000000D+00  0.0000000000000D+00  0.0000000000000D+00
303  3.0200000000000D+00  0.0000000000000D+00  0.0000000000000D+00
304  3.0300000000000D+00  0.0000000000000D+00  0.0000000000000D+00
305  3.0400000000000D+00  0.0000000000000D+00  0.0000000000000D+00
306  3.0500000000000D+00  0.0000000000000D+00  0.0000000000000D+00
307  3.0600000000000D+00  0.0000000000000D+00  0.0000000000000D+00
308  3.0700000000000D+00  0.0000000000000D+00  0.0000000000000D+00
309  3.0800000000000D+00  0.0000000000000D+00  0.0000000000000D+00
310  3.0900000000000D+00  0.0000000000000D+00  0.0000000000000D+00
311  3.1000000000000D+00  0.0000000000000D+00  0.0000000000000D+00
312  3.1100000000000D+00  0.0000000000000D+00  0.0000000000000D+00
313  3.1200000000000D+00  0.0000000000000D+00  0.0000000000000D+00
314  3.1300000000000D+00  0.0000000000000D+00  0.0000000000000D+00
315  3.1400000000000D+00  0.0000000000000D+00  0.0000000000000D+00
316  3.1500000000000D+00  0.0000000000000D+00  0.0000000000000D+00
317  3.1600000000000D+00  0.0000000000000D+00  0.0000000000000D+00
318  3.1700000000000D+00  0.0000000000000D+00  0.0000000000000D+00
319  3.1800000000000D+00  0.0000000000000D+00  0.0000000000000D+00
320  3.1900000000000D+00  0.0000000000000D+00  0.0000000000000D+00
321  3.2000000000000D+00  0.0000000000000D+00  0.0000000000000D+00
322  3.2100000000000D+00  0.0000000000000D+00  0.0000000000000D+00
323  3.2200000000000D+00  0.0000000000000D+00  0.0000000000000D+00
324  3.2300000000000D+00  0.0000000000000D+00  0.0000000000000D+00
325  3.2400000000000D+00  0.0000000000000D+00  0.0000000000000D+00
326  3.2500000000000D+00  0.0000000000000D+00  0.0000000000000D+00
327  3.2600000000000D+00  0.0000000000000D+00  0.0000000000000D+00
328  3.2700000000000D+00  0.0000000000000D+00  0.0000000000000D+00
329  3.2800000000000D+00  0.0000000000000D+00  0.0000000000000D+00
330  3.2900000000000D+00  0.0000000000000D+00  0.0000000000000D+00
331  3.3000000000000D+00  0.0000000000000D+00  0.0000000000000D+00
332  3.3100000000000D+00  0.0000000000000D+00  0.0000000000000D+00
333  3.3200000000000D+00  0.0000000000000D+00  0.0000000000000D+00
334  3.3300000000000D+00  0.0000000000000D+00  0.0000000000000D+00
335  3.3400000000000D+00  0.0000000000000D+00  0.0000000000000D+00
336  3.3500000000000D+00  0.0000000000000D+00  0.0000000000000D+00
337  3.3600000000000D+00  0.0000000000000D+00  0.0000000000000D+00
338  3.3700000000000D+00  0.0000000000000D+00  0.0000000000000D+00
339  3.3800000000000D+00  0.0000000000000D+00  0.0000000000000D+00
340  3.3900000000000D+00  0.0000000000000D+00  0.0000000000000D+00
341  3.4000000000000D+00  0.0000000000000D+00  0.0000000000000D+00
342  3.4100000000000D+00  0.0000000000000D+00  0.0000000000000D+00
343  3.4200000000000D+00  0.0000000000000D+00  0.0000000000000D+00
344  3.4300000000000D+00  0.0000000000000D+00  0.0000000000000D+00
345  3.4400000000000D+00  0.0000000000000D+00  0.0000000000000D+00
346  3.4500000000000D+00  0.0000000000000D+00  0.0000000000000D+00
347  3.4600000000000D+00  0.0000000000000D+00  0.0000000000000D+00
348  3.4700000000000D+00  0.0000000000000D+00  0.0000000000000D+00
349  3.4800000000000D+00  0.0000000000000D+00  0.0000000000000D+00
350  3.4900000000000D+00  0.0000000000000D+00  0.0000000000000D+00
351  3.5000000000000D+00  0.0000000000000D+00  0.0000000000000D+00
352  3.5100000000000D+00  0.0000000000000D+00  0.0000000000000D+00
353  3.5200000000000D+00  0.0000000000000D+00  0.0000000000000D+00
354  3.5300000000000D+00  0.0000000000000D+00  0.0000000000000D+00
355  3.5400000000000D+00  0.0000000000000D+00  0.0000000000000D+00
356  3.5500000000000D+00  0.0000000000000D+00  0.0000000000000D+00
357  3.5600000000000D+00  0.0000000000000D+00  0.0000000000000D+00
358  3.5700000000000D+00  0.0000000000000D+00  0.0000000000000D+00
359  3.5800000000000D+00  0.0000000000000D+00  0.0000000000000D+00
360  3.5900000000000D+00  0.0000000000000D+00  0.0000000000000D+00
361  3.6000000000000D+00  0.0000000000000D+00  0.0000000000000D+00
362  3.6100000000000D+00  0.0000000000000D+00  0.0000000000000D+00
363  3.6200000000000D+00  0.0000000000000D+00  0.0000000000000D+00
364  3.6300000000000D+00  0.0000000000000D+00  0.0000000000000D+00
365  3.6400000000000D+00  0.0000000000000D+00  0.0000000000000D+00
366  3.6500000000000D+00  0.0000000000000D+00  0.0000000000000D+00
367  3.6600000000000D+00  0.0000000000000D+00  0.0000000000000D+00
368  3.6700000000000D+00  0.0000000000000D+00  0.0000000000000D+00
369  3.6800000000000D+00  0.0000000000000D+00  0.0000000000000D+00
370  3.6900000000000D+00  0.0000000000000D+00  0.0000000000000D+00
371  3.7000000000000D+00  0.0000000000000D+00  0.0000000000000D+00
372  3.7100000000000D+00  0.0000000000000D+00  0.0000000000000D+00
373  3.7200000000000D+00  0.0000000000000D+00  0.0000000000000D+00
374  3.7300000000000D+00  0.0000000000000D+00  0.0000000000000D+00
375  3.7400000000000D+00  0.0000000000000D+00  0.0000000000000D+00
376  3.7500000000000D+00  0.0000000000000D+00  0.0000000000000D+00
377  3.7600000000000D+00  0.0000000000000D+00  0.0000000000000D+00
378  3.7700000000000D+00  0.0000000000000D+00  0.0000000000000D+00
379  3.7800000000000D+00  0.0000000000000D+00  0.0000000000000D+00
380  3.7900000000000D+00  0.0000000000000D+00  0.0000000000000D+00
381  3.8000000000000D+00  0.0000000000000D+00  0.0000000000000D+00
382  3.8100000000000D+00  0.0000000000000D+00  0.0000000000000D+00
383  3.8200000000000D+00  0.0000000000000D+00  0.0000000000000D+00
384  3.8300000000000D+00  0.0000000000000D+00  0.0000000000000D+00
385  3.8400000000000D+00  0.0000000000000D+00  0.0000000000000D+00
386  3.8500000000000D+00  0.0000000000000D+00  0.0000000000000D+00
387  3.8600000000000D+00  0.0000000000000D+00  0.0000000000000D+00
388  3.8700000000000D+00  0.0000000000000D+00  0.0000000000000D+00
389  3.8800000000000D+00  0.0000000000000D+00  0.0000000000000D+00
390  3.8900000000000D+00  0.0000000000000D+00  0.0000000000000D+00
391  3.9000000000000D+00  0.0000000000000D+00  0.0000000000000D+00
392  3.9100000000000D+00  0.0000000000000D+00  0.0000000000000D+00
393  3.9200000000000D+00  0.0000000000000D+00  0.0000000000000D+00
394  3.9300000000000D+00  0.0000000000000D+00  0.0000000000000D+00
395  3.9400000000000D+00  0.0000000000000D+00  0.0000000000000D+00
396  3.9500000000000D+00  0.0000000000000D+00  0.0000000000000D+00
397  3.9600000000000D+00  0.0000000000000D+00  0.0000000000000D+00
398  3.9700000000000D+00  0.0000000000000D+00  0.0000000000000D+00
399  3.9800000000000D+00  0.0000000000000D+00  0.0000000000000D+00
400  3.9900000000000D+00  0.0000000000000D+00  0.0000000000000D+00
401  4.0000000000000D+00  0.0000000000000D+00  0.0000000000000D+00
402  4.0100000000000D+00  0.0000000000000D+00  0.0000000000000D+00
403  4.0200000000000D+00  0.0000000000000D+00  0.0000000000000D+00
404  4.0300000000000D+00  0.0000000000000D+00  0.0000000000000D+00
405  4.0400000000000D+00  0.0000000000000D+00  0.0000000000000D+00
406  4.0500000000000D+00  0.0000000000000D+00  0.0000000000000D+00
407  4.0600000000000D+00  0.0000000000000D+00  0.0000000000000D+00
408  4.0700000000000D+00  0.0000000000000D+00  0.0000000000000D+00
409  4.0800000000000D+00  0.0000000000000D+00  0.0000000000000D+00
410  4.0900000000000D+00  0.0000000000000D+00  0.0000000000000D+00
411  4.1000000000000D+00  0.0000000000000D+00  0.0000000000000D+00
412  4.1100000000000D+00  0.0000000000000D+00  0.0000000000000D+00
413  4.1200000000000D+00  0.0000000000000D+00  0.0000000000000D+00
414  4.1300000000000D+00  0.0000000000000D+00  0.0000000000000D+00
415  4.1400000000000D+00  0.0000000000000D+00  0.0000000000000D+00
416  4.1500000000000D+00  0.0000000000000D+00  0.0000000000000D+00
417  4.1600000000000D+00  0.0000000000000D+00  0.0000000000000D+00
418  4.1700000000000D+00  0.0000000000000D+00  0.0000000000000D+00
419  4.1800000000000D+00  0.0000000000000D+00  0.0000000000000D+00
420  4.1900000000000D+00  0.0000000000000D+00  0.0000000000000D+00
421  4.2000000000000D+00  0.0000000000000D+00  0.0000000000000D+00
422  4.2100000000000D+00  0.0000000000000D+00  0.0000000000000D+00
423  4.2200000000000D+00  0.0000000000000D+00  0.0000000000000D+00
424  4.2300000000000D+00  0.0000000000000D+00  0.0000000000000D+00
425  4.2400000000000D+00  0.0000000000000D+00  0.0000000000000D+00
426  4.2500000000000D+00  0.0000000000000D+00  0.0000000000000D+00
427  4.2600000000000D+00  0.0000000000000D+00  0.0000000000000D+00
428  4.2700000000000D+00  0.0000000000000D+00  0.0000000000000D+00
429  4.2800000000000D+00  0.0000000000000D+00  0.0000000000000D+00
430  4.2900000000000D+00  0.0000000000000D+00  0.0000000000000D+00
431  4.3000000000000D+00  0.0000000000000D+00  0.0000000000000D+00
432  4.3100000000000D+00  0.0000000000000D+00  0.0000000000000D+00
433  4.3200000000000D+00  0.0000000000000D+00  0.0000000000000D+00
434  4.3300000000000D+00  0.0000000000000D+00  0.0000000000000D+00
435  4.3400000000000D+00  0.0000000000000D+00  0.0000000000000D+00
436  4.3500000000000D+00  0.0000000000000D+00  0.0000000000000D+00
437  4.3600000000000D+00  0.0000000000000D+00  0.0000000000000D+00
438  4.3700000000000D+00  0.0000000000000D+00  0.0000000000000D+00
439  4.3800000000000D+00  0.0000000000000D+00  0.0000000000000D+00
440  4.3900000000000D+00  0.0000000000000D+00  0.0000000000000D+00
441  4.4000000000000D+00  0.0000000000000D+00  0.0000000000000D+00
442  4.4100000000000D+00  0.0000000000000D+00  0.0000000000000D+00
443  4.4200000000000D+00  0.0000000000000D+00  0.0000000000000D+00
444  4.4300000000000D+00  0.0000000000000D+00  0.0000000000000D+00