Co    ONCVPSP  r_core=  1.26  1.32  1.66
27.0000     17.0000      151103    zatom,zion,pspd
8   -1013   2     4   600     0    pspcod,pspxc,lmax,lloc,mmax,r2well
5.99000000  6.00000000  0.00000000    rchrg fchrg qchrg
2     2     2     0     0    nproj
1                 extension_switch
0                         6.2997260550477D+00 -5.9503861760268D-01
1  0.0000000000000D+00  9.5558005952512D-11  4.2425338520058D-09
2  1.0000000000000D-02  9.2803852493518D-02  2.2816716363673D-02
3  2.0000000000000D-02  1.8533646378711D-01  4.5756907657195D-02
4  3.0000000000000D-02  2.7732743514037D-01  6.8939346483800D-02
5  4.0000000000000D-02  3.6850805157119D-01  9.2473480106388D-02
6  5.0000000000000D-02  4.5861212080810D-01  1.1645496496543D-01
7  6.0000000000000D-02  5.4737680866057D-01  1.4096143477235D-01
8  7.0000000000000D-02  6.3454346949858D-01  1.6604857499360D-01
9  8.0000000000000D-02  7.1985847043704D-01  1.9174657229806D-01
10  9.0000000000000D-02  8.0307400770471D-01  2.1805700233655D-01
11  1.0000000000000D-01  8.8394891354342D-01  2.4495021312158D-01
12  1.1000000000000D-01  9.6224945183361D-01  2.7236325435401D-01
13  1.2000000000000D-01  1.0377501004805D+00  3.0019839538733D-01
14  1.3000000000000D-01  1.1102343184245D+00  3.2832226622558D-01
15  1.4000000000000D-01  1.1794952949617D+00  3.5656564712261D-01
16  1.5000000000000D-01  1.2453366788852D+00  3.8472392309802D-01
17  1.6000000000000D-01  1.3075732847770D+00  4.1255821012934D-01
18  1.7000000000000D-01  1.3660317736171D+00  4.3979715003946D-01
19  1.8000000000000D-01  1.4205513047118D+00  4.6613936130132D-01
20  1.9000000000000D-01  1.4709841558029D+00  4.9125652325366D-01
21  2.0000000000000D-01  1.5171963080921D+00  5.1479706169030D-01
22  2.1000000000000D-01  1.5590679928126D+00  5.3639039457723D-01
23  2.2000000000000D-01  1.5964941959049D+00  5.5565168788883D-01
24  2.3000000000000D-01  1.6293851173054D+00  5.7218706335775D-01
25  2.4000000000000D-01  1.6576665813453D+00  5.8559919241329D-01
26  2.5000000000000D-01  1.6812803947819D+00  5.9549320384833D-01
27  2.6000000000000D-01  1.7001846490414D+00  6.0148282690063D-01
28  2.7000000000000D-01  1.7143539633627D+00  6.0319668654960D-01
29  2.8000000000000D-01  1.7237796656690D+00  6.0028466398962D-01
30  2.9000000000000D-01  1.7284699081881D+00  5.9242423251032D-01
31  3.0000000000000D-01  1.7284497150728D+00  5.7932667744349D-01
32  3.1000000000000D-01  1.7237609595462D+00  5.6074310846336D-01
33  3.2000000000000D-01  1.7144622684215D+00  5.3647017337343D-01
34  3.3000000000000D-01  1.7006288522006D+00  5.0635538458644D-01
35  3.4000000000000D-01  1.6823522593612D+00  4.7030197279636D-01
36  3.5000000000000D-01  1.6597400538779D+00  4.2827318682919D-01
37  3.6000000000000D-01  1.6329154154970D+00  3.8029596430245D-01
38  3.7000000000000D-01  1.6020166627875D+00  3.2646390446825D-01
39  3.8000000000000D-01  1.5671966995210D+00  2.6693948239116D-01
40  3.9000000000000D-01  1.5286223854861D+00  2.0195545233691D-01
41  4.0000000000000D-01  1.4864738334115D+00  1.3181539782350D-01
42  4.1000000000000D-01  1.4409436342529D+00  5.6893396102200D-02
43  4.2000000000000D-01  1.3922360136858D+00 -2.2367224226631D-02
44  4.3000000000000D-01  1.3405659232305D+00 -1.0545604233302D-01
45  4.4000000000000D-01  1.2861580700170D+00 -1.9179861910710D-01
46  4.5000000000000D-01  1.2292458897607D+00 -2.8076047205568D-01
47  4.6000000000000D-01  1.1700704680675D+00 -3.7165192523300D-01
48  4.7000000000000D-01  1.1088794157067D+00 -4.6373379636671D-01
49  4.8000000000000D-01  1.0459257039749D+00 -5.5622387167421D-01
50  4.9000000000000D-01  9.8146646672531D-01 -6.4830410761183D-01
51  5.0000000000000D-01  9.1576177603581D-01 -7.3912848811878D-01
52  5.1000000000000D-01  8.4907339884576D-01 -8.2783145595150D-01
53  5.2000000000000D-01  7.8166354218442D-01 -9.1353682759596D-01
54  5.3000000000000D-01  7.1379359485190D-01 -9.9536709313007D-01
55  5.4000000000000D-01  6.4572287358415D-01 -1.0724529954119D+00
56  5.5000000000000D-01  5.7770738183643D-01 -1.1439432771872D+00
57  5.6000000000000D-01  5.0999858935150D-01 -1.2090144802624D+00
58  5.7000000000000D-01  4.4284224063773D-01 -1.2668806778340D+00
59  5.8000000000000D-01  3.7647720036575D-01 -1.3168030194829D+00
60  5.9000000000000D-01  3.1113434350203D-01 -1.3580989682706D+00
61  6.0000000000000D-01  2.4703549773125D-01 -1.3901511108448D+00
62  6.1000000000000D-01  1.8439244538072D-01 -1.4124154244784D+00
63  6.2000000000000D-01  1.2340599164906D-01 -1.4244288895194D+00
64  6.3000000000000D-01  6.4265105461340D-02 -1.4258163417979D+00
65  6.4000000000000D-01  7.1461387308325D-03 -1.4162964670175D+00
66  6.5000000000000D-01 -4.7787870799714D-02 -1.3956868480815D+00
67  6.6000000000000D-01 -1.0038780862181D-01 -1.3639079864570D+00
68  6.7000000000000D-01 -1.5051900062200D-01 -1.3209862300123D+00
69  6.8000000000000D-01 -1.9806163528408D-01 -1.2670555521975D+00
70  6.9000000000000D-01 -2.4291108866130D-01 -1.2023581407264D+00
71  7.0000000000000D-01 -2.8497815065713D-01 -1.1272437679339D+00
72  7.1000000000000D-01 -3.2418915198656D-01 -1.0421679296531D+00
73  7.2000000000000D-01 -3.6048599202911D-01 -9.4768875445914D-01
74  7.3000000000000D-01 -3.9382606862631D-01 -8.4446270034757D-01
75  7.4000000000000D-01 -4.2418211171185D-01 -7.3323907118406D-01
76  7.5000000000000D-01 -4.5154192347689D-01 -6.1485340026758D-01
77  7.6000000000000D-01 -4.7590802856751D-01 -4.9021976308317D-01
78  7.7000000000000D-01 -4.9729723856680D-01 -3.6032209538430D-01
79  7.8000000000000D-01 -5.1574013572760D-01 -2.2620460607275D-01
80  7.9000000000000D-01 -5.3128048158578D-01 -8.8961386718775D-02
81  8.0000000000000D-01 -5.4397455668770D-01  5.0274669196254D-02
82  8.1000000000000D-01 -5.5389043820505D-01  1.9034351428151D-01
83  8.2000000000000D-01 -5.6110722267767D-01  3.3007003093878D-01
84  8.3000000000000D-01 -5.6571420151521D-01  4.6827641227698D-01
85  8.4000000000000D-01 -5.6780999719801D-01  6.0379469648886D-01
86  8.5000000000000D-01 -5.6750166834110D-01  7.3547930744674D-01
87  8.6000000000000D-01 -5.6490379192156D-01  8.6221945261986D-01
88  8.7000000000000D-01 -5.6013753101662D-01  9.8295122964681D-01
89  8.8000000000000D-01 -5.5332969635661D-01  1.0966692950293D+00
90  8.9000000000000D-01 -5.4461180986515D-01  1.2024379524481D+00
91  9.0000000000000D-01 -5.3411917813914D-01  1.2994015241035D+00
92  9.1000000000000D-01 -5.2198998351648D-01  1.3867938762019D+00
93  9.2000000000000D-01 -5.0836439999382D-01  1.4639469791614D+00
94  9.3000000000000D-01 -4.9338374079460D-01  1.5302983941913D+00
95  9.4000000000000D-01 -4.7718964385475D-01  1.5853975904902D+00
96  9.5000000000000D-01 -4.5992330089679D-01  1.6289110112487D+00
97  9.6000000000000D-01 -4.4172473510917D-01  1.6606258217745D+00
98  9.7000000000000D-01 -4.2273213174692D-01  1.6804522891705D+00
99  9.8000000000000D-01 -4.0308122522289D-01  1.6884247600311D+00
100  9.9000000000000D-01 -3.8290474549088D-01  1.6847012200415D+00
101  1.0000000000000D+00 -3.6233192573366D-01  1.6695614371333D+00
102  1.0100000000000D+00 -3.4148807254618D-01  1.6434037082708D+00
103  1.0200000000000D+00 -3.2049419901457D-01  1.6067402474936D+00
104  1.0300000000000D+00 -2.9946672028716D-01  1.5601912705932D+00
105  1.0400000000000D+00 -2.7851721045603D-01  1.5044778487987D+00
106  1.0500000000000D+00 -2.5775221880169D-01  1.4404136203975D+00
107  1.0600000000000D+00 -2.3727314279147D-01  1.3688954633727D+00
108  1.0700000000000D+00 -2.1717615447876D-01  1.2908932477592D+00
109  1.0800000000000D+00 -1.9755217639689D-01  1.2074387977624D+00
110  1.0900000000000D+00 -1.7848690246332D-01  1.1196142052800D+00
111  1.1000000000000D+00 -1.6006085893171D-01  1.0285396455790D+00
112  1.1100000000000D+00 -1.4234950004240D-01  9.3536085304517D-01
113  1.1200000000000D+00 -1.2542333264038D-01  8.4123642117169D-01
114  1.1300000000000D+00 -1.0934806382535D-01  7.4732509364277D-01
115  1.1400000000000D+00 -9.4184765526306D-02  6.5477321439009D-01
116  1.1500000000000D+00 -7.9990049801993D-02  5.6470250481582D-01
117  1.1600000000000D+00 -6.6816248673149D-02  4.7819833238043D-01
118  1.1700000000000D+00 -5.4711592609547D-02  3.9629864534181D-01
119  1.1800000000000D+00 -4.3720381167052D-02  3.1998371323065D-01
120  1.1900000000000D+00 -3.3883136949161D-02  2.5016635915280D-01
121  1.2000000000000D+00 -2.5236754638261D-02  1.8768473895029D-01
122  1.2100000000000D+00 -1.7814618325547D-02  1.3329504253509D-01
123  1.2200000000000D+00 -1.1647957243912D-02  8.7660461100556D-02
124  1.2300000000000D+00 -6.7599467683583D-03  5.1283183398044D-02
125  1.2400000000000D+00 -3.1528398853078D-03  2.4378168433874D-02
126  1.2500000000000D+00 -9.3826687149136D-04  7.9615046175654D-03
127  1.2600000000000D+00 -2.2621956108703D-05  1.1800894822319D-03
128  1.2700000000000D+00  8.8105365389244D-05 -2.0051032883067D-04
129  1.2800000000000D+00 -1.8987301820422D-05  6.6369306825515D-05
130  1.2900000000000D+00 -1.1335510114697D-05  4.5154426437740D-05
131  1.3000000000000D+00  5.2635356450594D-06 -1.6080812947782D-05
132  1.3100000000000D+00 -5.6687593466115D-08 -8.6446069894976D-07
133  1.3200000000000D+00 -7.5033245176117D-08 -1.1442237640267D-06
134  1.3300000000000D+00  0.0000000000000D+00  0.0000000000000D+00
135  1.3400000000000D+00  0.0000000000000D+00  0.0000000000000D+00
136  1.3500000000000D+00  0.0000000000000D+00  0.0000000000000D+00
137  1.3600000000000D+00  0.0000000000000D+00  0.0000000000000D+00
138  1.3700000000000D+00  0.0000000000000D+00  0.0000000000000D+00
139  1.3800000000000D+00  0.0000000000000D+00  0.0000000000000D+00
140  1.3900000000000D+00  0.0000000000000D+00  0.0000000000000D+00
141  1.4000000000000D+00  0.0000000000000D+00  0.0000000000000D+00
142  1.4100000000000D+00  0.0000000000000D+00  0.0000000000000D+00
143  1.4200000000000D+00  0.0000000000000D+00  0.0000000000000D+00
144  1.4300000000000D+00  0.0000000000000D+00  0.0000000000000D+00
145  1.4400000000000D+00  0.0000000000000D+00  0.0000000000000D+00
146  1.4500000000000D+00  0.0000000000000D+00  0.0000000000000D+00
147  1.4600000000000D+00  0.0000000000000D+00  0.0000000000000D+00
148  1.4700000000000D+00  0.0000000000000D+00  0.0000000000000D+00
149  1.4800000000000D+00  0.0000000000000D+00  0.0000000000000D+00
150  1.4900000000000D+00  0.0000000000000D+00  0.0000000000000D+00
151  1.5000000000000D+00  0.0000000000000D+00  0.0000000000000D+00
152  1.5100000000000D+00  0.0000000000000D+00  0.0000000000000D+00
153  1.5200000000000D+00  0.0000000000000D+00  0.0000000000000D+00
154  1.5300000000000D+00  0.0000000000000D+00  0.0000000000000D+00
155  1.5400000000000D+00  0.0000000000000D+00  0.0000000000000D+00
156  1.5500000000000D+00  0.0000000000000D+00  0.0000000000000D+00
157  1.5600000000000D+00  0.0000000000000D+00  0.0000000000000D+00
158  1.5700000000000D+00  0.0000000000000D+00  0.0000000000000D+00
159  1.5800000000000D+00  0.0000000000000D+00  0.0000000000000D+00
160  1.5900000000000D+00  0.0000000000000D+00  0.0000000000000D+00
161  1.6000000000000D+00  0.0000000000000D+00  0.0000000000000D+00
162  1.6100000000000D+00  0.0000000000000D+00  0.0000000000000D+00
163  1.6200000000000D+00  0.0000000000000D+00  0.0000000000000D+00
164  1.6300000000000D+00  0.0000000000000D+00  0.0000000000000D+00
165  1.6400000000000D+00  0.0000000000000D+00  0.0000000000000D+00
166  1.6500000000000D+00  0.0000000000000D+00  0.0000000000000D+00
167  1.6600000000000D+00  0.0000000000000D+00  0.0000000000000D+00
168  1.6700000000000D+00  0.0000000000000D+00  0.0000000000000D+00
169  1.6800000000000D+00  0.0000000000000D+00  0.0000000000000D+00
170  1.6900000000000D+00  0.0000000000000D+00  0.0000000000000D+00
171  1.7000000000000D+00  0.0000000000000D+00  0.0000000000000D+00
172  1.7100000000000D+00  0.0000000000000D+00  0.0000000000000D+00
173  1.7200000000000D+00  0.0000000000000D+00  0.0000000000000D+00
174  1.7300000000000D+00  0.0000000000000D+00  0.0000000000000D+00
175  1.7400000000000D+00  0.0000000000000D+00  0.0000000000000D+00
176  1.7500000000000D+00  0.0000000000000D+00  0.0000000000000D+00
177  1.7600000000000D+00  0.0000000000000D+00  0.0000000000000D+00
178  1.7700000000000D+00  0.0000000000000D+00  0.0000000000000D+00
179  1.7800000000000D+00  0.0000000000000D+00  0.0000000000000D+00
180  1.7900000000000D+00  0.0000000000000D+00  0.0000000000000D+00
181  1.8000000000000D+00  0.0000000000000D+00  0.0000000000000D+00
182  1.8100000000000D+00  0.0000000000000D+00  0.0000000000000D+00
183  1.8200000000000D+00  0.0000000000000D+00  0.0000000000000D+00
184  1.8300000000000D+00  0.0000000000000D+00  0.0000000000000D+00
185  1.8400000000000D+00  0.0000000000000D+00  0.0000000000000D+00
186  1.8500000000000D+00  0.0000000000000D+00  0.0000000000000D+00
187  1.8600000000000D+00  0.0000000000000D+00  0.0000000000000D+00
188  1.8700000000000D+00  0.0000000000000D+00  0.0000000000000D+00
189  1.8800000000000D+00  0.0000000000000D+00  0.0000000000000D+00
190  1.8900000000000D+00  0.0000000000000D+00  0.0000000000000D+00
191  1.9000000000000D+00  0.0000000000000D+00  0.0000000000000D+00
192  1.9100000000000D+00  0.0000000000000D+00  0.0000000000000D+00
193  1.9200000000000D+00  0.0000000000000D+00  0.0000000000000D+00
194  1.9300000000000D+00  0.0000000000000D+00  0.0000000000000D+00
195  1.9400000000000D+00  0.0000000000000D+00  0.0000000000000D+00
196  1.9500000000000D+00  0.0000000000000D+00  0.0000000000000D+00
197  1.9600000000000D+00  0.0000000000000D+00  0.0000000000000D+00
198  1.9700000000000D+00  0.0000000000000D+00  0.0000000000000D+00
199  1.9800000000000D+00  0.0000000000000D+00  0.0000000000000D+00
200  1.9900000000000D+00  0.0000000000000D+00  0.0000000000000D+00
201  2.0000000000000D+00  0.0000000000000D+00  0.0000000000000D+00
202  2.0100000000000D+00  0.0000000000000D+00  0.0000000000000D+00
203  2.0200000000000D+00  0.0000000000000D+00  0.0000000000000D+00
204  2.0300000000000D+00  0.0000000000000D+00  0.0000000000000D+00
205  2.0400000000000D+00  0.0000000000000D+00  0.0000000000000D+00
206  2.0500000000000D+00  0.0000000000000D+00  0.0000000000000D+00
207  2.0600000000000D+00  0.0000000000000D+00  0.0000000000000D+00
208  2.0700000000000D+00  0.0000000000000D+00  0.0000000000000D+00
209  2.0800000000000D+00  0.0000000000000D+00  0.0000000000000D+00
210  2.0900000000000D+00  0.0000000000000D+00  0.0000000000000D+00
211  2.1000000000000D+00  0.0000000000000D+00  0.0000000000000D+00
212  2.1100000000000D+00  0.0000000000000D+00  0.0000000000000D+00
213  2.1200000000000D+00  0.0000000000000D+00  0.0000000000000D+00
214  2.1300000000000D+00  0.0000000000000D+00  0.0000000000000D+00
215  2.1400000000000D+00  0.0000000000000D+00  0.0000000000000D+00
216  2.1500000000000D+00  0.0000000000000D+00  0.0000000000000D+00
217  2.1600000000000D+00  0.0000000000000D+00  0.0000000000000D+00
218  2.1700000000000D+00  0.0000000000000D+00  0.0000000000000D+00
219  2.1800000000000D+00  0.0000000000000D+00  0.0000000000000D+00
220  2.1900000000000D+00  0.0000000000000D+00  0.0000000000000D+00
221  2.2000000000000D+00  0.0000000000000D+00  0.0000000000000D+00
222  2.2100000000000D+00  0.0000000000000D+00  0.0000000000000D+00
223  2.2200000000000D+00  0.0000000000000D+00  0.0000000000000D+00
224  2.2300000000000D+00  0.0000000000000D+00  0.0000000000000D+00
225  2.2400000000000D+00  0.0000000000000D+00  0.0000000000000D+00
226  2.2500000000000D+00  0.0000000000000D+00  0.0000000000000D+00
227  2.2600000000000D+00  0.0000000000000D+00  0.0000000000000D+00
228  2.2700000000000D+00  0.0000000000000D+00  0.0000000000000D+00
229  2.2800000000000D+00  0.0000000000000D+00  0.0000000000000D+00
230  2.2900000000000D+00  0.0000000000000D+00  0.0000000000000D+00
231  2.3000000000000D+00  0.0000000000000D+00  0.0000000000000D+00
232  2.3100000000000D+00  0.0000000000000D+00  0.0000000000000D+00
233  2.3200000000000D+00  0.0000000000000D+00  0.0000000000000D+00
234  2.3300000000000D+00  0.0000000000000D+00  0.0000000000000D+00
235  2.3400000000000D+00  0.0000000000000D+00  0.0000000000000D+00
236  2.3500000000000D+00  0.0000000000000D+00  0.0000000000000D+00
237  2.3600000000000D+00  0.0000000000000D+00  0.0000000000000D+00
238  2.3700000000000D+00  0.0000000000000D+00  0.0000000000000D+00
239  2.3800000000000D+00  0.0000000000000D+00  0.0000000000000D+00
240  2.3900000000000D+00  0.0000000000000D+00  0.0000000000000D+00
241  2.4000000000000D+00  0.0000000000000D+00  0.0000000000000D+00
242  2.4100000000000D+00  0.0000000000000D+00  0.0000000000000D+00
243  2.4200000000000D+00  0.0000000000000D+00  0.0000000000000D+00
244  2.4300000000000D+00  0.0000000000000D+00  0.0000000000000D+00
245  2.4400000000000D+00  0.0000000000000D+00  0.0000000000000D+00
246  2.4500000000000D+00  0.0000000000000D+00  0.0000000000000D+00
247  2.4600000000000D+00  0.0000000000000D+00  0.0000000000000D+00
248  2.4700000000000D+00  0.0000000000000D+00  0.0000000000000D+00
249  2.4800000000000D+00  0.0000000000000D+00  0.0000000000000D+00
250  2.4900000000000D+00  0.0000000000000D+00  0.0000000000000D+00
251  2.5000000000000D+00  0.0000000000000D+00  0.0000000000000D+00
252  2.5100000000000D+00  0.0000000000000D+00  0.0000000000000D+00
253  2.5200000000000D+00  0.0000000000000D+00  0.0000000000000D+00
254  2.5300000000000D+00  0.0000000000000D+00  0.0000000000000D+00
255  2.5400000000000D+00  0.0000000000000D+00  0.0000000000000D+00
256  2.5500000000000D+00  0.0000000000000D+00  0.0000000000000D+00
257  2.5600000000000D+00  0.0000000000000D+00  0.0000000000000D+00
258  2.5700000000000D+00  0.0000000000000D+00  0.0000000000000D+00
259  2.5800000000000D+00  0.0000000000000D+00  0.0000000000000D+00
260  2.5900000000000D+00  0.0000000000000D+00  0.0000000000000D+00
261  2.6000000000000D+00  0.0000000000000D+00  0.0000000000000D+00
262  2.6100000000000D+00  0.0000000000000D+00  0.0000000000000D+00
263  2.6200000000000D+00  0.0000000000000D+00  0.0000000000000D+00
264  2.6300000000000D+00  0.0000000000000D+00  0.0000000000000D+00
265  2.6400000000000D+00  0.0000000000000D+00  0.0000000000000D+00
266  2.6500000000000D+00  0.0000000000000D+00  0.0000000000000D+00
267  2.6600000000000D+00  0.0000000000000D+00  0.0000000000000D+00
268  2.6700000000000D+00  0.0000000000000D+00  0.0000000000000D+00
269  2.6800000000000D+00  0.0000000000000D+00  0.0000000000000D+00
270  2.6900000000000D+00  0.0000000000000D+00  0.0000000000000D+00
271  2.7000000000000D+00  0.0000000000000D+00  0.0000000000000D+00
272  2.7100000000000D+00  0.0000000000000D+00  0.0000000000000D+00
273  2.7200000000000D+00  0.0000000000000D+00  0.0000000000000D+00
274  2.7300000000000D+00  0.0000000000000D+00  0.0000000000000D+00
275  2.7400000000000D+00  0.0000000000000D+00  0.0000000000000D+00
276  2.7500000000000D+00  0.0000000000000D+00  0.0000000000000D+00
277  2.7600000000000D+00  0.0000000000000D+00  0.0000000000000D+00
278  2.7700000000000D+00  0.0000000000000D+00  0.0000000000000D+00
279  2.7800000000000D+00  0.0000000000000D+00  0.0000000000000D+00
280  2.7900000000000D+00  0.0000000000000D+00  0.0000000000000D+00
281  2.8000000000000D+00  0.0000000000000D+00  0.0000000000000D+00
282  2.8100000000000D+00  0.0000000000000D+00  0.0000000000000D+00
283  2.8200000000000D+00  0.0000000000000D+00  0.0000000000000D+00
284  2.8300000000000D+00  0.0000000000000D+00  0.0000000000000D+00
285  2.8400000000000D+00  0.0000000000000D+00  0.0000000000000D+00
286  2.8500000000000D+00  0.0000000000000D+00  0.0000000000000D+00
287  2.8600000000000D+00  0.0000000000000D+00  0.0000000000000D+00
288  2.8700000000000D+00  0.0000000000000D+00  0.0000000000000D+00
289  2.8800000000000D+00  0.0000000000000D+00  0.0000000000000D+00
290  2.8900000000000D+00  0.0000000000000D+00  0.0000000000000D+00
291  2.9000000000000D+00  0.0000000000000D+00  0.0000000000000D+00
292  2.9100000000000D+00  0.0000000000000D+00  0.0000000000000D+00
293  2.9200000000000D+00  0.0000000000000D+00  0.0000000000000D+00
294  2.9300000000000D+00  0.0000000000000D+00  0.0000000000000D+00
295  2.9400000000000D+00  0.0000000000000D+00  0.0000000000000D+00
296  2.9500000000000D+00  0.0000000000000D+00  0.0000000000000D+00
297  2.9600000000000D+00  0.0000000000000D+00  0.0000000000000D+00
298  2.9700000000000D+00  0.0000000000000D+00  0.0000000000000D+00
299  2.9800000000000D+00  0.0000000000000D+00  0.0000000000000D+00
300  2.9900000000000D+00  0.0000000000000D+00  0.0000000000000D+00
301  3.0000000000000D+00  0.0000000000000D+00  0.0000000000000D+00
302  3.0100000000000D+00  0.0000000000000D+00  0.0000000000000D+00
303  3.0200000000000D+00  0.0000000000000D+00  0.0000000000000D+00
304  3.0300000000000D+00  0.0000000000000D+00  0.0000000000000D+00
305  3.0400000000000D+00  0.0000000000000D+00  0.0000000000000D+00
306  3.0500000000000D+00  0.0000000000000D+00  0.0000000000000D+00
307  3.0600000000000D+00  0.0000000000000D+00  0.0000000000000D+00
308  3.0700000000000D+00  0.0000000000000D+00  0.0000000000000D+00
309  3.0800000000000D+00  0.0000000000000D+00  0.0000000000000D+00
310  3.0900000000000D+00  0.0000000000000D+00  0.0000000000000D+00
311  3.1000000000000D+00  0.0000000000000D+00  0.0000000000000D+00
312  3.1100000000000D+00  0.0000000000000D+00  0.0000000000000D+00
313  3.1200000000000D+00  0.0000000000000D+00  0.0000000000000D+00
314  3.1300000000000D+00  0.0000000000000D+00  0.0000000000000D+00
315  3.1400000000000D+00  0.0000000000000D+00  0.0000000000000D+00
316  3.1500000000000D+00  0.0000000000000D+00  0.0000000000000D+00
317  3.1600000000000D+00  0.0000000000000D+00  0.0000000000000D+00
318  3.1700000000000D+00  0.0000000000000D+00  0.0000000000000D+00
319  3.1800000000000D+00  0.0000000000000D+00  0.0000000000000D+00
320  3.1900000000000D+00  0.0000000000000D+00  0.0000000000000D+00
321  3.2000000000000D+00  0.0000000000000D+00  0.0000000000000D+00
322  3.2100000000000D+00  0.0000000000000D+00  0.0000000000000D+00
323  3.2200000000000D+00  0.0000000000000D+00  0.0000000000000D+00
324  3.2300000000000D+00  0.0000000000000D+00  0.0000000000000D+00
325  3.2400000000000D+00  0.0000000000000D+00  0.0000000000000D+00
326  3.2500000000000D+00  0.0000000000000D+00  0.0000000000000D+00
327  3.2600000000000D+00  0.0000000000000D+00  0.0000000000000D+00
328  3.2700000000000D+00  0.0000000000000D+00  0.0000000000000D+00
329  3.2800000000000D+00  0.0000000000000D+00  0.0000000000000D+00
330  3.2900000000000D+00  0.0000000000000D+00  0.0000000000000D+00
331  3.3000000000000D+00  0.0000000000000D+00  0.0000000000000D+00
332  3.3100000000000D+00  0.0000000000000D+00  0.0000000000000D+00
333  3.3200000000000D+00  0.0000000000000D+00  0.0000000000000D+00
334  3.3300000000000D+00  0.0000000000000D+00  0.0000000000000D+00
335  3.3400000000000D+00  0.0000000000000D+00  0.0000000000000D+00
336  3.3500000000000D+00  0.0000000000000D+00  0.0000000000000D+00
337  3.3600000000000D+00  0.0000000000000D+00  0.0000000000000D+00
338  3.3700000000000D+00  0.0000000000000D+00  0.0000000000000D+00
339  3.3800000000000D+00  0.0000000000000D+00  0.0000000000000D+00
340  3.3900000000000D+00  0.0000000000000D+00  0.0000000000000D+00
341  3.4000000000000D+00  0.0000000000000D+00  0.0000000000000D+00
342  3.4100000000000D+00  0.0000000000000D+00  0.0000000000000D+00
343  3.4200000000000D+00  0.0000000000000D+00  0.0000000000000D+00
344  3.4300000000000D+00  0.0000000000000D+00  0.0000000000000D+00
345  3.4400000000000D+00  0.0000000000000D+00  0.0000000000000D+00
346  3.4500000000000D+00  0.0000000000000D+00  0.0000000000000D+00
347  3.4600000000000D+00  0.0000000000000D+00  0.0000000000000D+00
348  3.4700000000000D+00  0.0000000000000D+00  0.0000000000000D+00
349  3.4800000000000D+00  0.0000000000000D+00  0.0000000000000D+00
350  3.4900000000000D+00  0.0000000000000D+00  0.0000000000000D+00
351  3.5000000000000D+00  0.0000000000000D+00  0.0000000000000D+00
352  3.5100000000000D+00  0.0000000000000D+00  0.0000000000000D+00
353  3.5200000000000D+00  0.0000000000000D+00  0.0000000000000D+00
354  3.5300000000000D+00  0.0000000000000D+00  0.0000000000000D+00
355  3.5400000000000D+00  0.0000000000000D+00  0.0000000000000D+00
356  3.5500000000000D+00  0.0000000000000D+00  0.0000000000000D+00
357  3.5600000000000D+00  0.0000000000000D+00  0.0000000000000D+00
358  3.5700000000000D+00  0.0000000000000D+00  0.0000000000000D+00
359  3.5800000000000D+00  0.0000000000000D+00  0.0000000000000D+00
360  3.5900000000000D+00  0.0000000000000D+00  0.0000000000000D+00
361  3.6000000000000D+00  0.0000000000000D+00  0.0000000000000D+00
362  3.6100000000000D+00  0.0000000000000D+00  0.0000000000000D+00
363  3.6200000000000D+00  0.0000000000000D+00  0.0000000000000D+00
364  3.6300000000000D+00  0.0000000000000D+00  0.0000000000000D+00
365  3.6400000000000D+00  0.0000000000000D+00  0.0000000000000D+00
366  3.6500000000000D+00  0.0000000000000D+00  0.0000000000000D+00
367  3.6600000000000D+00  0.0000000000000D+00  0.0000000000000D+00
368  3.6700000000000D+00  0.0000000000000D+00  0.0000000000000D+00
369  3.6800000000000D+00  0.0000000000000D+00  0.0000000000000D+00
370  3.6900000000000D+00  0.0000000000000D+00  0.0000000000000D+00
371  3.7000000000000D+00  0.0000000000000D+00  0.0000000000000D+00
372  3.7100000000000D+00  0.0000000000000D+00  0.0000000000000D+00
373  3.7200000000000D+00  0.0000000000000D+00  0.0000000000000D+00
374  3.7300000000000D+00  0.0000000000000D+00  0.0000000000000D+00
375  3.7400000000000D+00  0.0000000000000D+00  0.0000000000000D+00
376  3.7500000000000D+00  0.0000000000000D+00  0.0000000000000D+00
377  3.7600000000000D+00  0.0000000000000D+00  0.0000000000000D+00
378  3.7700000000000D+00  0.0000000000000D+00  0.0000000000000D+00
379  3.7800000000000D+00  0.0000000000000D+00  0.0000000000000D+00
380  3.7900000000000D+00  0.0000000000000D+00  0.0000000000000D+00
381  3.8000000000000D+00  0.0000000000000D+00  0.0000000000000D+00
382  3.8100000000000D+00  0.0000000000000D+00  0.0000000000000D+00
383  3.8200000000000D+00  0.0000000000000D+00  0.0000000000000D+00
384  3.8300000000000D+00  0.0000000000000D+00  0.0000000000000D+00
385  3.8400000000000D+00  0.0000000000000D+00  0.0000000000000D+00
386  3.8500000000000D+00  0.0000000000000D+00  0.0000000000000D+00
387  3.8600000000000D+00  0.0000000000000D+00  0.0000000000000D+00
388  3.8700000000000D+00  0.0000000000000D+00  0.0000000000000D+00
389  3.8800000000000D+00  0.0000000000000D+00  0.0000000000000D+00
390  3.8900000000000D+00  0.0000000000000D+00  0.0000000000000D+00
391  3.9000000000000D+00  0.0000000000000D+00  0.0000000000000D+00
392  3.9100000000000D+00  0.0000000000000D+00  0.0000000000000D+00
393  3.9200000000000D+00  0.0000000000000D+00  0.0000000000000D+00
394  3.9300000000000D+00  0.0000000000000D+00  0.0000000000000D+00
395  3.9400000000000D+00  0.0000000000000D+00  0.0000000000000D+00
396  3.9500000000000D+00  0.0000000000000D+00  0.0000000000000D+00
397  3.9600000000000D+00  0.0000000000000D+00  0.0000000000000D+00
398  3.9700000000000D+00  0.0000000000000D+00  0.0000000000000D+00
399  3.9800000000000D+00  0.0000000000000D+00  0.0000000000000D+00
400  3.9900000000000D+00  0.0000000000000D+00  0.0000000000000D+00
401  4.0000000000000D+00  0.0000000000000D+00  0.0000000000000D+00
402  4.0100000000000D+00  0.0000000000000D+00  0.0000000000000D+00
403  4.0200000000000D+00  0.0000000000000D+00  0.0000000000000D+00
404  4.0300000000000D+00  0.0000000000000D+00  0.0000000000000D+00
405  4.0400000000000D+00  0.0000000000000D+00  0.0000000000000D+00
406  4.0500000000000D+00  0.0000000000000D+00  0.0000000000000D+00
407  4.0600000000000D+00  0.0000000000000D+00  0.0000000000000D+00
408  4.0700000000000D+00  0.0000000000000D+00  0.0000000000000D+00
409  4.0800000000000D+00  0.0000000000000D+00  0.0000000000000D+00
410  4.0900000000000D+00  0.0000000000000D+00  0.0000000000000D+00
411  4.1000000000000D+00  0.0000000000000D+00  0.0000000000000D+00
412  4.1100000000000D+00  0.0000000000000D+00  0.0000000000000D+00
413  4.1200000000000D+00  0.0000000000000D+00  0.0000000000000D+00
414  4.1300000000000D+00  0.0000000000000D+00  0.0000000000000D+00
415  4.1400000000000D+00  0.0000000000000D+00  0.0000000000000D+00
416  4.1500000000000D+00  0.0000000000000D+00  0.0000000000000D+00
417  4.1600000000000D+00  0.0000000000000D+00  0.0000000000000D+00
418  4.1700000000000D+00  0.0000000000000D+00  0.0000000000000D+00
419  4.1800000000000D+00  0.0000000000000D+00  0.0000000000000D+00
420  4.1900000000000D+00  0.0000000000000D+00  0.0000000000000D+00
421  4.2000000000000D+00  0.0000000000000D+00  0.0000000000000D+00
422  4.2100000000000D+00  0.0000000000000D+00  0.0000000000000D+00
423  4.2200000000000D+00  0.0000000000000D+00  0.0000000000000D+00
424  4.2300000000000D+00  0.0000000000000D+00  0.0000000000000D+00
425  4.2400000000000D+00  0.0000000000000D+00  0.0000000000000D+00
426  4.2500000000000D+00  0.0000000000000D+00  0.0000000000000D+00
427  4.2600000000000D+00  0.0000000000000D+00  0.0000000000000D+00
428  4.2700000000000D+00  0.0000000000000D+00  0.0000000000000D+00
429  4.2800000000000D+00  0.0000000000000D+00  0.0000000000000D+00
430  4.2900000000000D+00  0.0000000000000D+00  0.0000000000000D+00
431  4.3000000000000D+00  0.0000000000000D+00  0.0000000000000D+00
432  4.3100000000000D+00  0.0000000000000D+00  0.0000000000000D+00
433  4.3200000000000D+00  0.0000000000000D+00  0.0000000000000D+00
434  4.3300000000000D+00  0.0000000000000D+00  0.0000000000000D+00
435  4.3400000000000D+00  0.0000000000000D+00  0.0000000000000D+00
436  4.3500000000000D+00  0.0000000000000D+00  0.0000000000000D+00
437  4.3600000000000D+00  0.0000000000000D+00  0.0000000000000D+00
438  4.3700000000000D+00  0.0000000000000D+00  0.0000000000000D+00
439  4.3800000000000D+00  0.0000000000000D+00  0.0000000000000D+00
440  4.3900000000000D+00  0.0000000000000D+00  0.0000000000000D+00
441  4.4000000000000D+00  0.0000000000000D+00  0.0000000000000D+00
442  4.4100000000000D+00  0.0000000000000D+00  0.0000000000000D+00
443  4.4200000000000D+00  0.0000000000000D+00  0.0000000000000D+00
444  4.4300000000000D+00  0.0000000000000D+00  0.0000000000000D+00