Pb    ONCVPSP  r_core=  1.40  1.51  1.40
82.0000     22.0000      161002    zatom,zion,pspd
8      11   2     4   600     0    pspcod,pspxc,lmax,lloc,mmax,r2well
5.99000000  6.00000000  0.00000000    rchrg fchrg qchrg
2     2     2     0     0    nproj
1                 extension_switch
0                         1.6683981216281D+01  2.1388743433370D+00
1  0.0000000000000D+00 -6.8478411829886D-10  1.9947165030842D-09
2  1.0000000000000D-02  8.3257044258124D-02 -2.6307416859088D-02
3  2.0000000000000D-02  1.6628632083407D-01 -5.2363494192100D-02
4  3.0000000000000D-02  2.4886114432153D-01 -7.7919262689124D-02
5  4.0000000000000D-02  3.3075698237158D-01 -1.0273046042510D-01
6  5.0000000000000D-02  4.1175250366341D-01 -1.2655980445177D-01
7  6.0000000000000D-02  4.9163059210144D-01 -1.4917916531207D-01
8  7.0000000000000D-02  5.7017931679925D-01 -1.7037161449962D-01
9  8.0000000000000D-02  6.4719284809516D-01 -1.8993331688037D-01
10  9.0000000000000D-02  7.2247231068060D-01 -2.0767524252965D-01
11  1.0000000000000D-01  7.9582656589534D-01 -2.2342467527772D-01
12  1.1000000000000D-01  8.6707291633970D-01 -2.3702649845694D-01
13  1.2000000000000D-01  9.3603772715498D-01 -2.4834424185584D-01
14  1.3000000000000D-01  1.0025569596101D+00 -2.5726087765418D-01
15  1.4000000000000D-01  1.0664766139851D+00 -2.6367935708101D-01
16  1.5000000000000D-01  1.1276530801394D+00 -2.6752288364346D-01
17  1.6000000000000D-01  1.1859533955683D+00 -2.6873492295259D-01
18  1.7000000000000D-01  1.2412554121718D+00 -2.6727895335901D-01
19  1.8000000000000D-01  1.2934478743465D+00 -2.6313796573851D-01
20  1.9000000000000D-01  1.3424304123588D+00 -2.5631372477189D-01
21  2.0000000000000D-01  1.3881134562309D+00 -2.4682580787700D-01
22  2.1000000000000D-01  1.4304180765513D+00 -2.3471044151497D-01
23  2.2000000000000D-01  1.4692757596964D+00 -2.2001915784636D-01
24  2.3000000000000D-01  1.5046281258842D+00 -2.0281729760256D-01
25  2.4000000000000D-01  1.5364265992800D+00 -1.8318238751387D-01
26  2.5000000000000D-01  1.5646320399996D+00 -1.6120242265456D-01
27  2.6000000000000D-01  1.5892143483150D+00 -1.3697408559006D-01
28  2.7000000000000D-01  1.6101520516421D+00 -1.1060093521312D-01
29  2.8000000000000D-01  1.6274318849676D+00 -8.2191598611860D-02
30  2.9000000000000D-01  1.6410483752668D+00 -5.1857999210467D-02
31  3.0000000000000D-01  1.6510034401542D+00 -1.9713653757904D-02
32  3.1000000000000D-01  1.6573060105119D+00  1.4127930484992D-02
33  3.2000000000000D-01  1.6599716861562D+00  4.9554728780090D-02
34  3.3000000000000D-01  1.6590224327412D+00  8.6457514883841D-02
35  3.4000000000000D-01  1.6544863270700D+00  1.2473099546044D-01
36  3.5000000000000D-01  1.6463973568093D+00  1.6427474168423D-01
37  3.6000000000000D-01  1.6347952792871D+00  2.0499390043061D-01
38  3.7000000000000D-01  1.6197255426384D+00  2.4679967146009D-01
39  3.8000000000000D-01  1.6012392710434D+00  2.8960954129852D-01
40  3.9000000000000D-01  1.5793933142315D+00  3.3334726904115D-01
41  4.0000000000000D-01  1.5542503598019D+00  3.7794262398842D-01
42  4.1000000000000D-01  1.5258791052889D+00  4.2333087978079D-01
43  4.2000000000000D-01  1.4943544852834D+00  4.6945207446191D-01
44  4.3000000000000D-01  1.4597579473571D+00  5.1625005058335D-01
45  4.4000000000000D-01  1.4221777690449D+00  5.6367129399067D-01
46  4.5000000000000D-01  1.3817094067481D+00  6.1166359422169D-01
47  4.6000000000000D-01  1.3384558661589D+00  6.6017455342484D-01
48  4.7000000000000D-01  1.2925280827013D+00  7.0914997429735D-01
49  4.8000000000000D-01  1.2440452995533D+00  7.5853216068030D-01
50  4.9000000000000D-01  1.1931354300863D+00  8.0825816706740D-01
51  5.0000000000000D-01  1.1399353910469D+00  8.5825803533293D-01
52  5.1000000000000D-01  1.0845913925286D+00  9.0845305841116D-01
53  5.2000000000000D-01  1.0272591707521D+00  9.5875411143091D-01
54  5.3000000000000D-01  9.6810414989212D-01  1.0090600908920D+00
55  5.4000000000000D-01  9.0730151967598D-01  1.0592565018486D+00
56  5.5000000000000D-01  8.4503621621393D-01  1.1092142317364D+00
57  5.6000000000000D-01  7.8150279452265D-01  1.1587885474350D+00
58  5.7000000000000D-01  7.1690518243965D-01  1.2078183494400D+00
59  5.8000000000000D-01  6.5145630710796D-01  1.2561257136130D+00
60  5.9000000000000D-01  5.8537758689583D-01  1.3035157469854D+00
61  6.0000000000000D-01  5.1889828351361D-01  1.3497767794801D+00
62  6.1000000000000D-01  4.5225471113898D-01  1.3946809083476D+00
63  6.2000000000000D-01  3.8568930157490D-01  1.4379849065504D+00
64  6.3000000000000D-01  3.1944952677070D-01  1.4794315004480D+00
65  6.4000000000000D-01  2.5378668243018D-01  1.5187510159635D+00
66  6.5000000000000D-01  1.8895453886760D-01  1.5556633860491D+00
67  6.6000000000000D-01  1.2520786769842D-01  1.5898805058629D+00
68  6.7000000000000D-01  6.2800855357398D-02  1.6211089156463D+00
69  6.8000000000000D-01  1.9854167571428D-03  1.6490527850181D+00
70  6.9000000000000D-01 -5.6990575394429D-02  1.6734171663633D+00
71  7.0000000000000D-01 -1.1388512805136D-01  1.6939114792988D+00
72  7.1000000000000D-01 -1.6846401262949D-01  1.7102531829156D+00
73  7.2000000000000D-01 -2.2050267609347D-01  1.7221715877899D+00
74  7.3000000000000D-01 -2.6978815590339D-01  1.7294117556474D+00
75  7.4000000000000D-01 -3.1612097531796D-01  1.7317384311810D+00
76  7.5000000000000D-01 -3.5931699478829D-01  1.7289399479159D+00
77  7.6000000000000D-01 -3.9920919475457D-01  1.7208320482487D+00
78  7.7000000000000D-01 -4.3564936509158D-01  1.7072615569299D+00
79  7.8000000000000D-01 -4.6850967674779D-01  1.6881098473192D+00
80  7.9000000000000D-01 -4.9768411179568D-01  1.6632960407610D+00
81  8.0000000000000D-01 -5.2308972915709D-01  1.6327798814128D+00
82  8.1000000000000D-01 -5.4466774468097D-01  1.5965642317897D+00
83  8.2000000000000D-01 -5.6238440602172D-01  1.5546971381577D+00
84  8.3000000000000D-01 -5.7623164487554D-01  1.5072734196680D+00
85  8.4000000000000D-01 -5.8622749155927D-01  1.4544357407251D+00
86  8.5000000000000D-01 -5.9241623962792D-01  1.3963751324502D+00
87  8.6000000000000D-01 -5.9486835119614D-01  1.3333309361651D+00
88  8.7000000000000D-01 -5.9368009681502D-01  1.2655901494868D+00
89  8.8000000000000D-01 -5.8897292710592D-01  1.1934861637549D+00
90  8.9000000000000D-01 -5.8089257684169D-01  1.1173968900503D+00
91  9.0000000000000D-01 -5.6960790572392D-01  1.0377422798264D+00
92  9.1000000000000D-01 -5.5530948369106D-01  9.5498125506904D-01
93  9.2000000000000D-01 -5.3820793215117D-01  8.6960807177085D-01
94  9.3000000000000D-01 -5.1853203601040D-01  7.8214814923018D-01
95  9.4000000000000D-01 -4.9652664471081D-01  6.9315340610937D-01
96  9.5000000000000D-01 -4.7245038364599D-01  6.0319715219061D-01
97  9.6000000000000D-01 -4.4657320023903D-01  5.1286859220757D-01
98  9.7000000000000D-01 -4.1917377159742D-01  4.2276700488824D-01
99  9.8000000000000D-01 -3.9053680295648D-01  3.3349566629688D-01
100  9.9000000000000D-01 -3.6095024805701D-01  2.4565559163088D-01
101  1.0000000000000D+00 -3.3070248410152D-01  1.5983917361873D-01
102  1.0100000000000D+00 -3.0007947503846D-01  7.6623798686055D-02
103  1.0200000000000D+00 -2.6936195754175D-01 -3.4344761304916D-03
104  1.0300000000000D+00 -2.3882268418662D-01 -7.9807101948762D-02
105  1.0400000000000D+00 -2.0872375799560D-01 -1.5199898946979D-01
106  1.0500000000000D+00 -1.7931409166176D-01 -2.1955415196506D-01
107  1.0600000000000D+00 -1.5082702345901D-01 -2.8206096172818D-01
108  1.0700000000000D+00 -1.2347812012517D-01 -3.3915694598207D-01
109  1.0800000000000D+00 -9.7463194619160D-02 -3.9053305397996D-01
110  1.0900000000000D+00 -7.2956564128185D-02 -4.3593733317832D-01
111  1.1000000000000D+00 -5.0109570404408D-02 -4.7517796042870D-01
112  1.1100000000000D+00 -2.9049381480201D-02 -5.0812558158468D-01
113  1.1200000000000D+00 -9.8780897904598D-03 -5.3471492284170D-01
114  1.1300000000000D+00  7.3278822004195D-03 -5.5494564686840D-01
115  1.1400000000000D+00  2.2518062039161D-02 -5.6888243739360D-01
116  1.1500000000000D+00  3.5667890156645D-02 -5.7665430584697D-01
117  1.1600000000000D+00  4.6778367237551D-02 -5.7845312486438D-01
118  1.1700000000000D+00  5.5875392486426D-02 -5.7453140529938D-01
119  1.1800000000000D+00  6.3008803539709D-02 -5.6519934426226D-01
120  1.1900000000000D+00  6.8251132018074D-02 -5.5082117982494D-01
121  1.2000000000000D+00  7.1696094108648D-02 -5.3181090154605D-01
122  1.2100000000000D+00  7.3456838867343D-02 -5.0862737425073D-01
123  1.2200000000000D+00  7.3663980254076D-02 -4.8176894082860D-01
124  1.2300000000000D+00  7.2463441834283D-02 -4.5176757714152D-01
125  1.2400000000000D+00  7.0014146978553D-02 -4.1918268191149D-01
126  1.2500000000000D+00  6.6485588695102D-02 -3.8459458770865D-01
127  1.2600000000000D+00  6.2055314905803D-02 -3.4859788338105D-01
128  1.2700000000000D+00  5.6906371421328D-02 -3.1179465598502D-01
129  1.2800000000000D+00  5.1224735941664D-02 -2.7478773339099D-01
130  1.2900000000000D+00  4.5196707532284D-02 -2.3817381405678D-01
131  1.3000000000000D+00  3.9006493592636D-02 -2.0253715756034D-01
132  1.3100000000000D+00  3.2834347509068D-02 -1.6844489146339D-01
133  1.3200000000000D+00  2.6851512372054D-02 -1.3643288405554D-01
134  1.3300000000000D+00  2.1215286050683D-02 -1.0699208953411D-01
135  1.3400000000000D+00  1.6063823070826D-02 -8.0554277735269D-02
136  1.3500000000000D+00  1.1514039431376D-02 -5.7486825461175D-02
137  1.3600000000000D+00  7.6626734189759D-03 -3.8101482268997D-02
138  1.3700000000000D+00  4.5717417338242D-03 -2.2587012325569D-02
139  1.3800000000000D+00  2.2783838885839D-03 -1.1063170010555D-02
140  1.3900000000000D+00  8.8526713354222D-04 -3.9920659845216D-03
141  1.4000000000000D+00  2.7408455525214D-04 -8.7681678185849D-04
142  1.4100000000000D+00  5.8707453585350D-05 -9.9173571764357D-06
143  1.4200000000000D+00 -6.3685632507125D-07 -2.6513146588550D-06
144  1.4300000000000D+00 -2.2496006018741D-06 -3.3279040453459D-05
145  1.4400000000000D+00  1.0482485135613D-06  2.4042783439942D-06
146  1.4500000000000D+00  7.9856626894733D-07  2.8781776099466D-06
147  1.4600000000000D+00 -5.0957830751010D-07  1.3025101004056D-06
148  1.4700000000000D+00 -1.2191775605472D-07  3.1162847071725D-07
149  1.4800000000000D+00  0.0000000000000D+00  0.0000000000000D+00
150  1.4900000000000D+00  0.0000000000000D+00  0.0000000000000D+00
151  1.5000000000000D+00  0.0000000000000D+00  0.0000000000000D+00
152  1.5100000000000D+00  0.0000000000000D+00  0.0000000000000D+00
153  1.5200000000000D+00  0.0000000000000D+00  0.0000000000000D+00
154  1.5300000000000D+00  0.0000000000000D+00  0.0000000000000D+00
155  1.5400000000000D+00  0.0000000000000D+00  0.0000000000000D+00
156  1.5500000000000D+00  0.0000000000000D+00  0.0000000000000D+00
157  1.5600000000000D+00  0.0000000000000D+00  0.0000000000000D+00
158  1.5700000000000D+00  0.0000000000000D+00  0.0000000000000D+00
159  1.5800000000000D+00  0.0000000000000D+00  0.0000000000000D+00
160  1.5900000000000D+00  0.0000000000000D+00  0.0000000000000D+00
161  1.6000000000000D+00  0.0000000000000D+00  0.0000000000000D+00
162  1.6100000000000D+00  0.0000000000000D+00  0.0000000000000D+00
163  1.6200000000000D+00  0.0000000000000D+00  0.0000000000000D+00
164  1.6300000000000D+00  0.0000000000000D+00  0.0000000000000D+00
165  1.6400000000000D+00  0.0000000000000D+00  0.0000000000000D+00
166  1.6500000000000D+00  0.0000000000000D+00  0.0000000000000D+00
167  1.6600000000000D+00  0.0000000000000D+00  0.0000000000000D+00
168  1.6700000000000D+00  0.0000000000000D+00  0.0000000000000D+00
169  1.6800000000000D+00  0.0000000000000D+00  0.0000000000000D+00
170  1.6900000000000D+00  0.0000000000000D+00  0.0000000000000D+00
171  1.7000000000000D+00  0.0000000000000D+00  0.0000000000000D+00
172  1.7100000000000D+00  0.0000000000000D+00  0.0000000000000D+00
173  1.7200000000000D+00  0.0000000000000D+00  0.0000000000000D+00
174  1.7300000000000D+00  0.0000000000000D+00  0.0000000000000D+00
175  1.7400000000000D+00  0.0000000000000D+00  0.0000000000000D+00
176  1.7500000000000D+00  0.0000000000000D+00  0.0000000000000D+00
177  1.7600000000000D+00  0.0000000000000D+00  0.0000000000000D+00
178  1.7700000000000D+00  0.0000000000000D+00  0.0000000000000D+00
179  1.7800000000000D+00  0.0000000000000D+00  0.0000000000000D+00
180  1.7900000000000D+00  0.0000000000000D+00  0.0000000000000D+00
181  1.8000000000000D+00  0.0000000000000D+00  0.0000000000000D+00
182  1.8100000000000D+00  0.0000000000000D+00  0.0000000000000D+00
183  1.8200000000000D+00  0.0000000000000D+00  0.0000000000000D+00
184  1.8300000000000D+00  0.0000000000000D+00  0.0000000000000D+00
185  1.8400000000000D+00  0.0000000000000D+00  0.0000000000000D+00
186  1.8500000000000D+00  0.0000000000000D+00  0.0000000000000D+00
187  1.8600000000000D+00  0.0000000000000D+00  0.0000000000000D+00
188  1.8700000000000D+00  0.0000000000000D+00  0.0000000000000D+00
189  1.8800000000000D+00  0.0000000000000D+00  0.0000000000000D+00
190  1.8900000000000D+00  0.0000000000000D+00  0.0000000000000D+00
191  1.9000000000000D+00  0.0000000000000D+00  0.0000000000000D+00
192  1.9100000000000D+00  0.0000000000000D+00  0.0000000000000D+00
193  1.9200000000000D+00  0.0000000000000D+00  0.0000000000000D+00
194  1.9300000000000D+00  0.0000000000000D+00  0.0000000000000D+00
195  1.9400000000000D+00  0.0000000000000D+00  0.0000000000000D+00
196  1.9500000000000D+00  0.0000000000000D+00  0.0000000000000D+00
197  1.9600000000000D+00  0.0000000000000D+00  0.0000000000000D+00
198  1.9700000000000D+00  0.0000000000000D+00  0.0000000000000D+00
199  1.9800000000000D+00  0.0000000000000D+00  0.0000000000000D+00
200  1.9900000000000D+00  0.0000000000000D+00  0.0000000000000D+00
201  2.0000000000000D+00  0.0000000000000D+00  0.0000000000000D+00
202  2.0100000000000D+00  0.0000000000000D+00  0.0000000000000D+00
203  2.0200000000000D+00  0.0000000000000D+00  0.0000000000000D+00
204  2.0300000000000D+00  0.0000000000000D+00  0.0000000000000D+00
205  2.0400000000000D+00  0.0000000000000D+00  0.0000000000000D+00
206  2.0500000000000D+00  0.0000000000000D+00  0.0000000000000D+00
207  2.0600000000000D+00  0.0000000000000D+00  0.0000000000000D+00
208  2.0700000000000D+00  0.0000000000000D+00  0.0000000000000D+00
209  2.0800000000000D+00  0.0000000000000D+00  0.0000000000000D+00
210  2.0900000000000D+00  0.0000000000000D+00  0.0000000000000D+00
211  2.1000000000000D+00  0.0000000000000D+00  0.0000000000000D+00
212  2.1100000000000D+00  0.0000000000000D+00  0.0000000000000D+00
213  2.1200000000000D+00  0.0000000000000D+00  0.0000000000000D+00
214  2.1300000000000D+00  0.0000000000000D+00  0.0000000000000D+00
215  2.1400000000000D+00  0.0000000000000D+00  0.0000000000000D+00
216  2.1500000000000D+00  0.0000000000000D+00  0.0000000000000D+00
217  2.1600000000000D+00  0.0000000000000D+00  0.0000000000000D+00
218  2.1700000000000D+00  0.0000000000000D+00  0.0000000000000D+00
219  2.1800000000000D+00  0.0000000000000D+00  0.0000000000000D+00
220  2.1900000000000D+00  0.0000000000000D+00  0.0000000000000D+00
221  2.2000000000000D+00  0.0000000000000D+00  0.0000000000000D+00
222  2.2100000000000D+00  0.0000000000000D+00  0.0000000000000D+00
223  2.2200000000000D+00  0.0000000000000D+00  0.0000000000000D+00
224  2.2300000000000D+00  0.0000000000000D+00  0.0000000000000D+00
225  2.2400000000000D+00  0.0000000000000D+00  0.0000000000000D+00
226  2.2500000000000D+00  0.0000000000000D+00  0.0000000000000D+00
227  2.2600000000000D+00  0.0000000000000D+00  0.0000000000000D+00
228  2.2700000000000D+00  0.0000000000000D+00  0.0000000000000D+00
229  2.2800000000000D+00  0.0000000000000D+00  0.0000000000000D+00
230  2.2900000000000D+00  0.0000000000000D+00  0.0000000000000D+00
231  2.3000000000000D+00  0.0000000000000D+00  0.0000000000000D+00
232  2.3100000000000D+00  0.0000000000000D+00  0.0000000000000D+00
233  2.3200000000000D+00  0.0000000000000D+00  0.0000000000000D+00
234  2.3300000000000D+00  0.0000000000000D+00  0.0000000000000D+00
235  2.3400000000000D+00  0.0000000000000D+00  0.0000000000000D+00
236  2.3500000000000D+00  0.0000000000000D+00  0.0000000000000D+00
237  2.3600000000000D+00  0.0000000000000D+00  0.0000000000000D+00
238  2.3700000000000D+00  0.0000000000000D+00  0.0000000000000D+00
239  2.3800000000000D+00  0.0000000000000D+00  0.0000000000000D+00
240  2.3900000000000D+00  0.0000000000000D+00  0.0000000000000D+00
241  2.4000000000000D+00  0.0000000000000D+00  0.0000000000000D+00
242  2.4100000000000D+00  0.0000000000000D+00  0.0000000000000D+00
243  2.4200000000000D+00  0.0000000000000D+00  0.0000000000000D+00
244  2.4300000000000D+00  0.0000000000000D+00  0.0000000000000D+00
245  2.4400000000000D+00  0.0000000000000D+00  0.0000000000000D+00
246  2.4500000000000D+00  0.0000000000000D+00  0.0000000000000D+00
247  2.4600000000000D+00  0.0000000000000D+00  0.0000000000000D+00
248  2.4700000000000D+00  0.0000000000000D+00  0.0000000000000D+00
249  2.4800000000000D+00  0.0000000000000D+00  0.0000000000000D+00
250  2.4900000000000D+00  0.0000000000000D+00  0.0000000000000D+00
251  2.5000000000000D+00  0.0000000000000D+00  0.0000000000000D+00
252  2.5100000000000D+00  0.0000000000000D+00  0.0000000000000D+00
253  2.5200000000000D+00  0.0000000000000D+00  0.0000000000000D+00
254  2.5300000000000D+00  0.0000000000000D+00  0.0000000000000D+00
255  2.5400000000000D+00  0.0000000000000D+00  0.0000000000000D+00
256  2.5500000000000D+00  0.0000000000000D+00  0.0000000000000D+00
257  2.5600000000000D+00  0.0000000000000D+00  0.0000000000000D+00
258  2.5700000000000D+00  0.0000000000000D+00  0.0000000000000D+00
259  2.5800000000000D+00  0.0000000000000D+00  0.0000000000000D+00
260  2.5900000000000D+00  0.0000000000000D+00  0.0000000000000D+00
261  2.6000000000000D+00  0.0000000000000D+00  0.0000000000000D+00
262  2.6100000000000D+00  0.0000000000000D+00  0.0000000000000D+00
263  2.6200000000000D+00  0.0000000000000D+00  0.0000000000000D+00
264  2.6300000000000D+00  0.0000000000000D+00  0.0000000000000D+00
265  2.6400000000000D+00  0.0000000000000D+00  0.0000000000000D+00
266  2.6500000000000D+00  0.0000000000000D+00  0.0000000000000D+00
267  2.6600000000000D+00  0.0000000000000D+00  0.0000000000000D+00
268  2.6700000000000D+00  0.0000000000000D+00  0.0000000000000D+00
269  2.6800000000000D+00  0.0000000000000D+00  0.0000000000000D+00
270  2.6900000000000D+00  0.0000000000000D+00  0.0000000000000D+00
271  2.7000000000000D+00  0.0000000000000D+00  0.0000000000000D+00
272  2.7100000000000D+00  0.0000000000000D+00  0.0000000000000D+00
273  2.7200000000000D+00  0.0000000000000D+00  0.0000000000000D+00
274  2.7300000000000D+00  0.0000000000000D+00  0.0000000000000D+00
275  2.7400000000000D+00  0.0000000000000D+00  0.0000000000000D+00
276  2.7500000000000D+00  0.0000000000000D+00  0.0000000000000D+00
277  2.7600000000000D+00  0.0000000000000D+00  0.0000000000000D+00
278  2.7700000000000D+00  0.0000000000000D+00  0.0000000000000D+00
279  2.7800000000000D+00  0.0000000000000D+00  0.0000000000000D+00
280  2.7900000000000D+00  0.0000000000000D+00  0.0000000000000D+00
281  2.8000000000000D+00  0.0000000000000D+00  0.0000000000000D+00
282  2.8100000000000D+00  0.0000000000000D+00  0.0000000000000D+00
283  2.8200000000000D+00  0.0000000000000D+00  0.0000000000000D+00
284  2.8300000000000D+00  0.0000000000000D+00  0.0000000000000D+00
285  2.8400000000000D+00  0.0000000000000D+00  0.0000000000000D+00
286  2.8500000000000D+00  0.0000000000000D+00  0.0000000000000D+00
287  2.8600000000000D+00  0.0000000000000D+00  0.0000000000000D+00
288  2.8700000000000D+00  0.0000000000000D+00  0.0000000000000D+00
289  2.8800000000000D+00  0.0000000000000D+00  0.0000000000000D+00
290  2.8900000000000D+00  0.0000000000000D+00  0.0000000000000D+00
291  2.9000000000000D+00  0.0000000000000D+00  0.0000000000000D+00
292  2.9100000000000D+00  0.0000000000000D+00  0.0000000000000D+00
293  2.9200000000000D+00  0.0000000000000D+00  0.0000000000000D+00
294  2.9300000000000D+00  0.0000000000000D+00  0.0000000000000D+00
295  2.9400000000000D+00  0.0000000000000D+00  0.0000000000000D+00
296  2.9500000000000D+00  0.0000000000000D+00  0.0000000000000D+00
297  2.9600000000000D+00  0.0000000000000D+00  0.0000000000000D+00
298  2.9700000000000D+00  0.0000000000000D+00  0.0000000000000D+00
299  2.9800000000000D+00  0.0000000000000D+00  0.0000000000000D+00
300  2.9900000000000D+00  0.0000000000000D+00  0.0000000000000D+00
301  3.0000000000000D+00  0.0000000000000D+00  0.0000000000000D+00
302  3.0100000000000D+00  0.0000000000000D+00  0.0000000000000D+00
303  3.0200000000000D+00  0.0000000000000D+00  0.0000000000000D+00
304  3.0300000000000D+00  0.0000000000000D+00  0.0000000000000D+00
305  3.0400000000000D+00  0.0000000000000D+00  0.0000000000000D+00
306  3.0500000000000D+00  0.0000000000000D+00  0.0000000000000D+00
307  3.0600000000000D+00  0.0000000000000D+00  0.0000000000000D+00
308  3.0700000000000D+00  0.0000000000000D+00  0.0000000000000D+00
309  3.0800000000000D+00  0.0000000000000D+00  0.0000000000000D+00
310  3.0900000000000D+00  0.0000000000000D+00  0.0000000000000D+00
311  3.1000000000000D+00  0.0000000000000D+00  0.0000000000000D+00
312  3.1100000000000D+00  0.0000000000000D+00  0.0000000000000D+00
313  3.1200000000000D+00  0.0000000000000D+00  0.0000000000000D+00
314  3.1300000000000D+00  0.0000000000000D+00  0.0000000000000D+00
315  3.1400000000000D+00  0.0000000000000D+00  0.0000000000000D+00
316  3.1500000000000D+00  0.0000000000000D+00  0.0000000000000D+00
317  3.1600000000000D+00  0.0000000000000D+00  0.0000000000000D+00
318  3.1700000000000D+00  0.0000000000000D+00  0.0000000000000D+00
319  3.1800000000000D+00  0.0000000000000D+00  0.0000000000000D+00
320  3.1900000000000D+00  0.0000000000000D+00  0.0000000000000D+00
321  3.2000000000000D+00  0.0000000000000D+00  0.0000000000000D+00
322  3.2100000000000D+00  0.0000000000000D+00  0.0000000000000D+00
323  3.2200000000000D+00  0.0000000000000D+00  0.0000000000000D+00
324  3.2300000000000D+00  0.0000000000000D+00  0.0000000000000D+00
325  3.2400000000000D+00  0.0000000000000D+00  0.0000000000000D+00
326  3.2500000000000D+00  0.0000000000000D+00  0.0000000000000D+00
327  3.2600000000000D+00  0.0000000000000D+00  0.0000000000000D+00
328  3.2700000000000D+00  0.0000000000000D+00  0.0000000000000D+00
329  3.2800000000000D+00  0.0000000000000D+00  0.0000000000000D+00
330  3.2900000000000D+00  0.0000000000000D+00  0.0000000000000D+00
331  3.3000000000000D+00  0.0000000000000D+00  0.0000000000000D+00
332  3.3100000000000D+00  0.0000000000000D+00  0.0000000000000D+00
333  3.3200000000000D+00  0.0000000000000D+00  0.0000000000000D+00
334  3.3300000000000D+00  0.0000000000000D+00  0.0000000000000D+00
335  3.3400000000000D+00  0.0000000000000D+00  0.0000000000000D+00
336  3.3500000000000D+00  0.0000000000000D+00  0.0000000000000D+00
337  3.3600000000000D+00  0.0000000000000D+00  0.0000000000000D+00
338  3.3700000000000D+00  0.0000000000000D+00  0.0000000000000D+00
339  3.3800000000000D+00  0.0000000000000D+00  0.0000000000000D+00
340  3.3900000000000D+00  0.0000000000000D+00  0.0000000000000D+00
341  3.4000000000000D+00  0.0000000000000D+00  0.0000000000000D+00
342  3.4100000000000D+00  0.0000000000000D+00  0.0000000000000D+00
343  3.4200000000000D+00  0.0000000000000D+00  0.0000000000000D+00
344  3.4300000000000D+00  0.0000000000000D+00  0.0000000000000D+00
345  3.4400000000000D+00  0.0000000000000D+00  0.0000000000000D+00
346  3.4500000000000D+00  0.0000000000000D+00  0.0000000000000D+00
347  3.4600000000000D+00  0.0000000000000D+00  0.0000000000000D+00
348  3.4700000000000D+00  0.0000000000000D+00  0.0000000000000D+00
349  3.4800000000000D+00  0.0000000000000D+00  0.0000000000000D+00
350  3.4900000000000D+00  0.0000000000000D+00  0.0000000000000D+00
351  3.5000000000000D+00  0.0000000000000D+00  0.0000000000000D+00
352  3.5100000000000D+00  0.0000000000000D+00  0.0000000000000D+00
353  3.5200000000000D+00  0.0000000000000D+00  0.0000000000000D+00
354  3.5300000000000D+00  0.0000000000000D+00  0.0000000000000D+00
355  3.5400000000000D+00  0.0000000000000D+00  0.0000000000000D+00
356  3.5500000000000D+00  0.0000000000000D+00  0.0000000000000D+00
357  3.5600000000000D+00  0.0000000000000D+00  0.0000000000000D+00
358  3.5700000000000D+00  0.0000000000000D+00  0.0000000000000D+00
359  3.5800000000000D+00  0.0000000000000D+00  0.0000000000000D+00
360  3.5900000000000D+00  0.0000000000000D+00  0.0000000000000D+00
361  3.6000000000000D+00  0.0000000000000D+00  0.0000000000000D+00
362  3.6100000000000D+00  0.0000000000000D+00  0.0000000000000D+00
363  3.6200000000000D+00  0.0000000000000D+00  0.0000000000000D+00
364  3.6300000000000D+00  0.0000000000000D+00  0.0000000000000D+00
365  3.6400000000000D+00  0.0000000000000D+00  0.0000000000000D+00
366  3.6500000000000D+00  0.0000000000000D+00  0.0000000000000D+00
367  3.6600000000000D+00  0.0000000000000D+00  0.0000000000000D+00
368  3.6700000000000D+00  0.0000000000000D+00  0.0000000000000D+00
369  3.6800000000000D+00  0.0000000000000D+00  0.0000000000000D+00
370  3.6900000000000D+00  0.0000000000000D+00  0.0000000000000D+00
371  3.7000000000000D+00  0.0000000000000D+00  0.0000000000000D+00
372  3.7100000000000D+00  0.0000000000000D+00  0.0000000000000D+00
373  3.7200000000000D+00  0.0000000000000D+00  0.0000000000000D+00
374  3.7300000000000D+00  0.0000000000000D+00  0.0000000000000D+00
375  3.7400000000000D+00  0.0000000000000D+00  0.0000000000000D+00
376  3.7500000000000D+00  0.0000000000000D+00  0.0000000000000D+00
377  3.7600000000000D+00  0.0000000000000D+00  0.0000000000000D+00
378  3.7700000000000D+00  0.0000000000000D+00  0.0000000000000D+00
379  3.7800000000000D+00  0.0000000000000D+00  0.0000000000000D+00
380  3.7900000000000D+00  0.0000000000000D+00  0.0000000000000D+00
381  3.8000000000000D+00  0.0000000000000D+00  0.0000000000000D+00
382  3.8100000000000D+00  0.0000000000000D+00  0.0000000000000D+00
383  3.8200000000000D+00  0.0000000000000D+00  0.0000000000000D+00
384  3.8300000000000D+00  0.0000000000000D+00  0.0000000000000D+00
385  3.8400000000000D+00  0.0000000000000D+00  0.0000000000000D+00
386  3.8500000000000D+00  0.0000000000000D+00  0.0000000000000D+00
387  3.8600000000000D+00  0.0000000000000D+00  0.0000000000000D+00
388  3.8700000000000D+00  0.0000000000000D+00  0.0000000000000D+00
389  3.8800000000000D+00  0.0000000000000D+00  0.0000000000000D+00
390  3.8900000000000D+00  0.0000000000000D+00  0.0000000000000D+00
391  3.9000000000000D+00  0.0000000000000D+00  0.0000000000000D+00
392  3.9100000000000D+00  0.0000000000000D+00  0.0000000000000D+00
393  3.9200000000000D+00  0.0000000000000D+00  0.0000000000000D+00
394  3.9300000000000D+00  0.0000000000000D+00  0.0000000000000D+00
395  3.9400000000000D+00  0.0000000000000D+00  0.0000000000000D+00
396  3.9500000000000D+00  0.0000000000000D+00  0.0000000000000D+00
397  3.9600000000000D+00  0.0000000000000D+00  0.0000000000000D+00
398  3.9700000000000D+00  0.0000000000000D+00  0.0000000000000D+00
399  3.9800000000000D+00  0.0000000000000D+00  0.0000000000000D+00
400  3.9900000000000D+00  0.0000000000000D+00  0.0000000000000D+00
401  4.0000000000000D+00  0.0000000000000D+00  0.0000000000000D+00
402  4.0100000000000D+00  0.0000000000000D+00  0.0000000000000D+00
403  4.0200000000000D+00  0.0000000000000D+00  0.0000000000000D+00
404  4.0300000000000D+00  0.0000000000000D+00  0.0000000000000D+00
405  4.0400000000000D+00  0.0000000000000D+00  0.0000000000000D+00
406  4.0500000000000D+00  0.0000000000000D+00  0.0000000000000D+00
407  4.0600000000000D+00  0.0000000000000D+00  0.0000000000000D+00
408  4.0700000000000D+00  0.0000000000000D+00  0.0000000000000D+00
409  4.0800000000000D+00  0.0000000000000D+00  0.0000000000000D+00
410  4.0900000000000D+00  0.0000000000000D+00  0.0000000000000D+00
411  4.1000000000000D+00  0.0000000000000D+00  0.0000000000000D+00
412  4.1100000000000D+00  0.0000000000000D+00  0.0000000000000D+00
413  4.1200000000000D+00  0.0000000000000D+00  0.0000000000000D+00
414  4.1300000000000D+00  0.0000000000000D+00  0.0000000000000D+00
415  4.1400000000000D+00  0.0000000000000D+00  0.0000000000000D+00
416  4.1500000000000D+00  0.0000000000000D+00  0.0000000000000D+00
417  4.1600000000000D+00  0.0000000000000D+00  0.0000000000000D+00
418  4.1700000000000D+00  0.0000000000000D+00  0.0000000000000D+00
419  4.1800000000000D+00  0.0000000000000D+00  0.0000000000000D+00
420  4.1900000000000D+00  0.0000000000000D+00  0.0000000000000D+00
421  4.2000000000000D+00  0.0000000000000D+00  0.0000000000000D+00
422  4.2100000000000D+00  0.0000000000000D+00  0.0000000000000D+00
423  4.2200000000000D+00  0.0000000000000D+00  0.0000000000000D+00
424  4.2300000000000D+00  0.0000000000000D+00  0.0000000000000D+00
425  4.2400000000000D+00  0.0000000000000D+00  0.0000000000000D+00
426  4.2500000000000D+00  0.0000000000000D+00  0.0000000000000D+00
427  4.2600000000000D+00  0.0000000000000D+00  0.0000000000000D+00
428  4.2700000000000D+00  0.0000000000000D+00  0.0000000000000D+00
429  4.2800000000000D+00  0.0000000000000D+00  0.0000000000000D+00
430  4.2900000000000D+00  0.0000000000000D+00  0.0000000000000D+00
431  4.3000000000000D+00  0.0000000000000D+00  0.0000000000000D+00
432  4.3100000000000D+00  0.0000000000000D+00  0.0000000000000D+00
433  4.3200000000000D+00  0.0000000000000D+00  0.0000000000000D+00
434  4.3300000000000D+00  0.0000000000000D+00  0.0000000000000D+00
435  4.3400000000000D+00  0.0000000000000D+00  0.0000000000000D+00
436  4.3500000000000D+00  0.0000000000000D+00  0.0000000000000D+00
437  4.3600000000000D+00  0.0000000000000D+00  0.0000000000000D+00
438  4.3700000000000D+00  0.0000000000000D+00  0.0000000000000D+00
439  4.3800000000000D+00  0.0000000000000D+00  0.0000000000000D+00
440  4.3900000000000D+00  0.0000000000000D+00  0.0000000000000D+00
441  4.4000000000000D+00  0.0000000000000D+00  0.0000000000000D+00
442  4.4100000000000D+00  0.0000000000000D+00  0.0000000000000D+00
443  4.4200000000000D+00  0.0000000000000D+00  0.0000000000000D+00
444  4.4300000000000D+00  0.0000000000000D+00  0.0000000000000D+00