Tl    ONCVPSP  r_core=  2.11  2.61  2.01
81.0000     13.0000      160330    zatom,zion,pspd
8      11   2     4   600     0    pspcod,pspxc,lmax,lloc,mmax,r2well
5.99000000  7.00000000  0.00000000    rchrg fchrg qchrg
2     4     4     0    nproj
3                 extension_switch
4     4     0    nprojso
0                         8.2675938529902D-01  6.1377269565615D+00
1  0.0000000000000D+00  2.7065683028127D-11 -2.0293322577913D-11
2  1.0000000000000D-02 -4.3461617983864D-02  3.6576153423385D-02
3  2.0000000000000D-02 -8.6785020160990D-02  7.3067556415146D-02
4  3.0000000000000D-02 -1.2983249798957D-01  1.0938979706916D-01
5  4.0000000000000D-02 -1.7246735552447D-01  1.4545913915673D-01
6  5.0000000000000D-02 -2.1455441088947D-01  1.8119285653635D-01
7  6.0000000000000D-02 -2.5596049197720D-01  2.1650956346326D-01
8  7.0000000000000D-02 -2.9655492448445D-01  2.5132953945552D-01
9  8.0000000000000D-02 -3.3621001041755D-01  2.8557504739415D-01
10  9.0000000000000D-02 -3.7480149523623D-01  3.1917064355987D-01
11  1.0000000000000D-01 -4.1220902184459D-01  3.5204347833911D-01
12  1.1000000000000D-01 -4.4831656968464D-01  3.8412358636702D-01
13  1.2000000000000D-01 -4.8301287724053D-01  4.1534416491483D-01
14  1.3000000000000D-01 -5.1619184632118D-01  4.4564183937298D-01
15  1.4000000000000D-01 -5.4775292655353D-01  4.7495691473008D-01
16  1.5000000000000D-01 -5.7760147859027D-01  5.0323361200071D-01
17  1.6000000000000D-01 -6.0564911461163D-01  5.3042028861206D-01
18  1.7000000000000D-01 -6.3181401478340D-01  5.5646964182000D-01
19  1.8000000000000D-01 -6.5602121842002D-01  5.8133889429035D-01
20  1.9000000000000D-01 -6.7820288869336D-01  6.0498996104862D-01
21  2.0000000000000D-01 -6.9829854982492D-01  6.2738959707357D-01
22  2.1000000000000D-01 -7.1625529579931D-01  6.4850952488379D-01
23  2.2000000000000D-01 -7.3202796974224D-01  6.6832654154452D-01
24  2.3000000000000D-01 -7.4557931321477D-01  6.8682260460112D-01
25  2.4000000000000D-01 -7.5688008478708D-01  7.0398489652829D-01
26  2.5000000000000D-01 -7.6590914737062D-01  7.1980586736820D-01
27  2.6000000000000D-01 -7.7265352390424D-01  7.3428325531628D-01
28  2.7000000000000D-01 -7.7710842111056D-01  7.4742008510128D-01
29  2.8000000000000D-01 -7.7927722115953D-01  7.5922464409422D-01
30  2.9000000000000D-01 -7.7917144120031D-01  7.6971043617040D-01
31  3.0000000000000D-01 -7.7681066084543D-01  7.7889611343794D-01
32  3.1000000000000D-01 -7.7222241781725D-01  7.8680538603693D-01
33  3.2000000000000D-01 -7.6544207209034D-01  7.9346691030208D-01
34  3.3000000000000D-01 -7.5651263898878D-01  7.9891415567164D-01
35  3.4000000000000D-01 -7.4548459182087D-01  8.0318525081331D-01
36  3.5000000000000D-01 -7.3241563475622D-01  8.0632280952512D-01
37  3.6000000000000D-01 -7.1737044677119D-01  8.0837373705471D-01
38  3.7000000000000D-01 -7.0042039760743D-01  8.0938901756431D-01
39  3.8000000000000D-01 -6.8164323680410D-01  8.0942348354996D-01
40  3.9000000000000D-01 -6.6112275697789D-01  8.0853556810265D-01
41  4.0000000000000D-01 -6.3894843263367D-01  8.0678704097479D-01
42  4.1000000000000D-01 -6.1521503589486D-01  8.0424272948849D-01
43  4.2000000000000D-01 -5.9002223064275D-01  8.0097022539106D-01
44  4.3000000000000D-01 -5.6347414665066D-01  7.9703957882881D-01
45  4.4000000000000D-01 -5.3567893538924D-01  7.9252298067116D-01
46  4.5000000000000D-01 -5.0674830926389D-01  7.8749443447416D-01
47  4.6000000000000D-01 -4.7679706612437D-01  7.8202941942418D-01
48  4.7000000000000D-01 -4.4594260095820D-01  7.7620454564990D-01
49  4.8000000000000D-01 -4.1430440674504D-01  7.7009720333229D-01
50  4.9000000000000D-01 -3.8200356650660D-01  7.6378520707881D-01
51  5.0000000000000D-01 -3.4916223863681D-01  7.5734643705842D-01
52  5.1000000000000D-01 -3.1590313763911D-01  7.5085847841900D-01
53  5.2000000000000D-01 -2.8234901243147D-01  7.4439826052718D-01
54  5.3000000000000D-01 -2.4862212440488D-01  7.3804169758327D-01
55  5.4000000000000D-01 -2.1484372743786D-01  7.3186333217001D-01
56  5.5000000000000D-01 -1.8113355207689D-01  7.2593598329342D-01
57  5.6000000000000D-01 -1.4760929609080D-01  7.2033040046713D-01
58  5.7000000000000D-01 -1.1438612359753D-01  7.1511492537847D-01
59  5.8000000000000D-01 -8.1576174939611D-02  7.1035516265383D-01
60  5.9000000000000D-01 -4.9288089457416D-02  7.0611366121478D-01
61  6.0000000000000D-01 -1.7626543268322D-02  7.0244960768245D-01
62  6.1000000000000D-01  1.3308195886698D-02  6.9941853324849D-01
63  6.2000000000000D-01  4.3420694726222D-02  6.9707203538394D-01
64  6.3000000000000D-01  7.2620759504701D-02  6.9545751570515D-01
65  6.4000000000000D-01  1.0082381822101D-01  6.9461793525678D-01
66  6.5000000000000D-01  1.2795127818338D-01  6.9459158840703D-01
67  6.6000000000000D-01  1.5393085724762D-01  6.9541189647952D-01
68  6.7000000000000D-01  1.7869688714707D-01  6.9710722217000D-01
69  6.8000000000000D-01  2.0219058744288D-01  6.9970070571404D-01
70  6.9000000000000D-01  2.2436030873928D-01  7.0321012368550D-01
71  7.0000000000000D-01  2.4516174393359D-01  7.0764777121387D-01
72  7.1000000000000D-01  2.6455810640187D-01  7.1302036831257D-01
73  7.2000000000000D-01  2.8252027415796D-01  7.1932899091059D-01
74  7.3000000000000D-01  2.9902689916757D-01  7.2656902707582D-01
75  7.4000000000000D-01  3.1406448114648D-01  7.3473015881219D-01
76  7.5000000000000D-01  3.2762740532600D-01  7.4379636970244D-01
77  7.6000000000000D-01  3.3971794382479D-01  7.5374597855663D-01
78  7.7000000000000D-01  3.5034622042709D-01  7.6455169911256D-01
79  7.8000000000000D-01  3.5953013873016D-01  7.7618072571873D-01
80  7.9000000000000D-01  3.6729527378816D-01  7.8859484481467D-01
81  8.0000000000000D-01  3.7367472754691D-01  8.0175057190615D-01
82  8.1000000000000D-01  3.7870894852895D-01  8.1559931361707D-01
83  8.2000000000000D-01  3.8244551639614D-01  8.3008755428338D-01
84  8.3000000000000D-01  3.8493889218122D-01  8.4515706643986D-01
85  8.4000000000000D-01  3.8625013514354D-01  8.6074514443803D-01
86  8.5000000000000D-01  3.8644658736514D-01  8.7678486032202D-01
87  8.6000000000000D-01  3.8560152736006D-01  8.9320534098239D-01
88  8.7000000000000D-01  3.8379379412353D-01  9.0993206550236D-01
89  8.8000000000000D-01  3.8110738319610D-01  9.2688718151079D-01
90  8.9000000000000D-01  3.7763101645944D-01  9.4398983925982D-01
91  9.0000000000000D-01  3.7345768751748D-01  9.6115654205358D-01
92  9.1000000000000D-01  3.6868418464506D-01  9.7830151156806D-01
93  9.2000000000000D-01  3.6341059340723D-01  9.9533706652229D-01
94  9.3000000000000D-01  3.5773978116523D-01  1.0121740130864D+00
95  9.4000000000000D-01  3.5177686578780D-01  1.0287220453451D+00
96  9.5000000000000D-01  3.4562867098048D-01  1.0448901540749D+00
97  9.6000000000000D-01  3.3940317072865D-01  1.0605870420391D+00
98  9.7000000000000D-01  3.3320892542175D-01  1.0757215439620D+00
99  9.8000000000000D-01  3.2715451228760D-01  1.0902030493038D+00
100  9.9000000000000D-01  3.2134795281446D-01  1.1039419259302D+00
101  1.0000000000000D+00  3.1589613987506D-01  1.1168499427514D+00
102  1.0100000000000D+00  3.1090426729169D-01  1.1288406893918D+00
103  1.0200000000000D+00  3.0647526459268D-01  1.1398299909494D+00
104  1.0300000000000D+00  3.0270923970908D-01  1.1497363159124D+00
105  1.0400000000000D+00  2.9970293234639D-01  1.1584811753127D+00
106  1.0500000000000D+00  2.9754918073648D-01  1.1659895112242D+00
107  1.0600000000000D+00  2.9633640443649D-01  1.1721900727436D+00
108  1.0700000000000D+00  2.9614810578621D-01  1.1770157776376D+00
109  1.0800000000000D+00  2.9706239256688D-01  1.1804040578886D+00
110  1.0900000000000D+00  2.9915152432691D-01  1.1822971874353D+00
111  1.1000000000000D+00  3.0248148473915D-01  1.1826425904725D+00
112  1.1100000000000D+00  3.0711158226529D-01  1.1813931287468D+00
113  1.1200000000000D+00  3.1309408126934D-01  1.1785073663754D+00
114  1.1300000000000D+00  3.2047386560276D-01  1.1739498108086D+00
115  1.1400000000000D+00  3.2928813653258D-01  1.1676911286583D+00
116  1.1500000000000D+00  3.3956614675449D-01  1.1597083352118D+00
117  1.1600000000000D+00  3.5132897205816D-01  1.1499849565738D+00
118  1.1700000000000D+00  3.6458932204327D-01  1.1385111634976D+00
119  1.1800000000000D+00  3.7935139108923D-01  1.1252838761044D+00
120  1.1900000000000D+00  3.9561075066120D-01  1.1103068387771D+00
121  1.2000000000000D+00  4.1335428376504D-01  1.0935906647006D+00
122  1.2100000000000D+00  4.3256016219678D-01  1.0751528496400D+00
123  1.2200000000000D+00  4.5319786703860D-01  1.0550177546810D+00
124  1.2300000000000D+00  4.7522825266751D-01  1.0332165577880D+00
125  1.2400000000000D+00  4.9860365426228D-01  1.0097871742292D+00
126  1.2500000000000D+00  5.2326803861432D-01  9.8477414604136D-01
127  1.2600000000000D+00  5.4915719793189D-01  9.5822850078898D-01
128  1.2700000000000D+00  5.7619898593927D-01  9.3020758013938D-01
129  1.2800000000000D+00  6.0431359543846D-01  9.0077483886608D-01
130  1.2900000000000D+00  6.3341387642646D-01  8.6999961494563D-01
131  1.3000000000000D+00  6.6340569339758D-01  8.3795687173010D-01
132  1.3100000000000D+00  6.9418832040838D-01  8.0472691321187D-01
133  1.3200000000000D+00  7.2565487239094D-01  7.7039507346158D-01
134  1.3300000000000D+00  7.5769277072356D-01  7.3505138164363D-01
135  1.3400000000000D+00  7.9018424112966D-01  6.9879020397170D-01
136  1.3500000000000D+00  8.2300684177979D-01  6.6170986410002D-01
137  1.3600000000000D+00  8.5603401908842D-01  6.2391224370510D-01
138  1.3700000000000D+00  8.8913568886457D-01  5.8550236489932D-01
139  1.3800000000000D+00  9.2217884009771D-01  5.4658795637296D-01
140  1.3900000000000D+00  9.5502815852230D-01  5.0727900525234D-01
141  1.4000000000000D+00  9.8754666725577D-01  4.6768729656192D-01
142  1.4100000000000D+00  1.0195963812862D+00  4.2792594252315D-01
143  1.4200000000000D+00  1.0510389728614D+00  3.8810890373916D-01
144  1.4300000000000D+00  1.0817364445566D+00  3.4835050449759D-01
145  1.4400000000000D+00  1.1115518067455D+00  3.0876494445469D-01
146  1.4500000000000D+00  1.1403497562743D+00  2.6946580891843D-01
147  1.4600000000000D+00  1.1679973529340D+00  2.3056558007671D-01
148  1.4700000000000D+00  1.1943646904748D+00  1.9217515141957D-01
149  1.4800000000000D+00  1.2193255587594D+00  1.5440334770276D-01
150  1.4900000000000D+00  1.2427580938589D+00  1.1735645265044D-01
151  1.5000000000000D+00  1.2645454126191D+00  8.1137746793100D-02
152  1.5100000000000D+00  1.2845762287711D+00  4.5847057447684D-02
153  1.5200000000000D+00  1.3027454470430D+00  1.1580323281968D-02
154  1.5300000000000D+00  1.3189547325987D+00 -2.1570824703786D-02
155  1.5400000000000D+00  1.3331130524956D+00 -5.3519463500844D-02
156  1.5500000000000D+00  1.3451371864871D+00 -8.4183757888215D-02
157  1.5600000000000D+00  1.3549522044469D+00 -1.1348731782877D-01
158  1.5700000000000D+00  1.3624919075649D+00 -1.4135953151003D-01
159  1.5800000000000D+00  1.3676992314348D+00 -1.6773587273629D-01
160  1.5900000000000D+00  1.3705266078837D+00 -1.9255818051242D-01
161  1.6000000000000D+00  1.3709362847109D+00 -2.1577491024102D-01
162  1.6100000000000D+00  1.3689005998106D+00 -2.3734135411887D-01
163  1.6200000000000D+00  1.3644022100219D+00 -2.5721983095304D-01
164  1.6300000000000D+00  1.3574342708716D+00 -2.7537984277608D-01
165  1.6400000000000D+00  1.3480005685241D+00 -2.9179819913817D-01
166  1.6500000000000D+00  1.3361156002830D+00 -3.0645910657859D-01
167  1.6600000000000D+00  1.3218046054964D+00 -3.1935422451852D-01
168  1.6700000000000D+00  1.3051035436784D+00 -3.3048268539683D-01
169  1.6800000000000D+00  1.2860590222012D+00 -3.3985108062839D-01
170  1.6900000000000D+00  1.2647281708032D+00 -3.4747341050257D-01
171  1.7000000000000D+00  1.2411784658717D+00 -3.5337100000737D-01
172  1.7100000000000D+00  1.2154875020647D+00 -3.5757237891628D-01
173  1.7200000000000D+00  1.1877427149781D+00 -3.6011312862358D-01
174  1.7300000000000D+00  1.1580410525796D+00 -3.6103569417608D-01
175  1.7400000000000D+00  1.1264886000168D+00 -3.6038916459102D-01
176  1.7500000000000D+00  1.0932001555038D+00 -3.5822901989965D-01
177  1.7600000000000D+00  1.0582987629167D+00 -3.5461684869305D-01
178  1.7700000000000D+00  1.0219151986774D+00 -3.4962003452794D-01
179  1.7800000000000D+00  9.8418741949812D-01 -3.4331141560116D-01
180  1.7900000000000D+00  9.4525996871332D-01 -3.3576891615183D-01
181  1.8000000000000D+00  9.0528334801184D-01 -3.2707515415862D-01
182  1.8100000000000D+00  8.6441335335996D-01 -3.1731702450973D-01
183  1.8200000000000D+00  8.2281038115753D-01 -3.0658526169242D-01
184  1.8300000000000D+00  7.8063870512385D-01 -2.9497398232725D-01
185  1.8400000000000D+00  7.3806572875379D-01 -2.8258021078584D-01
186  1.8500000000000D+00  6.9526121564721D-01 -2.6950338943023D-01
187  1.8600000000000D+00  6.5239650130876D-01 -2.5584487587837D-01
188  1.8700000000000D+00  6.0964369025034D-01 -2.4170742985847D-01
189  1.8800000000000D+00  5.6717484113014D-01 -2.2719469147923D-01
190  1.8900000000000D+00  5.2516114452524D-01 -2.1241065398909D-01
191  1.9000000000000D+00  4.8377209608858D-01 -1.9745913286520D-01
192  1.9100000000000D+00  4.4317466924926D-01 -1.8244323400834D-01
193  1.9200000000000D+00  4.0353249124677D-01 -1.6746482358346D-01
194  1.9300000000000D+00  3.6500502548419D-01 -1.5262400149420D-01
195  1.9400000000000D+00  3.2774676285038D-01 -1.3801858121402D-01
196  1.9500000000000D+00  2.9190643407749D-01 -1.2374357961504D-01
197  1.9600000000000D+00  2.5762623616423D-01 -1.0989071715572D-01
198  1.9700000000000D+00  2.2504102843990D-01 -9.6547921674059D-02
199  1.9800000000000D+00  1.9427776190561D-01 -8.3798889846045D-02
200  1.9900000000000D+00  1.6545463918499D-01 -7.1722604752808D-02
201  2.0000000000000D+00  1.3868021398757D-01 -6.0392860431840D-02
202  2.0100000000000D+00  1.1405311396070D-01 -4.9877920818617D-02
203  2.0200000000000D+00  9.1661886800935D-02 -4.0240218103875D-02
204  2.0300000000000D+00  7.1584805464084D-02 -3.1536063683421D-02
205  2.0400000000000D+00  5.3904270275230D-02 -2.3821934499759D-02
206  2.0500000000000D+00  3.8646161160674D-02 -1.7127036987984D-02
207  2.0600000000000D+00  2.5815752574826D-02 -1.1469347991314D-02
208  2.0700000000000D+00  1.5514827041864D-02 -6.9080946316747D-03
209  2.0800000000000D+00  7.9153654488234D-03 -3.5319096786245D-03
210  2.0900000000000D+00  3.0743969938114D-03 -1.3757220720947D-03
211  2.1000000000000D+00  4.9703072722934D-04 -2.2479411382559D-04
212  2.1100000000000D+00 -4.2698348327848D-04  1.8932321285232D-04
213  2.1200000000000D+00 -3.8564677321513D-04  1.7192915142091D-04
214  2.1300000000000D+00 -1.3056417404139D-05  5.8312137852206D-06
215  2.1400000000000D+00  1.3524227369659D-04 -6.0292894369336D-05
216  2.1500000000000D+00  8.2167353908942D-05 -3.6651002350171D-05
217  2.1600000000000D+00 -1.3920085035191D-05  6.1811505617110D-06
218  2.1700000000000D+00 -2.5219611090190D-05  1.1200924674751D-05
219  2.1800000000000D+00 -5.2297162890263D-06  2.3230521423919D-06
220  2.1900000000000D+00  3.4338518476792D-07 -1.4815423990203D-07
221  2.2000000000000D+00  3.0567447603585D-07 -1.3188387753290D-07
222  2.2100000000000D+00  0.0000000000000D+00  0.0000000000000D+00
223  2.2200000000000D+00  0.0000000000000D+00  0.0000000000000D+00
224  2.2300000000000D+00  0.0000000000000D+00  0.0000000000000D+00
225  2.2400000000000D+00  0.0000000000000D+00  0.0000000000000D+00
226  2.2500000000000D+00  0.0000000000000D+00  0.0000000000000D+00
227  2.2600000000000D+00  0.0000000000000D+00  0.0000000000000D+00
228  2.2700000000000D+00  0.0000000000000D+00  0.0000000000000D+00
229  2.2800000000000D+00  0.0000000000000D+00  0.0000000000000D+00
230  2.2900000000000D+00  0.0000000000000D+00  0.0000000000000D+00
231  2.3000000000000D+00  0.0000000000000D+00  0.0000000000000D+00
232  2.3100000000000D+00  0.0000000000000D+00  0.0000000000000D+00
233  2.3200000000000D+00  0.0000000000000D+00  0.0000000000000D+00
234  2.3300000000000D+00  0.0000000000000D+00  0.0000000000000D+00
235  2.3400000000000D+00  0.0000000000000D+00  0.0000000000000D+00
236  2.3500000000000D+00  0.0000000000000D+00  0.0000000000000D+00
237  2.3600000000000D+00  0.0000000000000D+00  0.0000000000000D+00
238  2.3700000000000D+00  0.0000000000000D+00  0.0000000000000D+00
239  2.3800000000000D+00  0.0000000000000D+00  0.0000000000000D+00
240  2.3900000000000D+00  0.0000000000000D+00  0.0000000000000D+00
241  2.4000000000000D+00  0.0000000000000D+00  0.0000000000000D+00
242  2.4100000000000D+00  0.0000000000000D+00  0.0000000000000D+00
243  2.4200000000000D+00  0.0000000000000D+00  0.0000000000000D+00
244  2.4300000000000D+00  0.0000000000000D+00  0.0000000000000D+00
245  2.4400000000000D+00  0.0000000000000D+00  0.0000000000000D+00
246  2.4500000000000D+00  0.0000000000000D+00  0.0000000000000D+00
247  2.4600000000000D+00  0.0000000000000D+00  0.0000000000000D+00
248  2.4700000000000D+00  0.0000000000000D+00  0.0000000000000D+00
249  2.4800000000000D+00  0.0000000000000D+00  0.0000000000000D+00
250  2.4900000000000D+00  0.0000000000000D+00  0.0000000000000D+00
251  2.5000000000000D+00  0.0000000000000D+00  0.0000000000000D+00
252  2.5100000000000D+00  0.0000000000000D+00  0.0000000000000D+00
253  2.5200000000000D+00  0.0000000000000D+00  0.0000000000000D+00
254  2.5300000000000D+00  0.0000000000000D+00  0.0000000000000D+00
255  2.5400000000000D+00  0.0000000000000D+00  0.0000000000000D+00
256  2.5500000000000D+00  0.0000000000000D+00  0.0000000000000D+00
257  2.5600000000000D+00  0.0000000000000D+00  0.0000000000000D+00
258  2.5700000000000D+00  0.0000000000000D+00  0.0000000000000D+00
259  2.5800000000000D+00  0.0000000000000D+00  0.0000000000000D+00
260  2.5900000000000D+00  0.0000000000000D+00  0.0000000000000D+00
261  2.6000000000000D+00  0.0000000000000D+00  0.0000000000000D+00
262  2.6100000000000D+00  0.0000000000000D+00  0.0000000000000D+00
263  2.6200000000000D+00  0.0000000000000D+00  0.0000000000000D+00
264  2.6300000000000D+00  0.0000000000000D+00  0.0000000000000D+00
265  2.6400000000000D+00  0.0000000000000D+00  0.0000000000000D+00
266  2.6500000000000D+00  0.0000000000000D+00  0.0000000000000D+00
267  2.6600000000000D+00  0.0000000000000D+00  0.0000000000000D+00
268  2.6700000000000D+00  0.0000000000000D+00  0.0000000000000D+00
269  2.6800000000000D+00  0.0000000000000D+00  0.0000000000000D+00
270  2.6900000000000D+00  0.0000000000000D+00  0.0000000000000D+00
271  2.7000000000000D+00  0.0000000000000D+00  0.0000000000000D+00
272  2.7100000000000D+00  0.0000000000000D+00  0.0000000000000D+00
273  2.7200000000000D+00  0.0000000000000D+00  0.0000000000000D+00
274  2.7300000000000D+00  0.0000000000000D+00  0.0000000000000D+00
275  2.7400000000000D+00  0.0000000000000D+00  0.0000000000000D+00
276  2.7500000000000D+00  0.0000000000000D+00  0.0000000000000D+00
277  2.7600000000000D+00  0.0000000000000D+00  0.0000000000000D+00
278  2.7700000000000D+00  0.0000000000000D+00  0.0000000000000D+00
279  2.7800000000000D+00  0.0000000000000D+00  0.0000000000000D+00
280  2.7900000000000D+00  0.0000000000000D+00  0.0000000000000D+00
281  2.8000000000000D+00  0.0000000000000D+00  0.0000000000000D+00
282  2.8100000000000D+00  0.0000000000000D+00  0.0000000000000D+00
283  2.8200000000000D+00  0.0000000000000D+00  0.0000000000000D+00
284  2.8300000000000D+00  0.0000000000000D+00  0.0000000000000D+00
285  2.8400000000000D+00  0.0000000000000D+00  0.0000000000000D+00
286  2.8500000000000D+00  0.0000000000000D+00  0.0000000000000D+00
287  2.8600000000000D+00  0.0000000000000D+00  0.0000000000000D+00
288  2.8700000000000D+00  0.0000000000000D+00  0.0000000000000D+00
289  2.8800000000000D+00  0.0000000000000D+00  0.0000000000000D+00
290  2.8900000000000D+00  0.0000000000000D+00  0.0000000000000D+00
291  2.9000000000000D+00  0.0000000000000D+00  0.0000000000000D+00
292  2.9100000000000D+00  0.0000000000000D+00  0.0000000000000D+00
293  2.9200000000000D+00  0.0000000000000D+00  0.0000000000000D+00
294  2.9300000000000D+00  0.0000000000000D+00  0.0000000000000D+00
295  2.9400000000000D+00  0.0000000000000D+00  0.0000000000000D+00
296  2.9500000000000D+00  0.0000000000000D+00  0.0000000000000D+00
297  2.9600000000000D+00  0.0000000000000D+00  0.0000000000000D+00
298  2.9700000000000D+00  0.0000000000000D+00  0.0000000000000D+00
299  2.9800000000000D+00  0.0000000000000D+00  0.0000000000000D+00
300  2.9900000000000D+00  0.0000000000000D+00  0.0000000000000D+00
301  3.0000000000000D+00  0.0000000000000D+00  0.0000000000000D+00
302  3.0100000000000D+00  0.0000000000000D+00  0.0000000000000D+00
303  3.0200000000000D+00  0.0000000000000D+00  0.0000000000000D+00
304  3.0300000000000D+00  0.0000000000000D+00  0.0000000000000D+00
305  3.0400000000000D+00  0.0000000000000D+00  0.0000000000000D+00
306  3.0500000000000D+00  0.0000000000000D+00  0.0000000000000D+00
307  3.0600000000000D+00  0.0000000000000D+00  0.0000000000000D+00
308  3.0700000000000D+00  0.0000000000000D+00  0.0000000000000D+00
309  3.0800000000000D+00  0.0000000000000D+00  0.0000000000000D+00
310  3.0900000000000D+00  0.0000000000000D+00  0.0000000000000D+00
311  3.1000000000000D+00  0.0000000000000D+00  0.0000000000000D+00
312  3.1100000000000D+00  0.0000000000000D+00  0.0000000000000D+00
313  3.1200000000000D+00  0.0000000000000D+00  0.0000000000000D+00
314  3.1300000000000D+00  0.0000000000000D+00  0.0000000000000D+00
315  3.1400000000000D+00  0.0000000000000D+00  0.0000000000000D+00
316  3.1500000000000D+00  0.0000000000000D+00  0.0000000000000D+00
317  3.1600000000000D+00  0.0000000000000D+00  0.0000000000000D+00
318  3.1700000000000D+00  0.0000000000000D+00  0.0000000000000D+00
319  3.1800000000000D+00  0.0000000000000D+00  0.0000000000000D+00
320  3.1900000000000D+00  0.0000000000000D+00  0.0000000000000D+00
321  3.2000000000000D+00  0.0000000000000D+00  0.0000000000000D+00
322  3.2100000000000D+00  0.0000000000000D+00  0.0000000000000D+00
323  3.2200000000000D+00  0.0000000000000D+00  0.0000000000000D+00
324  3.2300000000000D+00  0.0000000000000D+00  0.0000000000000D+00
325  3.2400000000000D+00  0.0000000000000D+00  0.0000000000000D+00
326  3.2500000000000D+00  0.0000000000000D+00  0.0000000000000D+00
327  3.2600000000000D+00  0.0000000000000D+00  0.0000000000000D+00
328  3.2700000000000D+00  0.0000000000000D+00  0.0000000000000D+00
329  3.2800000000000D+00  0.0000000000000D+00  0.0000000000000D+00
330  3.2900000000000D+00  0.0000000000000D+00  0.0000000000000D+00
331  3.3000000000000D+00  0.0000000000000D+00  0.0000000000000D+00
332  3.3100000000000D+00  0.0000000000000D+00  0.0000000000000D+00
333  3.3200000000000D+00  0.0000000000000D+00  0.0000000000000D+00
334  3.3300000000000D+00  0.0000000000000D+00  0.0000000000000D+00
335  3.3400000000000D+00  0.0000000000000D+00  0.0000000000000D+00
336  3.3500000000000D+00  0.0000000000000D+00  0.0000000000000D+00
337  3.3600000000000D+00  0.0000000000000D+00  0.0000000000000D+00
338  3.3700000000000D+00  0.0000000000000D+00  0.0000000000000D+00
339  3.3800000000000D+00  0.0000000000000D+00  0.0000000000000D+00
340  3.3900000000000D+00  0.0000000000000D+00  0.0000000000000D+00
341  3.4000000000000D+00  0.0000000000000D+00  0.0000000000000D+00
342  3.4100000000000D+00  0.0000000000000D+00  0.0000000000000D+00
343  3.4200000000000D+00  0.0000000000000D+00  0.0000000000000D+00
344  3.4300000000000D+00  0.0000000000000D+00  0.0000000000000D+00
345  3.4400000000000D+00  0.0000000000000D+00  0.0000000000000D+00
346  3.4500000000000D+00  0.0000000000000D+00  0.0000000000000D+00
347  3.4600000000000D+00  0.0000000000000D+00  0.0000000000000D+00
348  3.4700000000000D+00  0.0000000000000D+00  0.0000000000000D+00
349  3.4800000000000D+00  0.0000000000000D+00  0.0000000000000D+00
350  3.4900000000000D+00  0.0000000000000D+00  0.0000000000000D+00
351  3.5000000000000D+00  0.0000000000000D+00  0.0000000000000D+00
352  3.5100000000000D+00  0.0000000000000D+00  0.0000000000000D+00
353  3.5200000000000D+00  0.0000000000000D+00  0.0000000000000D+00
354  3.5300000000000D+00  0.0000000000000D+00  0.0000000000000D+00
355  3.5400000000000D+00  0.0000000000000D+00  0.0000000000000D+00
356  3.5500000000000D+00  0.0000000000000D+00  0.0000000000000D+00
357  3.5600000000000D+00  0.0000000000000D+00  0.0000000000000D+00
358  3.5700000000000D+00  0.0000000000000D+00  0.0000000000000D+00
359  3.5800000000000D+00  0.0000000000000D+00  0.0000000000000D+00
360  3.5900000000000D+00  0.0000000000000D+00  0.0000000000000D+00
361  3.6000000000000D+00  0.0000000000000D+00  0.0000000000000D+00
362  3.6100000000000D+00  0.0000000000000D+00  0.0000000000000D+00
363  3.6200000000000D+00  0.0000000000000D+00  0.0000000000000D+00
364  3.6300000000000D+00  0.0000000000000D+00  0.0000000000000D+00
365  3.6400000000000D+00  0.0000000000000D+00  0.0000000000000D+00
366  3.6500000000000D+00  0.0000000000000D+00  0.0000000000000D+00
367  3.6600000000000D+00  0.0000000000000D+00  0.0000000000000D+00
368  3.6700000000000D+00  0.0000000000000D+00  0.0000000000000D+00
369  3.6800000000000D+00  0.0000000000000D+00  0.0000000000000D+00
370  3.6900000000000D+00  0.0000000000000D+00  0.0000000000000D+00
371  3.7000000000000D+00  0.0000000000000D+00  0.0000000000000D+00
372  3.7100000000000D+00  0.0000000000000D+00  0.0000000000000D+00
373  3.7200000000000D+00  0.0000000000000D+00  0.0000000000000D+00
374  3.7300000000000D+00  0.0000000000000D+00  0.0000000000000D+00
375  3.7400000000000D+00  0.0000000000000D+00  0.0000000000000D+00
376  3.7500000000000D+00  0.0000000000000D+00  0.0000000000000D+00
377  3.7600000000000D+00  0.0000000000000D+00  0.0000000000000D+00
378  3.7700000000000D+00  0.0000000000000D+00  0.0000000000000D+00
379  3.7800000000000D+00  0.0000000000000D+00  0.0000000000000D+00
380  3.7900000000000D+00  0.0000000000000D+00  0.0000000000000D+00
381  3.8000000000000D+00  0.0000000000000D+00  0.0000000000000D+00
382  3.8100000000000D+00  0.0000000000000D+00  0.0000000000000D+00
383  3.8200000000000D+00  0.0000000000000D+00  0.0000000000000D+00
384  3.8300000000000D+00  0.0000000000000D+00  0.0000000000000D+00
385  3.8400000000000D+00  0.0000000000000D+00  0.0000000000000D+00
386  3.8500000000000D+00  0.0000000000000D+00  0.0000000000000D+00
387  3.8600000000000D+00  0.0000000000000D+00  0.0000000000000D+00
388  3.8700000000000D+00  0.0000000000000D+00  0.0000000000000D+00
389  3.8800000000000D+00  0.0000000000000D+00  0.0000000000000D+00
390  3.8900000000000D+00  0.0000000000000D+00  0.0000000000000D+00
391  3.9000000000000D+00  0.0000000000000D+00  0.0000000000000D+00
392  3.9100000000000D+00  0.0000000000000D+00  0.0000000000000D+00
393  3.9200000000000D+00  0.0000000000000D+00  0.0000000000000D+00
394  3.9300000000000D+00  0.0000000000000D+00  0.0000000000000D+00
395  3.9400000000000D+00  0.0000000000000D+00  0.0000000000000D+00
396  3.9500000000000D+00  0.0000000000000D+00  0.0000000000000D+00
397  3.9600000000000D+00  0.0000000000000D+00  0.0000000000000D+00
398  3.9700000000000D+00  0.0000000000000D+00  0.0000000000000D+00
399  3.9800000000000D+00  0.0000000000000D+00  0.0000000000000D+00
400  3.9900000000000D+00  0.0000000000000D+00  0.0000000000000D+00
401  4.0000000000000D+00  0.0000000000000D+00  0.0000000000000D+00
402  4.0100000000000D+00  0.0000000000000D+00  0.0000000000000D+00
403  4.0200000000000D+00  0.0000000000000D+00  0.0000000000000D+00
404  4.0300000000000D+00  0.0000000000000D+00  0.0000000000000D+00
405  4.0400000000000D+00  0.0000000000000D+00  0.0000000000000D+00
406  4.0500000000000D+00  0.0000000000000D+00  0.0000000000000D+00
407  4.0600000000000D+00  0.0000000000000D+00  0.0000000000000D+00
408  4.0700000000000D+00  0.0000000000000D+00  0.0000000000000D+00
409  4.0800000000000D+00  0.0000000000000D+00  0.0000000000000D+00
410  4.0900000000000D+00  0.0000000000000D+00  0.0000000000000D+00
411  4.1000000000000D+00  0.0000000000000D+00  0.0000000000000D+00
412  4.1100000000000D+00  0.0000000000000D+00  0.0000000000000D+00
413  4.1200000000000D+00  0.0000000000000D+00  0.0000000000000D+00
414  4.1300000000000D+00  0.0000000000000D+00  0.0000000000000D+00
415  4.1400000000000D+00  0.0000000000000D+00  0.0000000000000D+00
416  4.1500000000000D+00  0.0000000000000D+00  0.0000000000000D+00
417  4.1600000000000D+00  0.0000000000000D+00  0.0000000000000D+00
418  4.1700000000000D+00  0.0000000000000D+00  0.0000000000000D+00
419  4.1800000000000D+00  0.0000000000000D+00  0.0000000000000D+00
420  4.1900000000000D+00  0.0000000000000D+00  0.0000000000000D+00
421  4.2000000000000D+00  0.0000000000000D+00  0.0000000000000D+00
422  4.2100000000000D+00  0.0000000000000D+00  0.0000000000000D+00
423  4.2200000000000D+00  0.0000000000000D+00  0.0000000000000D+00
424  4.2300000000000D+00  0.0000000000000D+00  0.0000000000000D+00
425  4.2400000000000D+00  0.0000000000000D+00  0.0000000000000D+00
426  4.2500000000000D+00  0.0000000000000D+00  0.0000000000000D+00
427  4.2600000000000D+00  0.0000000000000D+00  0.0000000000000D+00
428  4.2700000000000D+00  0.0000000000000D+00  0.0000000000000D+00
429  4.2800000000000D+00  0.0000000000000D+00  0.0000000000000D+00
430  4.2900000000000D+00  0.0000000000000D+00  0.0000000000000D+00
431  4.3000000000000D+00  0.0000000000000D+00  0.0000000000000D+00
432  4.3100000000000D+00  0.0000000000000D+00  0.0000000000000D+00
433  4.3200000000000D+00  0.0000000000000D+00  0.0000000000000D+00
434  4.3300000000000D+00  0.0000000000000D+00  0.0000000000000D+00
435  4.3400000000000D+00  0.0000000000000D+00  0.0000000000000D+00
436  4.3500000000000D+00  0.0000000000000D+00  0.0000000000000D+00
437  4.3600000000000D+00  0.0000000000000D+00  0.0000000000000D+00
438  4.3700000000000D+00  0.0000000000000D+00  0.0000000000000D+00
439  4.3800000000000D+00  0.0000000000000D+00  0.0000000000000D+00
440  4.3900000000000D+00  0.0000000000000D+00  0.0000000000000D+00
441  4.4000000000000D+00  0.0000000000000D+00  0.0000000000000D+00
442  4.4100000000000D+00  0.0000000000000D+00  0.0000000000000D+00
443  4.4200000000000D+00  0.0000000000000D+00  0.0000000000000D+00