Tl    ONCVPSP  r_core=  1.40  1.51  1.40
81.0000     21.0000      161002    zatom,zion,pspd
8      11   2     4   600     0    pspcod,pspxc,lmax,lloc,mmax,r2well
5.99000000  9.00000000  0.00000000    rchrg fchrg qchrg
2     2     2     0     0    nproj
1                 extension_switch
0                         1.6604267471666D+01  1.9759948991834D+00
1  0.0000000000000D+00 -5.8212534792546D-10  1.9028873754490D-09
2  1.0000000000000D-02  8.0393183742924D-02 -2.8564134581712D-02
3  2.0000000000000D-02  1.6058124822917D-01 -5.6885334600207D-02
4  3.0000000000000D-02  2.4035997908574D-01 -8.4722886017759D-02
5  4.0000000000000D-02  3.1952696216723D-01 -1.1184048465624D-01
6  5.0000000000000D-02  3.9788245997198D-01 -1.3800836364289D-01
7  6.0000000000000D-02  4.7523026004255D-01 -1.6300532925214D-01
8  7.0000000000000D-02  5.5137848670805D-01 -1.8662067688114D-01
9  8.0000000000000D-02  6.2614036810737D-01 -2.0865596079935D-01
10  9.0000000000000D-02  6.9933495114295D-01 -2.2892659363593D-01
11  1.0000000000000D-01  7.7078775784116D-01 -2.4726325427671D-01
12  1.1000000000000D-01  8.4033137752535D-01 -2.6351308589305D-01
13  1.2000000000000D-01  9.0780599022642D-01 -2.7754066917241D-01
14  1.3000000000000D-01  9.7305981784617D-01 -2.8922875941050D-01
15  1.4000000000000D-01  1.0359495007335D+00 -2.9847877990401D-01
16  1.5000000000000D-01  1.0963403985139D+00 -3.0521106799040D-01
17  1.6000000000000D-01  1.1541068152105D+00 -3.0936487405616D-01
18  1.7000000000000D-01  1.2091321498859D+00 -3.1089811781449D-01
19  1.8000000000000D-01  1.2613089752074D+00 -3.0978691007370D-01
20  1.9000000000000D-01  1.3105390474612D+00 -3.0602485201589D-01
21  2.0000000000000D-01  1.3567332526086D+00 -2.9962212762020D-01
22  2.1000000000000D-01  1.3998114939598D+00 -2.9060440823608D-01
23  2.2000000000000D-01  1.4397025279252D+00 -2.7901159138422D-01
24  2.3000000000000D-01  1.4763437550789D+00 -2.6489639858356D-01
25  2.4000000000000D-01  1.5096809744091D+00 -2.4832285932466D-01
26  2.5000000000000D-01  1.5396681091347D+00 -2.2936471019222D-01
27  2.6000000000000D-01  1.5662669128186D+00 -2.0810373954677D-01
28  2.7000000000000D-01  1.5894466647023D+00 -1.8462810908017D-01
29  2.8000000000000D-01  1.6091838632120D+00 -1.5903068394064D-01
30  2.9000000000000D-01  1.6254619264506D+00 -1.3140740296936D-01
31  3.0000000000000D-01  1.6382709081844D+00 -1.0185571989604D-01
32  3.1000000000000D-01  1.6476072373591D+00 -7.0473145112787D-02
33  3.2000000000000D-01  1.6534734885540D+00 -3.7355915893666D-02
34  3.3000000000000D-01  1.6558781899986D+00 -2.5978206760240D-03
35  3.4000000000000D-01  1.6548356748576D+00  3.3710799702960D-02
36  3.5000000000000D-01  1.6503659804379D+00  7.1483854076240D-02
37  3.6000000000000D-01  1.6424947988145D+00  1.1064009012833D-01
38  3.7000000000000D-01  1.6312534811160D+00  1.5110345836986D-01
39  3.8000000000000D-01  1.6166790963861D+00  1.9280324274191D-01
40  3.9000000000000D-01  1.5988145445554D+00  2.3567395405109D-01
41  4.0000000000000D-01  1.5777087216534D+00  2.7965498694606D-01
42  4.1000000000000D-01  1.5534167339735D+00  3.2469004572389D-01
43  4.2000000000000D-01  1.5260001565152D+00  3.7072634882980D-01
44  4.3000000000000D-01  1.4955273296731D+00  4.1771362640590D-01
45  4.4000000000000D-01  1.4620736868691D+00  4.6560292957954D-01
46  4.5000000000000D-01  1.4257221046338D+00  5.1434527428279D-01
47  4.6000000000000D-01  1.3865632655777D+00  5.6389014618797D-01
48  4.7000000000000D-01  1.3446960237625D+00  6.1418389675974D-01
49  4.8000000000000D-01  1.3002277612157D+00  6.6516806339669D-01
50  4.9000000000000D-01  1.2532747237384D+00  7.1677764910480D-01
51  5.0000000000000D-01  1.2039623237630D+00  7.6893939905842D-01
52  5.1000000000000D-01  1.1524253978260D+00  8.2157011271617D-01
53  5.2000000000000D-01  1.0988084062503D+00  8.7457503083373D-01
54  5.3000000000000D-01  1.0432655628846D+00  9.2784633672568D-01
55  5.4000000000000D-01  9.8596088322853D-01  9.8126181045633D-01
56  5.5000000000000D-01  9.2706813997733D-01  1.0346836732833D+00
57  5.6000000000000D-01  8.6677071595510D-01  1.0879576576330D+00
58  5.7000000000000D-01  8.0526134554791D-01  1.1409123351889D+00
59  5.8000000000000D-01  7.4274173710402D-01  1.1933587323164D+00
60  5.9000000000000D-01  6.7942207030055D-01  1.2450902581227D+00
61  6.0000000000000D-01  6.1552036419389D-01  1.2958829659318D+00
62  6.1000000000000D-01  5.5126171351863D-01  1.3454961639956D+00
63  6.2000000000000D-01  4.8687739278741D-01  1.3936733858323D+00
64  6.3000000000000D-01  4.2260382981330D-01  1.4401437248413D+00
65  6.4000000000000D-01  3.5868145241418D-01  1.4846235318382D+00
66  6.5000000000000D-01  2.9535341423494D-01  1.5268184679503D+00
67  6.6000000000000D-01  2.3286420778449D-01  1.5664258990854D+00
68  6.7000000000000D-01  1.7145817492181D-01  1.6031376119449D+00
69  6.8000000000000D-01  1.1137792708685D-01  1.6366428254535D+00
70  6.9000000000000D-01  5.2862689526198D-02  1.6666314656124D+00
71  7.0000000000000D-01 -3.8534144267339D-03  1.6927976662621D+00
72  7.1000000000000D-01 -5.8543121308436D-02  1.7148434531079D+00
73  7.2000000000000D-01 -1.1098780858213D-01  1.7324825638002D+00
74  7.3000000000000D-01 -1.6097927845345D-01  1.7454443528815D+00
75  7.4000000000000D-01 -2.0832152316392D-01  1.7534777271322D+00
76  7.5000000000000D-01 -2.5283244982171D-01  1.7563550543278D+00
77  7.6000000000000D-01 -2.9434554247192D-01  1.7538759867127D+00
78  7.7000000000000D-01 -3.3271143906866D-01  1.7458711396740D+00
79  7.8000000000000D-01 -3.6779940129558D-01  1.7322055661630D+00
80  7.9000000000000D-01 -3.9949865579848D-01  1.7127819684160D+00
81  8.0000000000000D-01 -4.2771958634128D-01  1.6875435904561D+00
82  8.1000000000000D-01 -4.5239475767126D-01  1.6564767377165D+00
83  8.2000000000000D-01 -4.7347975347016D-01  1.6196128738892D+00
84  8.3000000000000D-01 -4.9095381265917D-01  1.5770302497349D+00
85  8.4000000000000D-01 -5.0482025049795D-01  1.5288550240348D+00
86  8.5000000000000D-01 -5.1510665334445D-01  1.4752618430637D+00
87  8.6000000000000D-01 -5.2186483859496D-01  1.4164738518313D+00
88  8.7000000000000D-01 -5.2517057416668D-01  1.3527621177867D+00
89  8.8000000000000D-01 -5.2512305488244D-01  1.2844444556108D+00
90  8.9000000000000D-01 -5.2184413622580D-01  1.2118836500079D+00
91  9.0000000000000D-01 -5.1547732911304D-01  1.1354850819508D+00
92  9.1000000000000D-01 -5.0618656252943D-01  1.0556937724872D+00
93  9.2000000000000D-01 -4.9415472405395D-01  9.7299086686178D-01
94  9.3000000000000D-01 -4.7958199140249D-01  8.8788959020854D-01
95  9.4000000000000D-01 -4.6268397110558D-01  8.0093071428786D-01
96  9.5000000000000D-01 -4.4368966325767D-01  7.1267758255675D-01
97  9.6000000000000D-01 -4.2283927388485D-01  6.2371074813211D-01
98  9.7000000000000D-01 -4.0038189883442D-01  5.3462228582103D-01
99  9.8000000000000D-01 -3.7657310515229D-01  4.4600984522930D-01
100  9.9000000000000D-01 -3.5167243765824D-01  3.5847051695092D-01
101  1.0000000000000D+00 -3.2594087977508D-01  2.7259458775344D-01
102  1.0100000000000D+00 -2.9963829869363D-01  1.8895926373307D-01
103  1.0200000000000D+00 -2.7302090551202D-01  1.0812244218858D-01
104  1.0300000000000D+00 -2.4633876114637D-01  3.0616613652210D-02
105  1.0400000000000D+00 -2.1983335854677D-01 -4.3057024953297D-02
106  1.0500000000000D+00 -1.9373531099583D-01 -1.1243416688052D-01
107  1.0600000000000D+00 -1.6826217519143D-01 -1.7709262541728D-01
108  1.0700000000000D+00 -1.4361643623760D-01 -2.3665712469792D-01
109  1.0800000000000D+00 -1.1998367964830D-01 -2.9080358444927D-01
110  1.0900000000000D+00 -9.7530973218306D-02 -3.3926283763509D-01
111  1.1000000000000D+00 -7.6405478685173D-02 -3.8182372781277D-01
112  1.1100000000000D+00 -5.6733310560486D-02 -4.1833553986065D-01
113  1.1200000000000D+00 -3.8618655749381D-02 -4.4870972788583D-01
114  1.1300000000000D+00 -2.2143164314605D-02 -4.7292091297235D-01
115  1.1400000000000D+00 -7.3656177843521D-03 -4.9100713418438D-01
116  1.1500000000000D+00  5.6781219043688D-03 -5.0306934524527D-01
117  1.1600000000000D+00  1.6974884056187D-02 -5.0927016110036D-01
118  1.1700000000000D+00  2.6533686570982D-02 -5.0983186918190D-01
119  1.1800000000000D+00  3.4384968224452D-02 -5.0503373145814D-01
120  1.1900000000000D+00  4.0579567722027D-02 -4.9520861052773D-01
121  1.2000000000000D+00  4.5187466557150D-02 -4.8073896723842D-01
122  1.2100000000000D+00  4.8296315337557D-02 -4.6205228453753D-01
123  1.2200000000000D+00  5.0009766238908D-02 -4.3961598047977D-01
124  1.2300000000000D+00  5.0445637155687D-02 -4.1393188131125D-01
125  1.2400000000000D+00  4.9733936309695D-02 -3.8553033430374D-01
126  1.2500000000000D+00  4.8014777350152D-02 -3.5496404349028D-01
127  1.2600000000000D+00  4.5436216664352D-02 -3.2280171608601D-01
128  1.2700000000000D+00  4.2152050670490D-02 -2.8962162591195D-01
129  1.2800000000000D+00  3.8319599898727D-02 -2.5600516357535D-01
130  1.2900000000000D+00  3.4097457964559D-02 -2.2253029215886D-01
131  1.3000000000000D+00  2.9643382051191D-02 -1.8976544623187D-01
132  1.3100000000000D+00  2.5112771527285D-02 -1.5826534739921D-01
133  1.3200000000000D+00  2.0654188038431D-02 -1.2855711345727D-01
134  1.3300000000000D+00  1.6404804124640D-02 -1.0112625405986D-01
135  1.3400000000000D+00  1.2485573472030D-02 -7.6401960004805D-02
136  1.3500000000000D+00  8.9991671140465D-03 -5.4751368407007D-02
137  1.3600000000000D+00  6.0306260144083D-03 -3.6487467256551D-02
138  1.3700000000000D+00  3.6368178560693D-03 -2.1811516442754D-02
139  1.3800000000000D+00  1.8489233732014D-03 -1.0836200590326D-02
140  1.3900000000000D+00  7.5199700887904D-04 -4.0132425745501D-03
141  1.4000000000000D+00  2.6389343514523D-04 -9.5091490077351D-04
142  1.4100000000000D+00  7.3307303676329D-05 -5.0976789127587D-05
143  1.4200000000000D+00  3.2680581824933D-07  7.0192071455548D-07
144  1.4300000000000D+00 -5.5787039770043D-06 -2.7726747636052D-05
145  1.4400000000000D+00  1.2583691540005D-06  1.2897011031807D-06
146  1.4500000000000D+00  1.2935949484205D-06  2.2123306530464D-06
147  1.4600000000000D+00 -4.7243859007241D-07  1.2930103919358D-06
148  1.4700000000000D+00 -1.6099655667661D-07  4.4062916371169D-07
149  1.4800000000000D+00  0.0000000000000D+00  0.0000000000000D+00
150  1.4900000000000D+00  0.0000000000000D+00  0.0000000000000D+00
151  1.5000000000000D+00  0.0000000000000D+00  0.0000000000000D+00
152  1.5100000000000D+00  0.0000000000000D+00  0.0000000000000D+00
153  1.5200000000000D+00  0.0000000000000D+00  0.0000000000000D+00
154  1.5300000000000D+00  0.0000000000000D+00  0.0000000000000D+00
155  1.5400000000000D+00  0.0000000000000D+00  0.0000000000000D+00
156  1.5500000000000D+00  0.0000000000000D+00  0.0000000000000D+00
157  1.5600000000000D+00  0.0000000000000D+00  0.0000000000000D+00
158  1.5700000000000D+00  0.0000000000000D+00  0.0000000000000D+00
159  1.5800000000000D+00  0.0000000000000D+00  0.0000000000000D+00
160  1.5900000000000D+00  0.0000000000000D+00  0.0000000000000D+00
161  1.6000000000000D+00  0.0000000000000D+00  0.0000000000000D+00
162  1.6100000000000D+00  0.0000000000000D+00  0.0000000000000D+00
163  1.6200000000000D+00  0.0000000000000D+00  0.0000000000000D+00
164  1.6300000000000D+00  0.0000000000000D+00  0.0000000000000D+00
165  1.6400000000000D+00  0.0000000000000D+00  0.0000000000000D+00
166  1.6500000000000D+00  0.0000000000000D+00  0.0000000000000D+00
167  1.6600000000000D+00  0.0000000000000D+00  0.0000000000000D+00
168  1.6700000000000D+00  0.0000000000000D+00  0.0000000000000D+00
169  1.6800000000000D+00  0.0000000000000D+00  0.0000000000000D+00
170  1.6900000000000D+00  0.0000000000000D+00  0.0000000000000D+00
171  1.7000000000000D+00  0.0000000000000D+00  0.0000000000000D+00
172  1.7100000000000D+00  0.0000000000000D+00  0.0000000000000D+00
173  1.7200000000000D+00  0.0000000000000D+00  0.0000000000000D+00
174  1.7300000000000D+00  0.0000000000000D+00  0.0000000000000D+00
175  1.7400000000000D+00  0.0000000000000D+00  0.0000000000000D+00
176  1.7500000000000D+00  0.0000000000000D+00  0.0000000000000D+00
177  1.7600000000000D+00  0.0000000000000D+00  0.0000000000000D+00
178  1.7700000000000D+00  0.0000000000000D+00  0.0000000000000D+00
179  1.7800000000000D+00  0.0000000000000D+00  0.0000000000000D+00
180  1.7900000000000D+00  0.0000000000000D+00  0.0000000000000D+00
181  1.8000000000000D+00  0.0000000000000D+00  0.0000000000000D+00
182  1.8100000000000D+00  0.0000000000000D+00  0.0000000000000D+00
183  1.8200000000000D+00  0.0000000000000D+00  0.0000000000000D+00
184  1.8300000000000D+00  0.0000000000000D+00  0.0000000000000D+00
185  1.8400000000000D+00  0.0000000000000D+00  0.0000000000000D+00
186  1.8500000000000D+00  0.0000000000000D+00  0.0000000000000D+00
187  1.8600000000000D+00  0.0000000000000D+00  0.0000000000000D+00
188  1.8700000000000D+00  0.0000000000000D+00  0.0000000000000D+00
189  1.8800000000000D+00  0.0000000000000D+00  0.0000000000000D+00
190  1.8900000000000D+00  0.0000000000000D+00  0.0000000000000D+00
191  1.9000000000000D+00  0.0000000000000D+00  0.0000000000000D+00
192  1.9100000000000D+00  0.0000000000000D+00  0.0000000000000D+00
193  1.9200000000000D+00  0.0000000000000D+00  0.0000000000000D+00
194  1.9300000000000D+00  0.0000000000000D+00  0.0000000000000D+00
195  1.9400000000000D+00  0.0000000000000D+00  0.0000000000000D+00
196  1.9500000000000D+00  0.0000000000000D+00  0.0000000000000D+00
197  1.9600000000000D+00  0.0000000000000D+00  0.0000000000000D+00
198  1.9700000000000D+00  0.0000000000000D+00  0.0000000000000D+00
199  1.9800000000000D+00  0.0000000000000D+00  0.0000000000000D+00
200  1.9900000000000D+00  0.0000000000000D+00  0.0000000000000D+00
201  2.0000000000000D+00  0.0000000000000D+00  0.0000000000000D+00
202  2.0100000000000D+00  0.0000000000000D+00  0.0000000000000D+00
203  2.0200000000000D+00  0.0000000000000D+00  0.0000000000000D+00
204  2.0300000000000D+00  0.0000000000000D+00  0.0000000000000D+00
205  2.0400000000000D+00  0.0000000000000D+00  0.0000000000000D+00
206  2.0500000000000D+00  0.0000000000000D+00  0.0000000000000D+00
207  2.0600000000000D+00  0.0000000000000D+00  0.0000000000000D+00
208  2.0700000000000D+00  0.0000000000000D+00  0.0000000000000D+00
209  2.0800000000000D+00  0.0000000000000D+00  0.0000000000000D+00
210  2.0900000000000D+00  0.0000000000000D+00  0.0000000000000D+00
211  2.1000000000000D+00  0.0000000000000D+00  0.0000000000000D+00
212  2.1100000000000D+00  0.0000000000000D+00  0.0000000000000D+00
213  2.1200000000000D+00  0.0000000000000D+00  0.0000000000000D+00
214  2.1300000000000D+00  0.0000000000000D+00  0.0000000000000D+00
215  2.1400000000000D+00  0.0000000000000D+00  0.0000000000000D+00
216  2.1500000000000D+00  0.0000000000000D+00  0.0000000000000D+00
217  2.1600000000000D+00  0.0000000000000D+00  0.0000000000000D+00
218  2.1700000000000D+00  0.0000000000000D+00  0.0000000000000D+00
219  2.1800000000000D+00  0.0000000000000D+00  0.0000000000000D+00
220  2.1900000000000D+00  0.0000000000000D+00  0.0000000000000D+00
221  2.2000000000000D+00  0.0000000000000D+00  0.0000000000000D+00
222  2.2100000000000D+00  0.0000000000000D+00  0.0000000000000D+00
223  2.2200000000000D+00  0.0000000000000D+00  0.0000000000000D+00
224  2.2300000000000D+00  0.0000000000000D+00  0.0000000000000D+00
225  2.2400000000000D+00  0.0000000000000D+00  0.0000000000000D+00
226  2.2500000000000D+00  0.0000000000000D+00  0.0000000000000D+00
227  2.2600000000000D+00  0.0000000000000D+00  0.0000000000000D+00
228  2.2700000000000D+00  0.0000000000000D+00  0.0000000000000D+00
229  2.2800000000000D+00  0.0000000000000D+00  0.0000000000000D+00
230  2.2900000000000D+00  0.0000000000000D+00  0.0000000000000D+00
231  2.3000000000000D+00  0.0000000000000D+00  0.0000000000000D+00
232  2.3100000000000D+00  0.0000000000000D+00  0.0000000000000D+00
233  2.3200000000000D+00  0.0000000000000D+00  0.0000000000000D+00
234  2.3300000000000D+00  0.0000000000000D+00  0.0000000000000D+00
235  2.3400000000000D+00  0.0000000000000D+00  0.0000000000000D+00
236  2.3500000000000D+00  0.0000000000000D+00  0.0000000000000D+00
237  2.3600000000000D+00  0.0000000000000D+00  0.0000000000000D+00
238  2.3700000000000D+00  0.0000000000000D+00  0.0000000000000D+00
239  2.3800000000000D+00  0.0000000000000D+00  0.0000000000000D+00
240  2.3900000000000D+00  0.0000000000000D+00  0.0000000000000D+00
241  2.4000000000000D+00  0.0000000000000D+00  0.0000000000000D+00
242  2.4100000000000D+00  0.0000000000000D+00  0.0000000000000D+00
243  2.4200000000000D+00  0.0000000000000D+00  0.0000000000000D+00
244  2.4300000000000D+00  0.0000000000000D+00  0.0000000000000D+00
245  2.4400000000000D+00  0.0000000000000D+00  0.0000000000000D+00
246  2.4500000000000D+00  0.0000000000000D+00  0.0000000000000D+00
247  2.4600000000000D+00  0.0000000000000D+00  0.0000000000000D+00
248  2.4700000000000D+00  0.0000000000000D+00  0.0000000000000D+00
249  2.4800000000000D+00  0.0000000000000D+00  0.0000000000000D+00
250  2.4900000000000D+00  0.0000000000000D+00  0.0000000000000D+00
251  2.5000000000000D+00  0.0000000000000D+00  0.0000000000000D+00
252  2.5100000000000D+00  0.0000000000000D+00  0.0000000000000D+00
253  2.5200000000000D+00  0.0000000000000D+00  0.0000000000000D+00
254  2.5300000000000D+00  0.0000000000000D+00  0.0000000000000D+00
255  2.5400000000000D+00  0.0000000000000D+00  0.0000000000000D+00
256  2.5500000000000D+00  0.0000000000000D+00  0.0000000000000D+00
257  2.5600000000000D+00  0.0000000000000D+00  0.0000000000000D+00
258  2.5700000000000D+00  0.0000000000000D+00  0.0000000000000D+00
259  2.5800000000000D+00  0.0000000000000D+00  0.0000000000000D+00
260  2.5900000000000D+00  0.0000000000000D+00  0.0000000000000D+00
261  2.6000000000000D+00  0.0000000000000D+00  0.0000000000000D+00
262  2.6100000000000D+00  0.0000000000000D+00  0.0000000000000D+00
263  2.6200000000000D+00  0.0000000000000D+00  0.0000000000000D+00
264  2.6300000000000D+00  0.0000000000000D+00  0.0000000000000D+00
265  2.6400000000000D+00  0.0000000000000D+00  0.0000000000000D+00
266  2.6500000000000D+00  0.0000000000000D+00  0.0000000000000D+00
267  2.6600000000000D+00  0.0000000000000D+00  0.0000000000000D+00
268  2.6700000000000D+00  0.0000000000000D+00  0.0000000000000D+00
269  2.6800000000000D+00  0.0000000000000D+00  0.0000000000000D+00
270  2.6900000000000D+00  0.0000000000000D+00  0.0000000000000D+00
271  2.7000000000000D+00  0.0000000000000D+00  0.0000000000000D+00
272  2.7100000000000D+00  0.0000000000000D+00  0.0000000000000D+00
273  2.7200000000000D+00  0.0000000000000D+00  0.0000000000000D+00
274  2.7300000000000D+00  0.0000000000000D+00  0.0000000000000D+00
275  2.7400000000000D+00  0.0000000000000D+00  0.0000000000000D+00
276  2.7500000000000D+00  0.0000000000000D+00  0.0000000000000D+00
277  2.7600000000000D+00  0.0000000000000D+00  0.0000000000000D+00
278  2.7700000000000D+00  0.0000000000000D+00  0.0000000000000D+00
279  2.7800000000000D+00  0.0000000000000D+00  0.0000000000000D+00
280  2.7900000000000D+00  0.0000000000000D+00  0.0000000000000D+00
281  2.8000000000000D+00  0.0000000000000D+00  0.0000000000000D+00
282  2.8100000000000D+00  0.0000000000000D+00  0.0000000000000D+00
283  2.8200000000000D+00  0.0000000000000D+00  0.0000000000000D+00
284  2.8300000000000D+00  0.0000000000000D+00  0.0000000000000D+00
285  2.8400000000000D+00  0.0000000000000D+00  0.0000000000000D+00
286  2.8500000000000D+00  0.0000000000000D+00  0.0000000000000D+00
287  2.8600000000000D+00  0.0000000000000D+00  0.0000000000000D+00
288  2.8700000000000D+00  0.0000000000000D+00  0.0000000000000D+00
289  2.8800000000000D+00  0.0000000000000D+00  0.0000000000000D+00
290  2.8900000000000D+00  0.0000000000000D+00  0.0000000000000D+00
291  2.9000000000000D+00  0.0000000000000D+00  0.0000000000000D+00
292  2.9100000000000D+00  0.0000000000000D+00  0.0000000000000D+00
293  2.9200000000000D+00  0.0000000000000D+00  0.0000000000000D+00
294  2.9300000000000D+00  0.0000000000000D+00  0.0000000000000D+00
295  2.9400000000000D+00  0.0000000000000D+00  0.0000000000000D+00
296  2.9500000000000D+00  0.0000000000000D+00  0.0000000000000D+00
297  2.9600000000000D+00  0.0000000000000D+00  0.0000000000000D+00
298  2.9700000000000D+00  0.0000000000000D+00  0.0000000000000D+00
299  2.9800000000000D+00  0.0000000000000D+00  0.0000000000000D+00
300  2.9900000000000D+00  0.0000000000000D+00  0.0000000000000D+00
301  3.0000000000000D+00  0.0000000000000D+00  0.0000000000000D+00
302  3.0100000000000D+00  0.0000000000000D+00  0.0000000000000D+00
303  3.0200000000000D+00  0.0000000000000D+00  0.0000000000000D+00
304  3.0300000000000D+00  0.0000000000000D+00  0.0000000000000D+00
305  3.0400000000000D+00  0.0000000000000D+00  0.0000000000000D+00
306  3.0500000000000D+00  0.0000000000000D+00  0.0000000000000D+00
307  3.0600000000000D+00  0.0000000000000D+00  0.0000000000000D+00
308  3.0700000000000D+00  0.0000000000000D+00  0.0000000000000D+00
309  3.0800000000000D+00  0.0000000000000D+00  0.0000000000000D+00
310  3.0900000000000D+00  0.0000000000000D+00  0.0000000000000D+00
311  3.1000000000000D+00  0.0000000000000D+00  0.0000000000000D+00
312  3.1100000000000D+00  0.0000000000000D+00  0.0000000000000D+00
313  3.1200000000000D+00  0.0000000000000D+00  0.0000000000000D+00
314  3.1300000000000D+00  0.0000000000000D+00  0.0000000000000D+00
315  3.1400000000000D+00  0.0000000000000D+00  0.0000000000000D+00
316  3.1500000000000D+00  0.0000000000000D+00  0.0000000000000D+00
317  3.1600000000000D+00  0.0000000000000D+00  0.0000000000000D+00
318  3.1700000000000D+00  0.0000000000000D+00  0.0000000000000D+00
319  3.1800000000000D+00  0.0000000000000D+00  0.0000000000000D+00
320  3.1900000000000D+00  0.0000000000000D+00  0.0000000000000D+00
321  3.2000000000000D+00  0.0000000000000D+00  0.0000000000000D+00
322  3.2100000000000D+00  0.0000000000000D+00  0.0000000000000D+00
323  3.2200000000000D+00  0.0000000000000D+00  0.0000000000000D+00
324  3.2300000000000D+00  0.0000000000000D+00  0.0000000000000D+00
325  3.2400000000000D+00  0.0000000000000D+00  0.0000000000000D+00
326  3.2500000000000D+00  0.0000000000000D+00  0.0000000000000D+00
327  3.2600000000000D+00  0.0000000000000D+00  0.0000000000000D+00
328  3.2700000000000D+00  0.0000000000000D+00  0.0000000000000D+00
329  3.2800000000000D+00  0.0000000000000D+00  0.0000000000000D+00
330  3.2900000000000D+00  0.0000000000000D+00  0.0000000000000D+00
331  3.3000000000000D+00  0.0000000000000D+00  0.0000000000000D+00
332  3.3100000000000D+00  0.0000000000000D+00  0.0000000000000D+00
333  3.3200000000000D+00  0.0000000000000D+00  0.0000000000000D+00
334  3.3300000000000D+00  0.0000000000000D+00  0.0000000000000D+00
335  3.3400000000000D+00  0.0000000000000D+00  0.0000000000000D+00
336  3.3500000000000D+00  0.0000000000000D+00  0.0000000000000D+00
337  3.3600000000000D+00  0.0000000000000D+00  0.0000000000000D+00
338  3.3700000000000D+00  0.0000000000000D+00  0.0000000000000D+00
339  3.3800000000000D+00  0.0000000000000D+00  0.0000000000000D+00
340  3.3900000000000D+00  0.0000000000000D+00  0.0000000000000D+00
341  3.4000000000000D+00  0.0000000000000D+00  0.0000000000000D+00
342  3.4100000000000D+00  0.0000000000000D+00  0.0000000000000D+00
343  3.4200000000000D+00  0.0000000000000D+00  0.0000000000000D+00
344  3.4300000000000D+00  0.0000000000000D+00  0.0000000000000D+00
345  3.4400000000000D+00  0.0000000000000D+00  0.0000000000000D+00
346  3.4500000000000D+00  0.0000000000000D+00  0.0000000000000D+00
347  3.4600000000000D+00  0.0000000000000D+00  0.0000000000000D+00
348  3.4700000000000D+00  0.0000000000000D+00  0.0000000000000D+00
349  3.4800000000000D+00  0.0000000000000D+00  0.0000000000000D+00
350  3.4900000000000D+00  0.0000000000000D+00  0.0000000000000D+00
351  3.5000000000000D+00  0.0000000000000D+00  0.0000000000000D+00
352  3.5100000000000D+00  0.0000000000000D+00  0.0000000000000D+00
353  3.5200000000000D+00  0.0000000000000D+00  0.0000000000000D+00
354  3.5300000000000D+00  0.0000000000000D+00  0.0000000000000D+00
355  3.5400000000000D+00  0.0000000000000D+00  0.0000000000000D+00
356  3.5500000000000D+00  0.0000000000000D+00  0.0000000000000D+00
357  3.5600000000000D+00  0.0000000000000D+00  0.0000000000000D+00
358  3.5700000000000D+00  0.0000000000000D+00  0.0000000000000D+00
359  3.5800000000000D+00  0.0000000000000D+00  0.0000000000000D+00
360  3.5900000000000D+00  0.0000000000000D+00  0.0000000000000D+00
361  3.6000000000000D+00  0.0000000000000D+00  0.0000000000000D+00
362  3.6100000000000D+00  0.0000000000000D+00  0.0000000000000D+00
363  3.6200000000000D+00  0.0000000000000D+00  0.0000000000000D+00
364  3.6300000000000D+00  0.0000000000000D+00  0.0000000000000D+00
365  3.6400000000000D+00  0.0000000000000D+00  0.0000000000000D+00
366  3.6500000000000D+00  0.0000000000000D+00  0.0000000000000D+00
367  3.6600000000000D+00  0.0000000000000D+00  0.0000000000000D+00
368  3.6700000000000D+00  0.0000000000000D+00  0.0000000000000D+00
369  3.6800000000000D+00  0.0000000000000D+00  0.0000000000000D+00
370  3.6900000000000D+00  0.0000000000000D+00  0.0000000000000D+00
371  3.7000000000000D+00  0.0000000000000D+00  0.0000000000000D+00
372  3.7100000000000D+00  0.0000000000000D+00  0.0000000000000D+00
373  3.7200000000000D+00  0.0000000000000D+00  0.0000000000000D+00
374  3.7300000000000D+00  0.0000000000000D+00  0.0000000000000D+00
375  3.7400000000000D+00  0.0000000000000D+00  0.0000000000000D+00
376  3.7500000000000D+00  0.0000000000000D+00  0.0000000000000D+00
377  3.7600000000000D+00  0.0000000000000D+00  0.0000000000000D+00
378  3.7700000000000D+00  0.0000000000000D+00  0.0000000000000D+00
379  3.7800000000000D+00  0.0000000000000D+00  0.0000000000000D+00
380  3.7900000000000D+00  0.0000000000000D+00  0.0000000000000D+00
381  3.8000000000000D+00  0.0000000000000D+00  0.0000000000000D+00
382  3.8100000000000D+00  0.0000000000000D+00  0.0000000000000D+00
383  3.8200000000000D+00  0.0000000000000D+00  0.0000000000000D+00
384  3.8300000000000D+00  0.0000000000000D+00  0.0000000000000D+00
385  3.8400000000000D+00  0.0000000000000D+00  0.0000000000000D+00
386  3.8500000000000D+00  0.0000000000000D+00  0.0000000000000D+00
387  3.8600000000000D+00  0.0000000000000D+00  0.0000000000000D+00
388  3.8700000000000D+00  0.0000000000000D+00  0.0000000000000D+00
389  3.8800000000000D+00  0.0000000000000D+00  0.0000000000000D+00
390  3.8900000000000D+00  0.0000000000000D+00  0.0000000000000D+00
391  3.9000000000000D+00  0.0000000000000D+00  0.0000000000000D+00
392  3.9100000000000D+00  0.0000000000000D+00  0.0000000000000D+00
393  3.9200000000000D+00  0.0000000000000D+00  0.0000000000000D+00
394  3.9300000000000D+00  0.0000000000000D+00  0.0000000000000D+00
395  3.9400000000000D+00  0.0000000000000D+00  0.0000000000000D+00
396  3.9500000000000D+00  0.0000000000000D+00  0.0000000000000D+00
397  3.9600000000000D+00  0.0000000000000D+00  0.0000000000000D+00
398  3.9700000000000D+00  0.0000000000000D+00  0.0000000000000D+00
399  3.9800000000000D+00  0.0000000000000D+00  0.0000000000000D+00
400  3.9900000000000D+00  0.0000000000000D+00  0.0000000000000D+00
401  4.0000000000000D+00  0.0000000000000D+00  0.0000000000000D+00
402  4.0100000000000D+00  0.0000000000000D+00  0.0000000000000D+00
403  4.0200000000000D+00  0.0000000000000D+00  0.0000000000000D+00
404  4.0300000000000D+00  0.0000000000000D+00  0.0000000000000D+00
405  4.0400000000000D+00  0.0000000000000D+00  0.0000000000000D+00
406  4.0500000000000D+00  0.0000000000000D+00  0.0000000000000D+00
407  4.0600000000000D+00  0.0000000000000D+00  0.0000000000000D+00
408  4.0700000000000D+00  0.0000000000000D+00  0.0000000000000D+00
409  4.0800000000000D+00  0.0000000000000D+00  0.0000000000000D+00
410  4.0900000000000D+00  0.0000000000000D+00  0.0000000000000D+00
411  4.1000000000000D+00  0.0000000000000D+00  0.0000000000000D+00
412  4.1100000000000D+00  0.0000000000000D+00  0.0000000000000D+00
413  4.1200000000000D+00  0.0000000000000D+00  0.0000000000000D+00
414  4.1300000000000D+00  0.0000000000000D+00  0.0000000000000D+00
415  4.1400000000000D+00  0.0000000000000D+00  0.0000000000000D+00
416  4.1500000000000D+00  0.0000000000000D+00  0.0000000000000D+00
417  4.1600000000000D+00  0.0000000000000D+00  0.0000000000000D+00
418  4.1700000000000D+00  0.0000000000000D+00  0.0000000000000D+00
419  4.1800000000000D+00  0.0000000000000D+00  0.0000000000000D+00
420  4.1900000000000D+00  0.0000000000000D+00  0.0000000000000D+00
421  4.2000000000000D+00  0.0000000000000D+00  0.0000000000000D+00
422  4.2100000000000D+00  0.0000000000000D+00  0.0000000000000D+00
423  4.2200000000000D+00  0.0000000000000D+00  0.0000000000000D+00
424  4.2300000000000D+00  0.0000000000000D+00  0.0000000000000D+00
425  4.2400000000000D+00  0.0000000000000D+00  0.0000000000000D+00
426  4.2500000000000D+00  0.0000000000000D+00  0.0000000000000D+00
427  4.2600000000000D+00  0.0000000000000D+00  0.0000000000000D+00
428  4.2700000000000D+00  0.0000000000000D+00  0.0000000000000D+00
429  4.2800000000000D+00  0.0000000000000D+00  0.0000000000000D+00
430  4.2900000000000D+00  0.0000000000000D+00  0.0000000000000D+00
431  4.3000000000000D+00  0.0000000000000D+00  0.0000000000000D+00
432  4.3100000000000D+00  0.0000000000000D+00  0.0000000000000D+00
433  4.3200000000000D+00  0.0000000000000D+00  0.0000000000000D+00
434  4.3300000000000D+00  0.0000000000000D+00  0.0000000000000D+00
435  4.3400000000000D+00  0.0000000000000D+00  0.0000000000000D+00
436  4.3500000000000D+00  0.0000000000000D+00  0.0000000000000D+00
437  4.3600000000000D+00  0.0000000000000D+00  0.0000000000000D+00
438  4.3700000000000D+00  0.0000000000000D+00  0.0000000000000D+00
439  4.3800000000000D+00  0.0000000000000D+00  0.0000000000000D+00
440  4.3900000000000D+00  0.0000000000000D+00  0.0000000000000D+00
441  4.4000000000000D+00  0.0000000000000D+00  0.0000000000000D+00
442  4.4100000000000D+00  0.0000000000000D+00  0.0000000000000D+00
443  4.4200000000000D+00  0.0000000000000D+00  0.0000000000000D+00
444  4.4300000000000D+00  0.0000000000000D+00  0.0000000000000D+00