P     ONCVPSP  r_core=  1.46  1.55  1.51
15.0000      5.0000      151027    zatom,zion,pspd
8   -1013   2     4   600     0    pspcod,pspxc,lmax,lloc,mmax,r2well
5.99000000  9.00000000  0.00000000    rchrg fchrg qchrg
2     2     2     0     0    nproj
0                 extension_switch
0                         6.7176455400021D+00  9.8402483798651D-01
1  0.0000000000000D+00 -1.2514669134323D-08  3.2775251040951D-08
2  1.0000000000000D-02  4.5308163485179D-02 -3.0254753085430D-02
3  2.0000000000000D-02  9.0248292673522D-02 -5.9595465211802D-02
4  3.0000000000000D-02  1.3446002791352D-01 -8.7128186889421D-02
5  4.0000000000000D-02  1.7759819800166D-01 -1.1199873041267D-01
6  5.0000000000000D-02  2.1934001559212D-01 -1.3341150648787D-01
7  6.0000000000000D-02  2.5939180318126D-01 -1.5064713171342D-01
8  7.0000000000000D-02  2.9749510824791D-01 -1.6307843662824D-01
9  8.0000000000000D-02  3.3343207864525D-01 -1.7018453681957D-01
10  9.0000000000000D-02  3.6702998450418D-01 -1.7156266929539D-01
11  1.0000000000000D-01  3.9816479041704D-01 -1.6693754217877D-01
12  1.1000000000000D-01  4.2676370117044D-01 -1.5616799684812D-01
13  1.2000000000000D-01  4.5280662539507D-01 -1.3925083689759D-01
14  1.3000000000000D-01  4.7632652377151D-01 -1.1632173661109D-01
15  1.4000000000000D-01  4.9740863142544D-01 -8.7653201851621D-02
16  1.5000000000000D-01  5.1618856739775D-01 -5.3649617148089D-02
17  1.6000000000000D-01  5.3284936711390D-01 -1.4839473078829D-02
18  1.7000000000000D-01  5.4761749613496D-01  2.8135073418710D-02
19  1.8000000000000D-01  5.6075792469601D-01  7.4531097630632D-02
20  1.9000000000000D-01  5.7256836219168D-01  1.2352000492015D-01
21  2.0000000000000D-01  5.8337276845340D-01  1.7420452195541D-01
22  2.1000000000000D-01  5.9351427401322D-01  2.2563723525654D-01
23  2.2000000000000D-01  6.0334765424829D-01  2.7684029779662D-01
24  2.3000000000000D-01  6.1323151208266D-01  3.2682589882188D-01
25  2.4000000000000D-01  6.2352033058242D-01  3.7461707467087D-01
26  2.5000000000000D-01  6.3455656017092D-01  4.1926842954788D-01
27  2.6000000000000D-01  6.4666290523283D-01  4.5988633515211D-01
28  2.7000000000000D-01  6.6013497155745D-01  4.9564818681135D-01
29  2.8000000000000D-01  6.7523442944603D-01  5.2582031117439D-01
30  2.9000000000000D-01  6.9218283749787D-01  5.4977414625957D-01
31  3.0000000000000D-01  7.1115625927951D-01  5.6700034825157D-01
32  3.1000000000000D-01  7.3228078951851D-01  5.7712052023600D-01
33  3.2000000000000D-01  7.5562908844944D-01  5.7989630526894D-01
34  3.3000000000000D-01  7.8121800282854D-01  5.7523563886955D-01
35  3.4000000000000D-01  8.0900733032185D-01  5.6319601315650D-01
36  3.5000000000000D-01  8.3889976089010D-01  5.4398466529482D-01
37  3.6000000000000D-01  8.7074200490454D-01  5.1795566546680D-01
38  3.7000000000000D-01  9.0432709350625D-01  4.8560394298304D-01
39  3.8000000000000D-01  9.3939781265606D-01  4.4755635212726D-01
40  3.9000000000000D-01  9.7565120889745D-01  4.0455994061272D-01
41  4.0000000000000D-01  1.0127440825474D+00  3.5746764186776D-01
42  4.1000000000000D-01  1.0502993632944D+00  3.0722166657709D-01
43  4.2000000000000D-01  1.0879132444448D+00  2.5483491786411D-01
44  4.3000000000000D-01  1.1251629357093D+00  2.0137079719148D-01
45  4.4000000000000D-01  1.1616148807979D+00  1.4792180358679D-01
46  4.5000000000000D-01  1.1968332754941D+00  9.5587356408669D-02
47  4.6000000000000D-01  1.2303887145252D+00  4.5451290950701D-02
48  4.7000000000000D-01  1.2618667916174D+00 -1.4405136991940D-03
49  4.8000000000000D-01  1.2908764767119D+00 -4.4101914231159D-02
50  4.9000000000000D-01  1.3170580974590D+00 -8.1627238212860D-02
51  5.0000000000000D-01  1.3400907587556D+00 -1.1321054040918D-01
52  5.1000000000000D-01  1.3596990441435D+00 -1.3816297252467D-01
53  5.2000000000000D-01  1.3756588561660D+00 -1.5592789351884D-01
54  5.3000000000000D-01  1.3878022690240D+00 -1.6609339036301D-01
55  5.4000000000000D-01  1.3960212858056D+00 -1.6840192883511D-01
56  5.5000000000000D-01  1.4002704138246D+00 -1.6275690976896D-01
57  5.6000000000000D-01  1.4005679947100D+00 -1.4922596680920D-01
58  5.7000000000000D-01  1.3969962505665D+00 -1.2804090644179D-01
59  5.8000000000000D-01  1.3897000330387D+00 -9.9594257954422D-02
60  5.9000000000000D-01  1.3788842882583D+00 -6.4432469497858D-02
61  6.0000000000000D-01  1.3648102765862D+00 -2.3245854341682D-02
62  6.1000000000000D-01  1.3477906116391D+00  2.3144541621883D-02
63  6.2000000000000D-01  1.3281832073540D+00  7.3802916581173D-02
64  6.3000000000000D-01  1.3063842448046D+00  1.2769723913743D-01
65  6.4000000000000D-01  1.2828202911926D+00  1.8371997557027D-01
66  6.5000000000000D-01  1.2579397218097D+00  2.4071062139636D-01
67  6.6000000000000D-01  1.2322036112854D+00  2.9747960012433D-01
68  6.7000000000000D-01  1.2060762727222D+00  3.5283306015914D-01
69  6.8000000000000D-01  1.1800156322223D+00  4.0559807775400D-01
70  6.9000000000000D-01  1.1544636315455D+00  4.5464776047187D-01
71  7.0000000000000D-01  1.1298368530705D+00  4.9892574218106D-01
72  7.1000000000000D-01  1.1065175588534D+00  5.3746956715512D-01
73  7.2000000000000D-01  1.0848453293614D+00  5.6943247746808D-01
74  7.3000000000000D-01  1.0651094774849D+00  5.9410314435323D-01
75  7.4000000000000D-01  1.0475423999152D+00  6.1092291993590D-01
76  7.5000000000000D-01  1.0323140111139D+00  6.1950023027360D-01
77  7.6000000000000D-01  1.0195273851498D+00  6.1962178321926D-01
78  7.7000000000000D-01  1.0092157082248D+00  6.1126032377725D-01
79  7.8000000000000D-01  1.0013406197575D+00  5.9457873527676D-01
80  7.9000000000000D-01  9.9579199338092D-01  5.6993035442434D-01
81  8.0000000000000D-01  9.9238918131413D-01  5.3785544161028D-01
82  8.1000000000000D-01  9.9088371695843D-01  4.9907382301066D-01
83  8.2000000000000D-01  9.9096344176776D-01  4.5447379663429D-01
84  8.3000000000000D-01  9.9225799402323D-01  4.0509746904915D-01
85  8.4000000000000D-01  9.9434556965089D-01  3.5212276161607D-01
86  8.5000000000000D-01  9.9676083921206D-01  2.9684239322840D-01
87  8.6000000000000D-01  9.9900388118264D-01  2.4064020944171D-01
88  8.7000000000000D-01  1.0005499701100D+00  1.8496528420445D-01
89  8.8000000000000D-01  1.0008600396309D+00  1.3130426901436D-01
90  8.9000000000000D-01  9.9939162504274D-01  8.1152504212692D-02
91  9.0000000000000D-01  9.9561007846263D-01  3.5984437436011D-02
92  9.1000000000000D-01  9.8899984185198D-01 -2.7760856987987D-03
93  9.2000000000000D-01  9.7907555950064D-01 -3.3785084277667D-02
94  9.3000000000000D-01  9.6539281207207D-01 -5.5806685425870D-02
95  9.4000000000000D-01  9.4755825902840D-01 -6.7739788339623D-02
96  9.5000000000000D-01  9.2523898509500D-01 -6.8642612642115D-02
97  9.6000000000000D-01  8.9817085949554D-01 -5.7754629393563D-02
98  9.7000000000000D-01  8.6616573307864D-01 -3.4515416486426D-02
99  9.8000000000000D-01  8.2911731891287D-01  1.4199657622381D-03
100  9.9000000000000D-01  7.8700562531619D-01  5.0169421249485D-02
101  1.0000000000000D+00  7.3989983628778D-01  1.1161636078060D-01
102  1.0100000000000D+00  6.8795956275739D-01  1.8540653964199D-01
103  1.0200000000000D+00  6.3143441804373D-01  2.7094930988919D-01
104  1.0300000000000D+00  5.7066190288032D-01  3.6742332300014D-01
105  1.0400000000000D+00  5.0606361576151D-01  4.7378663853690D-01
106  1.0500000000000D+00  4.3813983757770D-01  5.8879110706007D-01
107  1.0600000000000D+00  3.6746257037060D-01  7.1100081438305D-01
108  1.0700000000000D+00  2.9466713958582D-01  8.3881429658731D-01
109  1.0800000000000D+00  2.2044249821067D-01  9.7049015900857D-01
110  1.0900000000000D+00  1.4552039572389D-01  1.1041756679800D+00
111  1.1000000000000D+00  7.0663598545376D-02  1.2379378217762D+00
112  1.1100000000000D+00 -3.3466311444220D-03  1.3697963543214D+00
113  1.1200000000000D+00 -7.5723576481774D-02  1.4977580863392D+00
114  1.1300000000000D+00 -1.4568839310253D-01  1.6198520071761D+00
115  1.1400000000000D+00 -2.1248348100010D-01  1.7341644506445D+00
116  1.1500000000000D+00 -2.7538565566120D-01  1.8388737181680D+00
117  1.1600000000000D+00 -3.3371887583890D-01  1.9322835100123D+00
118  1.1700000000000D+00 -3.8686629226998D-01  2.0128545440071D+00
119  1.1800000000000D+00 -4.3428138750723D-01  2.0792337568373D+00
120  1.1900000000000D+00 -4.7549799704140D-01  2.1302805360320D+00
121  1.2000000000000D+00 -5.1013902105089D-01  2.1650894814630D+00
122  1.2100000000000D+00 -5.3792365219018D-01  2.1830092377017D+00
123  1.2200000000000D+00 -5.5867297561462D-01  2.1836570199603D+00
124  1.2300000000000D+00 -5.7231382932334D-01  2.1669285405019D+00
125  1.2400000000000D+00 -5.7888083919539D-01  2.1330031118063D+00
126  1.2500000000000D+00 -5.7851656938051D-01  2.0823437721692D+00
127  1.2600000000000D+00 -5.7146978102950D-01  2.0156924174052D+00
128  1.2700000000000D+00 -5.5809181488057D-01  1.9340599817008D+00
129  1.2800000000000D+00 -5.3883113524254D-01  1.8387117687796D+00
130  1.2900000000000D+00 -5.1422613808254D-01  1.7311482062589D+00
131  1.3000000000000D+00 -4.8489633379607D-01  1.6130813167740D+00
132  1.3100000000000D+00 -4.5153204040866D-01  1.4864072658127D+00
133  1.3200000000000D+00 -4.1488278187039D-01  1.3531755012985D+00
134  1.3300000000000D+00 -3.7574457650254D-01  1.2155549746357D+00
135  1.3400000000000D+00 -3.3494633670271D-01  1.0757980278851D+00
136  1.3500000000000D+00 -2.9333562704997D-01  9.3620260007702D-01
137  1.3600000000000D+00 -2.5176401665935D-01  7.9907337600787D-01
138  1.3700000000000D+00 -2.1107229735671D-01  6.6668259476713D-01
139  1.3800000000000D+00 -1.7207581579255D-01  5.4123117318066D-01
140  1.3900000000000D+00 -1.3555019313607D-01  4.2481086687819D-01
141  1.4000000000000D+00 -1.0221767641079D-01  3.1936811308048D-01
142  1.4100000000000D+00 -7.2735851345379D-02  2.2667480889229D-01
143  1.4200000000000D+00 -4.7696868544671D-02  1.4833118786392D-01
144  1.4300000000000D+00 -2.7476866246807D-02  8.5303931497739D-02
145  1.4400000000000D+00 -1.2627275218479D-02  3.9142255981383D-02
146  1.4500000000000D+00 -3.8131615852160D-03  1.1788697508338D-02
147  1.4600000000000D+00 -1.5434209673007D-04  4.5091435062761D-04
148  1.4700000000000D+00  4.0316474343739D-04 -1.2606877632510D-03
149  1.4800000000000D+00 -4.7531041832942D-05  1.4829493168959D-04
150  1.4900000000000D+00 -1.1255565943800D-04  3.5070715679476D-04
151  1.5000000000000D+00  1.6739953319495D-05 -5.2355907386784D-05
152  1.5100000000000D+00  1.5351945585715D-05 -4.7985811937701D-05
153  1.5200000000000D+00  3.1003287580681D-08 -2.9041409625569D-08
154  1.5300000000000D+00  1.2573368099918D-08 -1.1777729455709D-08
155  1.5400000000000D+00  0.0000000000000D+00  0.0000000000000D+00
156  1.5500000000000D+00  0.0000000000000D+00  0.0000000000000D+00
157  1.5600000000000D+00  0.0000000000000D+00  0.0000000000000D+00
158  1.5700000000000D+00  0.0000000000000D+00  0.0000000000000D+00
159  1.5800000000000D+00  0.0000000000000D+00  0.0000000000000D+00
160  1.5900000000000D+00  0.0000000000000D+00  0.0000000000000D+00
161  1.6000000000000D+00  0.0000000000000D+00  0.0000000000000D+00
162  1.6100000000000D+00  0.0000000000000D+00  0.0000000000000D+00
163  1.6200000000000D+00  0.0000000000000D+00  0.0000000000000D+00
164  1.6300000000000D+00  0.0000000000000D+00  0.0000000000000D+00
165  1.6400000000000D+00  0.0000000000000D+00  0.0000000000000D+00
166  1.6500000000000D+00  0.0000000000000D+00  0.0000000000000D+00
167  1.6600000000000D+00  0.0000000000000D+00  0.0000000000000D+00
168  1.6700000000000D+00  0.0000000000000D+00  0.0000000000000D+00
169  1.6800000000000D+00  0.0000000000000D+00  0.0000000000000D+00
170  1.6900000000000D+00  0.0000000000000D+00  0.0000000000000D+00
171  1.7000000000000D+00  0.0000000000000D+00  0.0000000000000D+00
172  1.7100000000000D+00  0.0000000000000D+00  0.0000000000000D+00
173  1.7200000000000D+00  0.0000000000000D+00  0.0000000000000D+00
174  1.7300000000000D+00  0.0000000000000D+00  0.0000000000000D+00
175  1.7400000000000D+00  0.0000000000000D+00  0.0000000000000D+00
176  1.7500000000000D+00  0.0000000000000D+00  0.0000000000000D+00
177  1.7600000000000D+00  0.0000000000000D+00  0.0000000000000D+00
178  1.7700000000000D+00  0.0000000000000D+00  0.0000000000000D+00
179  1.7800000000000D+00  0.0000000000000D+00  0.0000000000000D+00
180  1.7900000000000D+00  0.0000000000000D+00  0.0000000000000D+00
181  1.8000000000000D+00  0.0000000000000D+00  0.0000000000000D+00
182  1.8100000000000D+00  0.0000000000000D+00  0.0000000000000D+00
183  1.8200000000000D+00  0.0000000000000D+00  0.0000000000000D+00
184  1.8300000000000D+00  0.0000000000000D+00  0.0000000000000D+00
185  1.8400000000000D+00  0.0000000000000D+00  0.0000000000000D+00
186  1.8500000000000D+00  0.0000000000000D+00  0.0000000000000D+00
187  1.8600000000000D+00  0.0000000000000D+00  0.0000000000000D+00
188  1.8700000000000D+00  0.0000000000000D+00  0.0000000000000D+00
189  1.8800000000000D+00  0.0000000000000D+00  0.0000000000000D+00
190  1.8900000000000D+00  0.0000000000000D+00  0.0000000000000D+00
191  1.9000000000000D+00  0.0000000000000D+00  0.0000000000000D+00
192  1.9100000000000D+00  0.0000000000000D+00  0.0000000000000D+00
193  1.9200000000000D+00  0.0000000000000D+00  0.0000000000000D+00
194  1.9300000000000D+00  0.0000000000000D+00  0.0000000000000D+00
195  1.9400000000000D+00  0.0000000000000D+00  0.0000000000000D+00
196  1.9500000000000D+00  0.0000000000000D+00  0.0000000000000D+00
197  1.9600000000000D+00  0.0000000000000D+00  0.0000000000000D+00
198  1.9700000000000D+00  0.0000000000000D+00  0.0000000000000D+00
199  1.9800000000000D+00  0.0000000000000D+00  0.0000000000000D+00
200  1.9900000000000D+00  0.0000000000000D+00  0.0000000000000D+00
201  2.0000000000000D+00  0.0000000000000D+00  0.0000000000000D+00
202  2.0100000000000D+00  0.0000000000000D+00  0.0000000000000D+00
203  2.0200000000000D+00  0.0000000000000D+00  0.0000000000000D+00
204  2.0300000000000D+00  0.0000000000000D+00  0.0000000000000D+00
205  2.0400000000000D+00  0.0000000000000D+00  0.0000000000000D+00
206  2.0500000000000D+00  0.0000000000000D+00  0.0000000000000D+00
207  2.0600000000000D+00  0.0000000000000D+00  0.0000000000000D+00
208  2.0700000000000D+00  0.0000000000000D+00  0.0000000000000D+00
209  2.0800000000000D+00  0.0000000000000D+00  0.0000000000000D+00
210  2.0900000000000D+00  0.0000000000000D+00  0.0000000000000D+00
211  2.1000000000000D+00  0.0000000000000D+00  0.0000000000000D+00
212  2.1100000000000D+00  0.0000000000000D+00  0.0000000000000D+00
213  2.1200000000000D+00  0.0000000000000D+00  0.0000000000000D+00
214  2.1300000000000D+00  0.0000000000000D+00  0.0000000000000D+00
215  2.1400000000000D+00  0.0000000000000D+00  0.0000000000000D+00
216  2.1500000000000D+00  0.0000000000000D+00  0.0000000000000D+00
217  2.1600000000000D+00  0.0000000000000D+00  0.0000000000000D+00
218  2.1700000000000D+00  0.0000000000000D+00  0.0000000000000D+00
219  2.1800000000000D+00  0.0000000000000D+00  0.0000000000000D+00
220  2.1900000000000D+00  0.0000000000000D+00  0.0000000000000D+00
221  2.2000000000000D+00  0.0000000000000D+00  0.0000000000000D+00
222  2.2100000000000D+00  0.0000000000000D+00  0.0000000000000D+00
223  2.2200000000000D+00  0.0000000000000D+00  0.0000000000000D+00
224  2.2300000000000D+00  0.0000000000000D+00  0.0000000000000D+00
225  2.2400000000000D+00  0.0000000000000D+00  0.0000000000000D+00
226  2.2500000000000D+00  0.0000000000000D+00  0.0000000000000D+00
227  2.2600000000000D+00  0.0000000000000D+00  0.0000000000000D+00
228  2.2700000000000D+00  0.0000000000000D+00  0.0000000000000D+00
229  2.2800000000000D+00  0.0000000000000D+00  0.0000000000000D+00
230  2.2900000000000D+00  0.0000000000000D+00  0.0000000000000D+00
231  2.3000000000000D+00  0.0000000000000D+00  0.0000000000000D+00
232  2.3100000000000D+00  0.0000000000000D+00  0.0000000000000D+00
233  2.3200000000000D+00  0.0000000000000D+00  0.0000000000000D+00
234  2.3300000000000D+00  0.0000000000000D+00  0.0000000000000D+00
235  2.3400000000000D+00  0.0000000000000D+00  0.0000000000000D+00
236  2.3500000000000D+00  0.0000000000000D+00  0.0000000000000D+00
237  2.3600000000000D+00  0.0000000000000D+00  0.0000000000000D+00
238  2.3700000000000D+00  0.0000000000000D+00  0.0000000000000D+00
239  2.3800000000000D+00  0.0000000000000D+00  0.0000000000000D+00
240  2.3900000000000D+00  0.0000000000000D+00  0.0000000000000D+00
241  2.4000000000000D+00  0.0000000000000D+00  0.0000000000000D+00
242  2.4100000000000D+00  0.0000000000000D+00  0.0000000000000D+00
243  2.4200000000000D+00  0.0000000000000D+00  0.0000000000000D+00
244  2.4300000000000D+00  0.0000000000000D+00  0.0000000000000D+00
245  2.4400000000000D+00  0.0000000000000D+00  0.0000000000000D+00
246  2.4500000000000D+00  0.0000000000000D+00  0.0000000000000D+00
247  2.4600000000000D+00  0.0000000000000D+00  0.0000000000000D+00
248  2.4700000000000D+00  0.0000000000000D+00  0.0000000000000D+00
249  2.4800000000000D+00  0.0000000000000D+00  0.0000000000000D+00
250  2.4900000000000D+00  0.0000000000000D+00  0.0000000000000D+00
251  2.5000000000000D+00  0.0000000000000D+00  0.0000000000000D+00
252  2.5100000000000D+00  0.0000000000000D+00  0.0000000000000D+00
253  2.5200000000000D+00  0.0000000000000D+00  0.0000000000000D+00
254  2.5300000000000D+00  0.0000000000000D+00  0.0000000000000D+00
255  2.5400000000000D+00  0.0000000000000D+00  0.0000000000000D+00
256  2.5500000000000D+00  0.0000000000000D+00  0.0000000000000D+00
257  2.5600000000000D+00  0.0000000000000D+00  0.0000000000000D+00
258  2.5700000000000D+00  0.0000000000000D+00  0.0000000000000D+00
259  2.5800000000000D+00  0.0000000000000D+00  0.0000000000000D+00
260  2.5900000000000D+00  0.0000000000000D+00  0.0000000000000D+00
261  2.6000000000000D+00  0.0000000000000D+00  0.0000000000000D+00
262  2.6100000000000D+00  0.0000000000000D+00  0.0000000000000D+00
263  2.6200000000000D+00  0.0000000000000D+00  0.0000000000000D+00
264  2.6300000000000D+00  0.0000000000000D+00  0.0000000000000D+00
265  2.6400000000000D+00  0.0000000000000D+00  0.0000000000000D+00
266  2.6500000000000D+00  0.0000000000000D+00  0.0000000000000D+00
267  2.6600000000000D+00  0.0000000000000D+00  0.0000000000000D+00
268  2.6700000000000D+00  0.0000000000000D+00  0.0000000000000D+00
269  2.6800000000000D+00  0.0000000000000D+00  0.0000000000000D+00
270  2.6900000000000D+00  0.0000000000000D+00  0.0000000000000D+00
271  2.7000000000000D+00  0.0000000000000D+00  0.0000000000000D+00
272  2.7100000000000D+00  0.0000000000000D+00  0.0000000000000D+00
273  2.7200000000000D+00  0.0000000000000D+00  0.0000000000000D+00
274  2.7300000000000D+00  0.0000000000000D+00  0.0000000000000D+00
275  2.7400000000000D+00  0.0000000000000D+00  0.0000000000000D+00
276  2.7500000000000D+00  0.0000000000000D+00  0.0000000000000D+00
277  2.7600000000000D+00  0.0000000000000D+00  0.0000000000000D+00
278  2.7700000000000D+00  0.0000000000000D+00  0.0000000000000D+00
279  2.7800000000000D+00  0.0000000000000D+00  0.0000000000000D+00
280  2.7900000000000D+00  0.0000000000000D+00  0.0000000000000D+00
281  2.8000000000000D+00  0.0000000000000D+00  0.0000000000000D+00
282  2.8100000000000D+00  0.0000000000000D+00  0.0000000000000D+00
283  2.8200000000000D+00  0.0000000000000D+00  0.0000000000000D+00
284  2.8300000000000D+00  0.0000000000000D+00  0.0000000000000D+00
285  2.8400000000000D+00  0.0000000000000D+00  0.0000000000000D+00
286  2.8500000000000D+00  0.0000000000000D+00  0.0000000000000D+00
287  2.8600000000000D+00  0.0000000000000D+00  0.0000000000000D+00
288  2.8700000000000D+00  0.0000000000000D+00  0.0000000000000D+00
289  2.8800000000000D+00  0.0000000000000D+00  0.0000000000000D+00
290  2.8900000000000D+00  0.0000000000000D+00  0.0000000000000D+00
291  2.9000000000000D+00  0.0000000000000D+00  0.0000000000000D+00
292  2.9100000000000D+00  0.0000000000000D+00  0.0000000000000D+00
293  2.9200000000000D+00  0.0000000000000D+00  0.0000000000000D+00
294  2.9300000000000D+00  0.0000000000000D+00  0.0000000000000D+00
295  2.9400000000000D+00  0.0000000000000D+00  0.0000000000000D+00
296  2.9500000000000D+00  0.0000000000000D+00  0.0000000000000D+00
297  2.9600000000000D+00  0.0000000000000D+00  0.0000000000000D+00
298  2.9700000000000D+00  0.0000000000000D+00  0.0000000000000D+00
299  2.9800000000000D+00  0.0000000000000D+00  0.0000000000000D+00
300  2.9900000000000D+00  0.0000000000000D+00  0.0000000000000D+00
301  3.0000000000000D+00  0.0000000000000D+00  0.0000000000000D+00
302  3.0100000000000D+00  0.0000000000000D+00  0.0000000000000D+00
303  3.0200000000000D+00  0.0000000000000D+00  0.0000000000000D+00
304  3.0300000000000D+00  0.0000000000000D+00  0.0000000000000D+00
305  3.0400000000000D+00  0.0000000000000D+00  0.0000000000000D+00
306  3.0500000000000D+00  0.0000000000000D+00  0.0000000000000D+00
307  3.0600000000000D+00  0.0000000000000D+00  0.0000000000000D+00
308  3.0700000000000D+00  0.0000000000000D+00  0.0000000000000D+00
309  3.0800000000000D+00  0.0000000000000D+00  0.0000000000000D+00
310  3.0900000000000D+00  0.0000000000000D+00  0.0000000000000D+00
311  3.1000000000000D+00  0.0000000000000D+00  0.0000000000000D+00
312  3.1100000000000D+00  0.0000000000000D+00  0.0000000000000D+00
313  3.1200000000000D+00  0.0000000000000D+00  0.0000000000000D+00
314  3.1300000000000D+00  0.0000000000000D+00  0.0000000000000D+00
315  3.1400000000000D+00  0.0000000000000D+00  0.0000000000000D+00
316  3.1500000000000D+00  0.0000000000000D+00  0.0000000000000D+00
317  3.1600000000000D+00  0.0000000000000D+00  0.0000000000000D+00
318  3.1700000000000D+00  0.0000000000000D+00  0.0000000000000D+00
319  3.1800000000000D+00  0.0000000000000D+00  0.0000000000000D+00
320  3.1900000000000D+00  0.0000000000000D+00  0.0000000000000D+00
321  3.2000000000000D+00  0.0000000000000D+00  0.0000000000000D+00
322  3.2100000000000D+00  0.0000000000000D+00  0.0000000000000D+00
323  3.2200000000000D+00  0.0000000000000D+00  0.0000000000000D+00
324  3.2300000000000D+00  0.0000000000000D+00  0.0000000000000D+00
325  3.2400000000000D+00  0.0000000000000D+00  0.0000000000000D+00
326  3.2500000000000D+00  0.0000000000000D+00  0.0000000000000D+00
327  3.2600000000000D+00  0.0000000000000D+00  0.0000000000000D+00
328  3.2700000000000D+00  0.0000000000000D+00  0.0000000000000D+00
329  3.2800000000000D+00  0.0000000000000D+00  0.0000000000000D+00
330  3.2900000000000D+00  0.0000000000000D+00  0.0000000000000D+00
331  3.3000000000000D+00  0.0000000000000D+00  0.0000000000000D+00
332  3.3100000000000D+00  0.0000000000000D+00  0.0000000000000D+00
333  3.3200000000000D+00  0.0000000000000D+00  0.0000000000000D+00
334  3.3300000000000D+00  0.0000000000000D+00  0.0000000000000D+00
335  3.3400000000000D+00  0.0000000000000D+00  0.0000000000000D+00
336  3.3500000000000D+00  0.0000000000000D+00  0.0000000000000D+00
337  3.3600000000000D+00  0.0000000000000D+00  0.0000000000000D+00
338  3.3700000000000D+00  0.0000000000000D+00  0.0000000000000D+00
339  3.3800000000000D+00  0.0000000000000D+00  0.0000000000000D+00
340  3.3900000000000D+00  0.0000000000000D+00  0.0000000000000D+00
341  3.4000000000000D+00  0.0000000000000D+00  0.0000000000000D+00
342  3.4100000000000D+00  0.0000000000000D+00  0.0000000000000D+00
343  3.4200000000000D+00  0.0000000000000D+00  0.0000000000000D+00
344  3.4300000000000D+00  0.0000000000000D+00  0.0000000000000D+00
345  3.4400000000000D+00  0.0000000000000D+00  0.0000000000000D+00
346  3.4500000000000D+00  0.0000000000000D+00  0.0000000000000D+00
347  3.4600000000000D+00  0.0000000000000D+00  0.0000000000000D+00
348  3.4700000000000D+00  0.0000000000000D+00  0.0000000000000D+00
349  3.4800000000000D+00  0.0000000000000D+00  0.0000000000000D+00
350  3.4900000000000D+00  0.0000000000000D+00  0.0000000000000D+00
351  3.5000000000000D+00  0.0000000000000D+00  0.0000000000000D+00
352  3.5100000000000D+00  0.0000000000000D+00  0.0000000000000D+00
353  3.5200000000000D+00  0.0000000000000D+00  0.0000000000000D+00
354  3.5300000000000D+00  0.0000000000000D+00  0.0000000000000D+00
355  3.5400000000000D+00  0.0000000000000D+00  0.0000000000000D+00
356  3.5500000000000D+00  0.0000000000000D+00  0.0000000000000D+00
357  3.5600000000000D+00  0.0000000000000D+00  0.0000000000000D+00
358  3.5700000000000D+00  0.0000000000000D+00  0.0000000000000D+00
359  3.5800000000000D+00  0.0000000000000D+00  0.0000000000000D+00
360  3.5900000000000D+00  0.0000000000000D+00  0.0000000000000D+00
361  3.6000000000000D+00  0.0000000000000D+00  0.0000000000000D+00
362  3.6100000000000D+00  0.0000000000000D+00  0.0000000000000D+00
363  3.6200000000000D+00  0.0000000000000D+00  0.0000000000000D+00
364  3.6300000000000D+00  0.0000000000000D+00  0.0000000000000D+00
365  3.6400000000000D+00  0.0000000000000D+00  0.0000000000000D+00
366  3.6500000000000D+00  0.0000000000000D+00  0.0000000000000D+00
367  3.6600000000000D+00  0.0000000000000D+00  0.0000000000000D+00
368  3.6700000000000D+00  0.0000000000000D+00  0.0000000000000D+00
369  3.6800000000000D+00  0.0000000000000D+00  0.0000000000000D+00
370  3.6900000000000D+00  0.0000000000000D+00  0.0000000000000D+00
371  3.7000000000000D+00  0.0000000000000D+00  0.0000000000000D+00
372  3.7100000000000D+00  0.0000000000000D+00  0.0000000000000D+00
373  3.7200000000000D+00  0.0000000000000D+00  0.0000000000000D+00
374  3.7300000000000D+00  0.0000000000000D+00  0.0000000000000D+00
375  3.7400000000000D+00  0.0000000000000D+00  0.0000000000000D+00
376  3.7500000000000D+00  0.0000000000000D+00  0.0000000000000D+00
377  3.7600000000000D+00  0.0000000000000D+00  0.0000000000000D+00
378  3.7700000000000D+00  0.0000000000000D+00  0.0000000000000D+00
379  3.7800000000000D+00  0.0000000000000D+00  0.0000000000000D+00
380  3.7900000000000D+00  0.0000000000000D+00  0.0000000000000D+00
381  3.8000000000000D+00  0.0000000000000D+00  0.0000000000000D+00
382  3.8100000000000D+00  0.0000000000000D+00  0.0000000000000D+00
383  3.8200000000000D+00  0.0000000000000D+00  0.0000000000000D+00
384  3.8300000000000D+00  0.0000000000000D+00  0.0000000000000D+00
385  3.8400000000000D+00  0.0000000000000D+00  0.0000000000000D+00
386  3.8500000000000D+00  0.0000000000000D+00  0.0000000000000D+00
387  3.8600000000000D+00  0.0000000000000D+00  0.0000000000000D+00
388  3.8700000000000D+00  0.0000000000000D+00  0.0000000000000D+00
389  3.8800000000000D+00  0.0000000000000D+00  0.0000000000000D+00
390  3.8900000000000D+00  0.0000000000000D+00  0.0000000000000D+00
391  3.9000000000000D+00  0.0000000000000D+00  0.0000000000000D+00
392  3.9100000000000D+00  0.0000000000000D+00  0.0000000000000D+00
393  3.9200000000000D+00  0.0000000000000D+00  0.0000000000000D+00
394  3.9300000000000D+00  0.0000000000000D+00  0.0000000000000D+00
395  3.9400000000000D+00  0.0000000000000D+00  0.0000000000000D+00
396  3.9500000000000D+00  0.0000000000000D+00  0.0000000000000D+00
397  3.9600000000000D+00  0.0000000000000D+00  0.0000000000000D+00
398  3.9700000000000D+00  0.0000000000000D+00  0.0000000000000D+00
399  3.9800000000000D+00  0.0000000000000D+00  0.0000000000000D+00
400  3.9900000000000D+00  0.0000000000000D+00  0.0000000000000D+00
401  4.0000000000000D+00  0.0000000000000D+00  0.0000000000000D+00
402  4.0100000000000D+00  0.0000000000000D+00  0.0000000000000D+00
403  4.0200000000000D+00  0.0000000000000D+00  0.0000000000000D+00
404  4.0300000000000D+00  0.0000000000000D+00  0.0000000000000D+00
405  4.0400000000000D+00  0.0000000000000D+00  0.0000000000000D+00
406  4.0500000000000D+00  0.0000000000000D+00  0.0000000000000D+00
407  4.0600000000000D+00  0.0000000000000D+00  0.0000000000000D+00
408  4.0700000000000D+00  0.0000000000000D+00  0.0000000000000D+00
409  4.0800000000000D+00  0.0000000000000D+00  0.0000000000000D+00
410  4.0900000000000D+00  0.0000000000000D+00  0.0000000000000D+00
411  4.1000000000000D+00  0.0000000000000D+00  0.0000000000000D+00
412  4.1100000000000D+00  0.0000000000000D+00  0.0000000000000D+00
413  4.1200000000000D+00  0.0000000000000D+00  0.0000000000000D+00
414  4.1300000000000D+00  0.0000000000000D+00  0.0000000000000D+00
415  4.1400000000000D+00  0.0000000000000D+00  0.0000000000000D+00
416  4.1500000000000D+00  0.0000000000000D+00  0.0000000000000D+00
417  4.1600000000000D+00  0.0000000000000D+00  0.0000000000000D+00
418  4.1700000000000D+00  0.0000000000000D+00  0.0000000000000D+00
419  4.1800000000000D+00  0.0000000000000D+00  0.0000000000000D+00
420  4.1900000000000D+00  0.0000000000000D+00  0.0000000000000D+00
421  4.2000000000000D+00  0.0000000000000D+00  0.0000000000000D+00
422  4.2100000000000D+00  0.0000000000000D+00  0.0000000000000D+00
423  4.2200000000000D+00  0.0000000000000D+00  0.0000000000000D+00
424  4.2300000000000D+00  0.0000000000000D+00  0.0000000000000D+00
425  4.2400000000000D+00  0.0000000000000D+00  0.0000000000000D+00
426  4.2500000000000D+00  0.0000000000000D+00  0.0000000000000D+00
427  4.2600000000000D+00  0.0000000000000D+00  0.0000000000000D+00
428  4.2700000000000D+00  0.0000000000000D+00  0.0000000000000D+00
429  4.2800000000000D+00  0.0000000000000D+00  0.0000000000000D+00
430  4.2900000000000D+00  0.0000000000000D+00  0.0000000000000D+00
431  4.3000000000000D+00  0.0000000000000D+00  0.0000000000000D+00
432  4.3100000000000D+00  0.0000000000000D+00  0.0000000000000D+00
433  4.3200000000000D+00  0.0000000000000D+00  0.0000000000000D+00
434  4.3300000000000D+00  0.0000000000000D+00  0.0000000000000D+00
435  4.3400000000000D+00  0.0000000000000D+00  0.0000000000000D+00
436  4.3500000000000D+00  0.0000000000000D+00  0.0000000000000D+00
437  4.3600000000000D+00  0.0000000000000D+00  0.0000000000000D+00
438  4.3700000000000D+00  0.0000000000000D+00  0.0000000000000D+00
439  4.3800000000000D+00  0.0000000000000D+00  0.0000000000000D+00
440  4.3900000000000D+00  0.0000000000000D+00  0.0000000000000D+00
441  4.4000000000000D+00  0.0000000000000D+00  0.0000000000000D+00
442  4.4100000000000D+00  0.0000000000000D+00  0.0000000000000D+00
443  4.4200000000000D+00  0.0000000000000D+00  0.0000000000000D+00
444  4.4300000000000D+00  0.0000000000000D+00  0.0000000000000D+00