O     ONCVPSP  r_core=  1.26  1.36  1.26
8.0000      6.0000      151001    zatom,zion,pspd
8   -1013   2     4   600     0    pspcod,pspxc,lmax,lloc,mmax,r2well
5.99000000  4.00000000  0.00000000    rchrg fchrg qchrg
2     2     1     0     0    nproj
1                 extension_switch
0                         6.1728887214290D+00  1.1127068543643D+00
1  0.0000000000000D+00 -1.9200515510853D-08  4.5319476560390D-08
2  1.0000000000000D-02  1.0703498503002D-01 -4.8823062198268D-02
3  2.0000000000000D-02  2.1321188188865D-01 -9.6116464067720D-02
4  3.0000000000000D-02  3.1768670697914D-01 -1.4038224584967D-01
5  4.0000000000000D-02  4.1964341999326D-01 -1.8018522678460D-01
6  5.0000000000000D-02  5.1830723593675D-01 -2.1418285114036D-01
7  6.0000000000000D-02  6.1295715961046D-01 -2.4115321511906D-01
8  7.0000000000000D-02  7.0293750641541D-01 -2.6002072267825D-01
9  8.0000000000000D-02  7.8766819255050D-01 -2.6987886362118D-01
10  9.0000000000000D-02  8.6665360098898D-01 -2.7000966234308D-01
11  1.0000000000000D-01  9.3948985661704D-01 -2.5989940933032D-01
12  1.1000000000000D-01  1.0058703740894D+00 -2.3925035870044D-01
13  1.2000000000000D-01  1.0655895747364D+00 -2.0798815240276D-01
14  1.3000000000000D-01  1.1185447036285D+00 -1.6626481371708D-01
15  1.4000000000000D-01  1.1647357140182D+00 -1.1445723784545D-01
16  1.5000000000000D-01  1.2042632231511D+00 -5.3161194083203D-02
17  1.6000000000000D-01  1.2373245801809D+00  1.6819059356496D-02
18  1.7000000000000D-01  1.2642081229415D+00  9.4485361943751D-02
19  1.8000000000000D-01  1.2852857349476D+00  1.7866417143989D-01
20  1.9000000000000D-01  1.3010038465485D+00  2.6802867449204D-01
21  2.0000000000000D-01  1.3118730540496D+00  3.6112407294639D-01
22  2.1000000000000D-01  1.3184565572519D+00  4.5639556906251D-01
23  2.2000000000000D-01  1.3213576387532D+00  5.5221851915652D-01
24  2.3000000000000D-01  1.3212064270539D+00  6.4693018147958D-01
25  2.4000000000000D-01  1.3186461996599D+00  7.3886245120129D-01
26  2.5000000000000D-01  1.3143194916965D+00  8.2637495386461D-01
27  2.6000000000000D-01  1.3088542798542D+00  9.0788785905150D-01
28  2.7000000000000D-01  1.3028505106860D+00  9.8191377845898D-01
29  2.8000000000000D-01  1.2968672363671D+00  1.0470881271284D+00
30  2.9000000000000D-01  1.2914106101131D+00  1.1021973529554D+00
31  3.0000000000000D-01  1.2869229777197D+00  1.1462044773792D+00
32  3.1000000000000D-01  1.2837732814205D+00  1.1782714386295D+00
33  3.2000000000000D-01  1.2822489678298D+00  1.1977777872227D+00
34  3.3000000000000D-01  1.2825495635845D+00  1.2043353504801D+00
35  3.4000000000000D-01  1.2847820509554D+00  1.1977985574594D+00
36  3.5000000000000D-01  1.2889581417275D+00  1.1782701964631D+00
37  3.6000000000000D-01  1.2949935116931D+00  1.1461024627281D+00
38  3.7000000000000D-01  1.3027090208319D+00  1.1018932424018D+00
39  3.8000000000000D-01  1.3118339063513D+00  1.0464776688371D+00
40  3.9000000000000D-01  1.3220108979626D+00  9.8091507688919D-01
41  4.0000000000000D-01  1.3328031677602D+00  9.0647156859813D-01
42  4.1000000000000D-01  1.3437029915731D+00  8.2459848772549D-01
43  4.2000000000000D-01  1.3541419653283D+00  7.3690717949585D-01
44  4.3000000000000D-01  1.3635025894469D+00  6.4514048406292D-01
45  4.4000000000000D-01  1.3711310071705D+00  5.5114147630085D-01
46  4.5000000000000D-01  1.3763506595061D+00  4.5682001927222D-01
47  4.6000000000000D-01  1.3784766006383D+00  3.6411774308084D-01
48  4.7000000000000D-01  1.3768302035587D+00  2.7497209390439D-01
49  4.8000000000000D-01  1.3707539765852D+00  1.9128011915233D-01
50  4.9000000000000D-01  1.3596262075832D+00  1.1486266346008D-01
51  5.0000000000000D-01  1.3428751541500D+00  4.7429646390726D-02
52  5.1000000000000D-01  1.3199925047683D+00 -9.4529236894763D-03
53  5.2000000000000D-01  1.2905458478880D+00 -5.4393573845108D-02
54  5.3000000000000D-01  1.2541899028456D+00 -8.6203043794060D-02
55  5.4000000000000D-01  1.2106762881567D+00 -1.0391848266749D-01
56  5.5000000000000D-01  1.1598616286945D+00 -1.0682369381464D-01
57  5.6000000000000D-01  1.1017138330635D+00 -9.4465027167199D-02
58  5.7000000000000D-01  1.0363164055542D+00 -6.6662597399758D-02
59  5.8000000000000D-01  9.6387069293106D-01 -2.3516591456190D-02
60  5.9000000000000D-01  8.8469600403679D-01  3.4591481302655D-02
61  6.0000000000000D-01  7.9922757949972D-01  1.0700264969889D-01
62  6.1000000000000D-01  7.0801242848330D-01  1.9278941129590D-01
63  6.2000000000000D-01  6.1170308915904D-01  2.9076959781960D-01
64  6.3000000000000D-01  5.1104940834414D-01  3.9952494841785D-01
65  6.4000000000000D-01  4.0688847283946D-01  5.1742407581432D-01
66  6.5000000000000D-01  3.0013286000756D-01  6.4264942750531D-01
67  6.6000000000000D-01  1.9175740692098D-01  7.7322776891813D-01
68  6.7000000000000D-01  8.2784725769258D-02  9.0706364841093D-01
69  6.8000000000000D-01 -2.5730282520657D-02  1.0419752467110D+00
70  6.9000000000000D-01 -1.3271664490973D-01  1.1757319672496D+00
71  7.0000000000000D-01 -2.3710397690825D-01  1.3060930894148D+00
72  7.1000000000000D-01 -3.3783929160491D-01  1.4308467847002D+00
73  7.2000000000000D-01 -4.3390365746282D-01  1.5478487868167D+00
74  7.3000000000000D-01 -5.2432840683639D-01  1.6550600109604D+00
75  7.4000000000000D-01 -6.0821060430433D-01  1.7505824348151D+00
76  7.5000000000000D-01 -6.8472749633475D-01  1.8326925837825D+00
77  7.6000000000000D-01 -7.5314968161333D-01  1.8998720056351D+00
78  7.7000000000000D-01 -8.1285276388666D-01  1.9508341736384D+00
79  7.8000000000000D-01 -8.6332727624553D-01  1.9845473218123D+00
80  7.9000000000000D-01 -9.0418669680197D-01  2.0002527899795D+00
81  8.0000000000000D-01 -9.3517341014784D-01  1.9974785382587D+00
82  8.1000000000000D-01 -9.5616250618453D-01  1.9760475791898D+00
83  8.2000000000000D-01 -9.6716334719455D-01  1.9360811690826D+00
84  8.3000000000000D-01 -9.6831887465298D-01  1.8779966967109D+00
85  8.4000000000000D-01 -9.5990266849369D-01  1.8025003053349D+00
86  8.5000000000000D-01 -9.4231381257890D-01  1.7105743813851D+00
87  8.6000000000000D-01 -9.1606966020223D-01  1.6034601381486D+00
88  8.7000000000000D-01 -8.8179663183079D-01  1.4826356136799D+00
89  8.8000000000000D-01 -8.4021921323770D-01  1.3497894871834D+00
90  8.9000000000000D-01 -7.9214735501334D-01  1.2067911956836D+00
91  9.0000000000000D-01 -7.3846250355085D-01  1.0556579014288D+00
92  9.1000000000000D-01 -6.8010251842482D-01  8.9851891885564D-01
93  9.2000000000000D-01 -6.1804575114962D-01  7.3757825696215D-01
94  9.3000000000000D-01 -5.5329457523224D-01  5.7507596768351D-01
95  9.4000000000000D-01 -4.8685866693483D-01  4.1324901266207D-01
96  9.5000000000000D-01 -4.1973834005134D-01  2.5429236922391D-01
97  9.6000000000000D-01 -3.5290823619961D-01  1.0032109123158D-01
98  9.7000000000000D-01 -2.8730166468265D-01 -4.6665978099672D-02
99  9.8000000000000D-01 -2.2379587297048D-01 -1.8482017613689D-01
100  9.9000000000000D-01 -1.6319851028928D-01 -3.1247405326174D-01
101  1.0000000000000D+00 -1.0623552449134D-01 -4.2816890145503D-01
102  1.0100000000000D+00 -5.3540703421655D-02 -5.3067828243477D-01
103  1.0200000000000D+00 -5.6470411556851D-03 -6.1902713288310D-01
104  1.0300000000000D+00  3.7019925944896D-02 -6.9250610933855D-01
105  1.0400000000000D+00  7.4146705897781D-02 -7.5068092520213D-01
106  1.0500000000000D+00  1.0553429467517D-01 -7.9339653204783D-01
107  1.0600000000000D+00  1.3109844743535D-01 -8.2077608492388D-01
108  1.0700000000000D+00  1.5086779548219D-01 -8.3321474449016D-01
109  1.0800000000000D+00  1.6497986423111D-01 -8.3136845772579D-01
110  1.0900000000000D+00  1.7367508898510D-01 -8.1613795809151D-01
111  1.1000000000000D+00  1.7728896475513D-01 -7.8864832008515D-01
112  1.1100000000000D+00  1.7624249736768D-01 -7.5022447706146D-01
113  1.1200000000000D+00  1.7103116255216D-01 -7.0236320512406D-01
114  1.1300000000000D+00  1.6221260267665D-01 -6.4670213052031D-01
115  1.1400000000000D+00  1.5039331785065D-01 -5.8498638216944D-01
116  1.1500000000000D+00  1.3621462382007D-01 -5.1903354819105D-01
117  1.1600000000000D+00  1.2033816820011D-01 -4.5069764039485D-01
118  1.1700000000000D+00  1.0343130388431D-01 -3.8183278893356D-01
119  1.1800000000000D+00  8.6152617832347D-02 -3.1425738491909D-01
120  1.1900000000000D+00  6.9137810601362D-02 -2.4971910469113D-01
121  1.2000000000000D+00  5.2986656068848D-02 -1.8986274019862D-01
122  1.2100000000000D+00  3.8250549849475D-02 -1.3619936049379D-01
123  1.2200000000000D+00  2.5422275187606D-02 -9.0083986174433D-02
124  1.2300000000000D+00  1.4906321485005D-02 -5.2623809573130D-02
125  1.2400000000000D+00  6.9846733432376D-03 -2.4569982723535D-02
126  1.2500000000000D+00  2.1213825831576D-03 -7.3847106922191D-03
127  1.2600000000000D+00  1.3995591340256D-04 -3.8735162481045D-04
128  1.2700000000000D+00 -1.3927532003428D-04  5.3699907730124D-04
129  1.2800000000000D+00  3.7351587483064D-05 -1.4042304328957D-04
130  1.2900000000000D+00  1.7492603688468D-05 -6.5149895545209D-05
131  1.3000000000000D+00 -9.0023780961351D-06  3.4218109056535D-05
132  1.3100000000000D+00 -3.6413569035042D-08 -3.1449438221506D-08
133  1.3200000000000D+00 -3.7074704904072D-08 -3.2020443816950D-08
134  1.3300000000000D+00  0.0000000000000D+00  0.0000000000000D+00
135  1.3400000000000D+00  0.0000000000000D+00  0.0000000000000D+00
136  1.3500000000000D+00  0.0000000000000D+00  0.0000000000000D+00
137  1.3600000000000D+00  0.0000000000000D+00  0.0000000000000D+00
138  1.3700000000000D+00  0.0000000000000D+00  0.0000000000000D+00
139  1.3800000000000D+00  0.0000000000000D+00  0.0000000000000D+00
140  1.3900000000000D+00  0.0000000000000D+00  0.0000000000000D+00
141  1.4000000000000D+00  0.0000000000000D+00  0.0000000000000D+00
142  1.4100000000000D+00  0.0000000000000D+00  0.0000000000000D+00
143  1.4200000000000D+00  0.0000000000000D+00  0.0000000000000D+00
144  1.4300000000000D+00  0.0000000000000D+00  0.0000000000000D+00
145  1.4400000000000D+00  0.0000000000000D+00  0.0000000000000D+00
146  1.4500000000000D+00  0.0000000000000D+00  0.0000000000000D+00
147  1.4600000000000D+00  0.0000000000000D+00  0.0000000000000D+00
148  1.4700000000000D+00  0.0000000000000D+00  0.0000000000000D+00
149  1.4800000000000D+00  0.0000000000000D+00  0.0000000000000D+00
150  1.4900000000000D+00  0.0000000000000D+00  0.0000000000000D+00
151  1.5000000000000D+00  0.0000000000000D+00  0.0000000000000D+00
152  1.5100000000000D+00  0.0000000000000D+00  0.0000000000000D+00
153  1.5200000000000D+00  0.0000000000000D+00  0.0000000000000D+00
154  1.5300000000000D+00  0.0000000000000D+00  0.0000000000000D+00
155  1.5400000000000D+00  0.0000000000000D+00  0.0000000000000D+00
156  1.5500000000000D+00  0.0000000000000D+00  0.0000000000000D+00
157  1.5600000000000D+00  0.0000000000000D+00  0.0000000000000D+00
158  1.5700000000000D+00  0.0000000000000D+00  0.0000000000000D+00
159  1.5800000000000D+00  0.0000000000000D+00  0.0000000000000D+00
160  1.5900000000000D+00  0.0000000000000D+00  0.0000000000000D+00
161  1.6000000000000D+00  0.0000000000000D+00  0.0000000000000D+00
162  1.6100000000000D+00  0.0000000000000D+00  0.0000000000000D+00
163  1.6200000000000D+00  0.0000000000000D+00  0.0000000000000D+00
164  1.6300000000000D+00  0.0000000000000D+00  0.0000000000000D+00
165  1.6400000000000D+00  0.0000000000000D+00  0.0000000000000D+00
166  1.6500000000000D+00  0.0000000000000D+00  0.0000000000000D+00
167  1.6600000000000D+00  0.0000000000000D+00  0.0000000000000D+00
168  1.6700000000000D+00  0.0000000000000D+00  0.0000000000000D+00
169  1.6800000000000D+00  0.0000000000000D+00  0.0000000000000D+00
170  1.6900000000000D+00  0.0000000000000D+00  0.0000000000000D+00
171  1.7000000000000D+00  0.0000000000000D+00  0.0000000000000D+00
172  1.7100000000000D+00  0.0000000000000D+00  0.0000000000000D+00
173  1.7200000000000D+00  0.0000000000000D+00  0.0000000000000D+00
174  1.7300000000000D+00  0.0000000000000D+00  0.0000000000000D+00
175  1.7400000000000D+00  0.0000000000000D+00  0.0000000000000D+00
176  1.7500000000000D+00  0.0000000000000D+00  0.0000000000000D+00
177  1.7600000000000D+00  0.0000000000000D+00  0.0000000000000D+00
178  1.7700000000000D+00  0.0000000000000D+00  0.0000000000000D+00
179  1.7800000000000D+00  0.0000000000000D+00  0.0000000000000D+00
180  1.7900000000000D+00  0.0000000000000D+00  0.0000000000000D+00
181  1.8000000000000D+00  0.0000000000000D+00  0.0000000000000D+00
182  1.8100000000000D+00  0.0000000000000D+00  0.0000000000000D+00
183  1.8200000000000D+00  0.0000000000000D+00  0.0000000000000D+00
184  1.8300000000000D+00  0.0000000000000D+00  0.0000000000000D+00
185  1.8400000000000D+00  0.0000000000000D+00  0.0000000000000D+00
186  1.8500000000000D+00  0.0000000000000D+00  0.0000000000000D+00
187  1.8600000000000D+00  0.0000000000000D+00  0.0000000000000D+00
188  1.8700000000000D+00  0.0000000000000D+00  0.0000000000000D+00
189  1.8800000000000D+00  0.0000000000000D+00  0.0000000000000D+00
190  1.8900000000000D+00  0.0000000000000D+00  0.0000000000000D+00
191  1.9000000000000D+00  0.0000000000000D+00  0.0000000000000D+00
192  1.9100000000000D+00  0.0000000000000D+00  0.0000000000000D+00
193  1.9200000000000D+00  0.0000000000000D+00  0.0000000000000D+00
194  1.9300000000000D+00  0.0000000000000D+00  0.0000000000000D+00
195  1.9400000000000D+00  0.0000000000000D+00  0.0000000000000D+00
196  1.9500000000000D+00  0.0000000000000D+00  0.0000000000000D+00
197  1.9600000000000D+00  0.0000000000000D+00  0.0000000000000D+00
198  1.9700000000000D+00  0.0000000000000D+00  0.0000000000000D+00
199  1.9800000000000D+00  0.0000000000000D+00  0.0000000000000D+00
200  1.9900000000000D+00  0.0000000000000D+00  0.0000000000000D+00
201  2.0000000000000D+00  0.0000000000000D+00  0.0000000000000D+00
202  2.0100000000000D+00  0.0000000000000D+00  0.0000000000000D+00
203  2.0200000000000D+00  0.0000000000000D+00  0.0000000000000D+00
204  2.0300000000000D+00  0.0000000000000D+00  0.0000000000000D+00
205  2.0400000000000D+00  0.0000000000000D+00  0.0000000000000D+00
206  2.0500000000000D+00  0.0000000000000D+00  0.0000000000000D+00
207  2.0600000000000D+00  0.0000000000000D+00  0.0000000000000D+00
208  2.0700000000000D+00  0.0000000000000D+00  0.0000000000000D+00
209  2.0800000000000D+00  0.0000000000000D+00  0.0000000000000D+00
210  2.0900000000000D+00  0.0000000000000D+00  0.0000000000000D+00
211  2.1000000000000D+00  0.0000000000000D+00  0.0000000000000D+00
212  2.1100000000000D+00  0.0000000000000D+00  0.0000000000000D+00
213  2.1200000000000D+00  0.0000000000000D+00  0.0000000000000D+00
214  2.1300000000000D+00  0.0000000000000D+00  0.0000000000000D+00
215  2.1400000000000D+00  0.0000000000000D+00  0.0000000000000D+00
216  2.1500000000000D+00  0.0000000000000D+00  0.0000000000000D+00
217  2.1600000000000D+00  0.0000000000000D+00  0.0000000000000D+00
218  2.1700000000000D+00  0.0000000000000D+00  0.0000000000000D+00
219  2.1800000000000D+00  0.0000000000000D+00  0.0000000000000D+00
220  2.1900000000000D+00  0.0000000000000D+00  0.0000000000000D+00
221  2.2000000000000D+00  0.0000000000000D+00  0.0000000000000D+00
222  2.2100000000000D+00  0.0000000000000D+00  0.0000000000000D+00
223  2.2200000000000D+00  0.0000000000000D+00  0.0000000000000D+00
224  2.2300000000000D+00  0.0000000000000D+00  0.0000000000000D+00
225  2.2400000000000D+00  0.0000000000000D+00  0.0000000000000D+00
226  2.2500000000000D+00  0.0000000000000D+00  0.0000000000000D+00
227  2.2600000000000D+00  0.0000000000000D+00  0.0000000000000D+00
228  2.2700000000000D+00  0.0000000000000D+00  0.0000000000000D+00
229  2.2800000000000D+00  0.0000000000000D+00  0.0000000000000D+00
230  2.2900000000000D+00  0.0000000000000D+00  0.0000000000000D+00
231  2.3000000000000D+00  0.0000000000000D+00  0.0000000000000D+00
232  2.3100000000000D+00  0.0000000000000D+00  0.0000000000000D+00
233  2.3200000000000D+00  0.0000000000000D+00  0.0000000000000D+00
234  2.3300000000000D+00  0.0000000000000D+00  0.0000000000000D+00
235  2.3400000000000D+00  0.0000000000000D+00  0.0000000000000D+00
236  2.3500000000000D+00  0.0000000000000D+00  0.0000000000000D+00
237  2.3600000000000D+00  0.0000000000000D+00  0.0000000000000D+00
238  2.3700000000000D+00  0.0000000000000D+00  0.0000000000000D+00
239  2.3800000000000D+00  0.0000000000000D+00  0.0000000000000D+00
240  2.3900000000000D+00  0.0000000000000D+00  0.0000000000000D+00
241  2.4000000000000D+00  0.0000000000000D+00  0.0000000000000D+00
242  2.4100000000000D+00  0.0000000000000D+00  0.0000000000000D+00
243  2.4200000000000D+00  0.0000000000000D+00  0.0000000000000D+00
244  2.4300000000000D+00  0.0000000000000D+00  0.0000000000000D+00
245  2.4400000000000D+00  0.0000000000000D+00  0.0000000000000D+00
246  2.4500000000000D+00  0.0000000000000D+00  0.0000000000000D+00
247  2.4600000000000D+00  0.0000000000000D+00  0.0000000000000D+00
248  2.4700000000000D+00  0.0000000000000D+00  0.0000000000000D+00
249  2.4800000000000D+00  0.0000000000000D+00  0.0000000000000D+00
250  2.4900000000000D+00  0.0000000000000D+00  0.0000000000000D+00
251  2.5000000000000D+00  0.0000000000000D+00  0.0000000000000D+00
252  2.5100000000000D+00  0.0000000000000D+00  0.0000000000000D+00
253  2.5200000000000D+00  0.0000000000000D+00  0.0000000000000D+00
254  2.5300000000000D+00  0.0000000000000D+00  0.0000000000000D+00
255  2.5400000000000D+00  0.0000000000000D+00  0.0000000000000D+00
256  2.5500000000000D+00  0.0000000000000D+00  0.0000000000000D+00
257  2.5600000000000D+00  0.0000000000000D+00  0.0000000000000D+00
258  2.5700000000000D+00  0.0000000000000D+00  0.0000000000000D+00
259  2.5800000000000D+00  0.0000000000000D+00  0.0000000000000D+00
260  2.5900000000000D+00  0.0000000000000D+00  0.0000000000000D+00
261  2.6000000000000D+00  0.0000000000000D+00  0.0000000000000D+00
262  2.6100000000000D+00  0.0000000000000D+00  0.0000000000000D+00
263  2.6200000000000D+00  0.0000000000000D+00  0.0000000000000D+00
264  2.6300000000000D+00  0.0000000000000D+00  0.0000000000000D+00
265  2.6400000000000D+00  0.0000000000000D+00  0.0000000000000D+00
266  2.6500000000000D+00  0.0000000000000D+00  0.0000000000000D+00
267  2.6600000000000D+00  0.0000000000000D+00  0.0000000000000D+00
268  2.6700000000000D+00  0.0000000000000D+00  0.0000000000000D+00
269  2.6800000000000D+00  0.0000000000000D+00  0.0000000000000D+00
270  2.6900000000000D+00  0.0000000000000D+00  0.0000000000000D+00
271  2.7000000000000D+00  0.0000000000000D+00  0.0000000000000D+00
272  2.7100000000000D+00  0.0000000000000D+00  0.0000000000000D+00
273  2.7200000000000D+00  0.0000000000000D+00  0.0000000000000D+00
274  2.7300000000000D+00  0.0000000000000D+00  0.0000000000000D+00
275  2.7400000000000D+00  0.0000000000000D+00  0.0000000000000D+00
276  2.7500000000000D+00  0.0000000000000D+00  0.0000000000000D+00
277  2.7600000000000D+00  0.0000000000000D+00  0.0000000000000D+00
278  2.7700000000000D+00  0.0000000000000D+00  0.0000000000000D+00
279  2.7800000000000D+00  0.0000000000000D+00  0.0000000000000D+00
280  2.7900000000000D+00  0.0000000000000D+00  0.0000000000000D+00
281  2.8000000000000D+00  0.0000000000000D+00  0.0000000000000D+00
282  2.8100000000000D+00  0.0000000000000D+00  0.0000000000000D+00
283  2.8200000000000D+00  0.0000000000000D+00  0.0000000000000D+00
284  2.8300000000000D+00  0.0000000000000D+00  0.0000000000000D+00
285  2.8400000000000D+00  0.0000000000000D+00  0.0000000000000D+00
286  2.8500000000000D+00  0.0000000000000D+00  0.0000000000000D+00
287  2.8600000000000D+00  0.0000000000000D+00  0.0000000000000D+00
288  2.8700000000000D+00  0.0000000000000D+00  0.0000000000000D+00
289  2.8800000000000D+00  0.0000000000000D+00  0.0000000000000D+00
290  2.8900000000000D+00  0.0000000000000D+00  0.0000000000000D+00
291  2.9000000000000D+00  0.0000000000000D+00  0.0000000000000D+00
292  2.9100000000000D+00  0.0000000000000D+00  0.0000000000000D+00
293  2.9200000000000D+00  0.0000000000000D+00  0.0000000000000D+00
294  2.9300000000000D+00  0.0000000000000D+00  0.0000000000000D+00
295  2.9400000000000D+00  0.0000000000000D+00  0.0000000000000D+00
296  2.9500000000000D+00  0.0000000000000D+00  0.0000000000000D+00
297  2.9600000000000D+00  0.0000000000000D+00  0.0000000000000D+00
298  2.9700000000000D+00  0.0000000000000D+00  0.0000000000000D+00
299  2.9800000000000D+00  0.0000000000000D+00  0.0000000000000D+00
300  2.9900000000000D+00  0.0000000000000D+00  0.0000000000000D+00
301  3.0000000000000D+00  0.0000000000000D+00  0.0000000000000D+00
302  3.0100000000000D+00  0.0000000000000D+00  0.0000000000000D+00
303  3.0200000000000D+00  0.0000000000000D+00  0.0000000000000D+00
304  3.0300000000000D+00  0.0000000000000D+00  0.0000000000000D+00
305  3.0400000000000D+00  0.0000000000000D+00  0.0000000000000D+00
306  3.0500000000000D+00  0.0000000000000D+00  0.0000000000000D+00
307  3.0600000000000D+00  0.0000000000000D+00  0.0000000000000D+00
308  3.0700000000000D+00  0.0000000000000D+00  0.0000000000000D+00
309  3.0800000000000D+00  0.0000000000000D+00  0.0000000000000D+00
310  3.0900000000000D+00  0.0000000000000D+00  0.0000000000000D+00
311  3.1000000000000D+00  0.0000000000000D+00  0.0000000000000D+00
312  3.1100000000000D+00  0.0000000000000D+00  0.0000000000000D+00
313  3.1200000000000D+00  0.0000000000000D+00  0.0000000000000D+00
314  3.1300000000000D+00  0.0000000000000D+00  0.0000000000000D+00
315  3.1400000000000D+00  0.0000000000000D+00  0.0000000000000D+00
316  3.1500000000000D+00  0.0000000000000D+00  0.0000000000000D+00
317  3.1600000000000D+00  0.0000000000000D+00  0.0000000000000D+00
318  3.1700000000000D+00  0.0000000000000D+00  0.0000000000000D+00
319  3.1800000000000D+00  0.0000000000000D+00  0.0000000000000D+00
320  3.1900000000000D+00  0.0000000000000D+00  0.0000000000000D+00
321  3.2000000000000D+00  0.0000000000000D+00  0.0000000000000D+00
322  3.2100000000000D+00  0.0000000000000D+00  0.0000000000000D+00
323  3.2200000000000D+00  0.0000000000000D+00  0.0000000000000D+00
324  3.2300000000000D+00  0.0000000000000D+00  0.0000000000000D+00
325  3.2400000000000D+00  0.0000000000000D+00  0.0000000000000D+00
326  3.2500000000000D+00  0.0000000000000D+00  0.0000000000000D+00
327  3.2600000000000D+00  0.0000000000000D+00  0.0000000000000D+00
328  3.2700000000000D+00  0.0000000000000D+00  0.0000000000000D+00
329  3.2800000000000D+00  0.0000000000000D+00  0.0000000000000D+00
330  3.2900000000000D+00  0.0000000000000D+00  0.0000000000000D+00
331  3.3000000000000D+00  0.0000000000000D+00  0.0000000000000D+00
332  3.3100000000000D+00  0.0000000000000D+00  0.0000000000000D+00
333  3.3200000000000D+00  0.0000000000000D+00  0.0000000000000D+00
334  3.3300000000000D+00  0.0000000000000D+00  0.0000000000000D+00
335  3.3400000000000D+00  0.0000000000000D+00  0.0000000000000D+00
336  3.3500000000000D+00  0.0000000000000D+00  0.0000000000000D+00
337  3.3600000000000D+00  0.0000000000000D+00  0.0000000000000D+00
338  3.3700000000000D+00  0.0000000000000D+00  0.0000000000000D+00
339  3.3800000000000D+00  0.0000000000000D+00  0.0000000000000D+00
340  3.3900000000000D+00  0.0000000000000D+00  0.0000000000000D+00
341  3.4000000000000D+00  0.0000000000000D+00  0.0000000000000D+00
342  3.4100000000000D+00  0.0000000000000D+00  0.0000000000000D+00
343  3.4200000000000D+00  0.0000000000000D+00  0.0000000000000D+00
344  3.4300000000000D+00  0.0000000000000D+00  0.0000000000000D+00
345  3.4400000000000D+00  0.0000000000000D+00  0.0000000000000D+00
346  3.4500000000000D+00  0.0000000000000D+00  0.0000000000000D+00
347  3.4600000000000D+00  0.0000000000000D+00  0.0000000000000D+00
348  3.4700000000000D+00  0.0000000000000D+00  0.0000000000000D+00
349  3.4800000000000D+00  0.0000000000000D+00  0.0000000000000D+00
350  3.4900000000000D+00  0.0000000000000D+00  0.0000000000000D+00
351  3.5000000000000D+00  0.0000000000000D+00  0.0000000000000D+00
352  3.5100000000000D+00  0.0000000000000D+00  0.0000000000000D+00
353  3.5200000000000D+00  0.0000000000000D+00  0.0000000000000D+00
354  3.5300000000000D+00  0.0000000000000D+00  0.0000000000000D+00
355  3.5400000000000D+00  0.0000000000000D+00  0.0000000000000D+00
356  3.5500000000000D+00  0.0000000000000D+00  0.0000000000000D+00
357  3.5600000000000D+00  0.0000000000000D+00  0.0000000000000D+00
358  3.5700000000000D+00  0.0000000000000D+00  0.0000000000000D+00
359  3.5800000000000D+00  0.0000000000000D+00  0.0000000000000D+00
360  3.5900000000000D+00  0.0000000000000D+00  0.0000000000000D+00
361  3.6000000000000D+00  0.0000000000000D+00  0.0000000000000D+00
362  3.6100000000000D+00  0.0000000000000D+00  0.0000000000000D+00
363  3.6200000000000D+00  0.0000000000000D+00  0.0000000000000D+00
364  3.6300000000000D+00  0.0000000000000D+00  0.0000000000000D+00
365  3.6400000000000D+00  0.0000000000000D+00  0.0000000000000D+00
366  3.6500000000000D+00  0.0000000000000D+00  0.0000000000000D+00
367  3.6600000000000D+00  0.0000000000000D+00  0.0000000000000D+00
368  3.6700000000000D+00  0.0000000000000D+00  0.0000000000000D+00
369  3.6800000000000D+00  0.0000000000000D+00  0.0000000000000D+00
370  3.6900000000000D+00  0.0000000000000D+00  0.0000000000000D+00
371  3.7000000000000D+00  0.0000000000000D+00  0.0000000000000D+00
372  3.7100000000000D+00  0.0000000000000D+00  0.0000000000000D+00
373  3.7200000000000D+00  0.0000000000000D+00  0.0000000000000D+00
374  3.7300000000000D+00  0.0000000000000D+00  0.0000000000000D+00
375  3.7400000000000D+00  0.0000000000000D+00  0.0000000000000D+00
376  3.7500000000000D+00  0.0000000000000D+00  0.0000000000000D+00
377  3.7600000000000D+00  0.0000000000000D+00  0.0000000000000D+00
378  3.7700000000000D+00  0.0000000000000D+00  0.0000000000000D+00
379  3.7800000000000D+00  0.0000000000000D+00  0.0000000000000D+00
380  3.7900000000000D+00  0.0000000000000D+00  0.0000000000000D+00
381  3.8000000000000D+00  0.0000000000000D+00  0.0000000000000D+00
382  3.8100000000000D+00  0.0000000000000D+00  0.0000000000000D+00
383  3.8200000000000D+00  0.0000000000000D+00  0.0000000000000D+00
384  3.8300000000000D+00  0.0000000000000D+00  0.0000000000000D+00
385  3.8400000000000D+00  0.0000000000000D+00  0.0000000000000D+00
386  3.8500000000000D+00  0.0000000000000D+00  0.0000000000000D+00
387  3.8600000000000D+00  0.0000000000000D+00  0.0000000000000D+00
388  3.8700000000000D+00  0.0000000000000D+00  0.0000000000000D+00
389  3.8800000000000D+00  0.0000000000000D+00  0.0000000000000D+00
390  3.8900000000000D+00  0.0000000000000D+00  0.0000000000000D+00
391  3.9000000000000D+00  0.0000000000000D+00  0.0000000000000D+00
392  3.9100000000000D+00  0.0000000000000D+00  0.0000000000000D+00
393  3.9200000000000D+00  0.0000000000000D+00  0.0000000000000D+00
394  3.9300000000000D+00  0.0000000000000D+00  0.0000000000000D+00
395  3.9400000000000D+00  0.0000000000000D+00  0.0000000000000D+00
396  3.9500000000000D+00  0.0000000000000D+00  0.0000000000000D+00
397  3.9600000000000D+00  0.0000000000000D+00  0.0000000000000D+00
398  3.9700000000000D+00  0.0000000000000D+00  0.0000000000000D+00
399  3.9800000000000D+00  0.0000000000000D+00  0.0000000000000D+00
400  3.9900000000000D+00  0.0000000000000D+00  0.0000000000000D+00
401  4.0000000000000D+00  0.0000000000000D+00  0.0000000000000D+00
402  4.0100000000000D+00  0.0000000000000D+00  0.0000000000000D+00
403  4.0200000000000D+00  0.0000000000000D+00  0.0000000000000D+00
404  4.0300000000000D+00  0.0000000000000D+00  0.0000000000000D+00
405  4.0400000000000D+00  0.0000000000000D+00  0.0000000000000D+00
406  4.0500000000000D+00  0.0000000000000D+00  0.0000000000000D+00
407  4.0600000000000D+00  0.0000000000000D+00  0.0000000000000D+00
408  4.0700000000000D+00  0.0000000000000D+00  0.0000000000000D+00
409  4.0800000000000D+00  0.0000000000000D+00  0.0000000000000D+00
410  4.0900000000000D+00  0.0000000000000D+00  0.0000000000000D+00
411  4.1000000000000D+00  0.0000000000000D+00  0.0000000000000D+00
412  4.1100000000000D+00  0.0000000000000D+00  0.0000000000000D+00
413  4.1200000000000D+00  0.0000000000000D+00  0.0000000000000D+00
414  4.1300000000000D+00  0.0000000000000D+00  0.0000000000000D+00
415  4.1400000000000D+00  0.0000000000000D+00  0.0000000000000D+00
416  4.1500000000000D+00  0.0000000000000D+00  0.0000000000000D+00
417  4.1600000000000D+00  0.0000000000000D+00  0.0000000000000D+00
418  4.1700000000000D+00  0.0000000000000D+00  0.0000000000000D+00
419  4.1800000000000D+00  0.0000000000000D+00  0.0000000000000D+00
420  4.1900000000000D+00  0.0000000000000D+00  0.0000000000000D+00
421  4.2000000000000D+00  0.0000000000000D+00  0.0000000000000D+00
422  4.2100000000000D+00  0.0000000000000D+00  0.0000000000000D+00
423  4.2200000000000D+00  0.0000000000000D+00  0.0000000000000D+00
424  4.2300000000000D+00  0.0000000000000D+00  0.0000000000000D+00
425  4.2400000000000D+00  0.0000000000000D+00  0.0000000000000D+00
426  4.2500000000000D+00  0.0000000000000D+00  0.0000000000000D+00
427  4.2600000000000D+00  0.0000000000000D+00  0.0000000000000D+00
428  4.2700000000000D+00  0.0000000000000D+00  0.0000000000000D+00
429  4.2800000000000D+00  0.0000000000000D+00  0.0000000000000D+00
430  4.2900000000000D+00  0.0000000000000D+00  0.0000000000000D+00
431  4.3000000000000D+00  0.0000000000000D+00  0.0000000000000D+00
432  4.3100000000000D+00  0.0000000000000D+00  0.0000000000000D+00
433  4.3200000000000D+00  0.0000000000000D+00  0.0000000000000D+00
434  4.3300000000000D+00  0.0000000000000D+00  0.0000000000000D+00
435  4.3400000000000D+00  0.0000000000000D+00  0.0000000000000D+00
436  4.3500000000000D+00  0.0000000000000D+00  0.0000000000000D+00
437  4.3600000000000D+00  0.0000000000000D+00  0.0000000000000D+00
438  4.3700000000000D+00  0.0000000000000D+00  0.0000000000000D+00
439  4.3800000000000D+00  0.0000000000000D+00  0.0000000000000D+00
440  4.3900000000000D+00  0.0000000000000D+00  0.0000000000000D+00
441  4.4000000000000D+00  0.0000000000000D+00  0.0000000000000D+00
442  4.4100000000000D+00  0.0000000000000D+00  0.0000000000000D+00
443  4.4200000000000D+00  0.0000000000000D+00  0.0000000000000D+00
444  4.4300000000000D+00  0.0000000000000D+00  0.0000000000000D+00