Br    ONCVPSP-3.2.3  r_core=   1.81012   1.51356   1.92136
35.0000      7.0000      170222    zatom,zion,pspd
8      11   2     4   600     0    pspcod,pspxc,lmax,lloc,mmax,r2well
5.99000000  8.00000000  0.00000000    rchrg fchrg qchrg
2     4     3     0    nproj
3     1           extension_switch
4     4     0    nprojso
0                         7.8490032541962D-01  8.0498780391416D+00
1  0.0000000000000D+00 -4.9192669382414D-10  9.1635365961906D-11
2  1.0000000000000D-02 -8.3295354658325D-03  3.5532487872868D-02
3  2.0000000000000D-02 -1.6703394380481D-02  7.1057119852112D-02
4  3.0000000000000D-02 -2.5165108599933D-02  1.0656586212834D-01
5  4.0000000000000D-02 -3.3756636710831D-02  1.4205032707307D-01
6  5.0000000000000D-02 -4.2517602059548D-02  1.7750160133667D-01
7  6.0000000000000D-02 -5.1484560023578D-02  2.1291007988935D-01
8  7.0000000000000D-02 -6.0690303687403D-02  2.4826530787727D-01
9  8.0000000000000D-02 -7.0163216593027D-02  2.8355583207421D-01
10  9.0000000000000D-02 -7.9926680632582D-02  3.1876906359683D-01
11  1.0000000000000D-01 -8.9998546444503D-02  3.5389115342005D-01
12  1.1000000000000D-01 -1.0039067287499D-01  3.8890688207957D-01
13  1.2000000000000D-01 -1.1110854118315D-01  4.2379956478376D-01
14  1.3000000000000D-01 -1.2215094871298D-01  4.5855097297822D-01
15  1.4000000000000D-01 -1.3350978574012D-01  4.9314127321620D-01
16  1.5000000000000D-01 -1.4516989814044D-01  5.2754898398907D-01
17  1.6000000000000D-01 -1.5710903743305D-01  5.6175095096494D-01
18  1.7000000000000D-01 -1.6929789863851D-01  5.9572234087427D-01
19  1.8000000000000D-01 -1.8170024527667D-01  6.2943665407006D-01
20  1.9000000000000D-01 -1.9427311972340D-01  6.6286575558063D-01
21  2.0000000000000D-01 -2.0696713606513D-01  6.9597992426736D-01
22  2.1000000000000D-01 -2.1972685154956D-01  7.2874791950040D-01
23  2.2000000000000D-01 -2.3249121174255D-01  7.6113706457547D-01
24  2.3000000000000D-01 -2.4519406357975D-01  7.9311334591549D-01
25  2.4000000000000D-01 -2.5776472965694D-01  8.2464152693600D-01
26  2.5000000000000D-01 -2.7012863634846D-01  8.5568527530325D-01
27  2.6000000000000D-01 -2.8220798768703D-01  8.8620730218150D-01
28  2.7000000000000D-01 -2.9392247639017D-01  9.1616951195278D-01
29  2.8000000000000D-01 -3.0519002298481D-01  9.4553316079915D-01
30  2.9000000000000D-01 -3.1592753366968D-01  9.7425902246584D-01
31  3.0000000000000D-01 -3.2605166736654D-01  1.0023075594741D+00
32  3.1000000000000D-01 -3.3547960235163D-01  1.0296390980252D+00
33  3.2000000000000D-01 -3.4412979292634D-01  1.0562140048345D+00
34  3.3000000000000D-01 -3.5192270678116D-01  1.0819928641497D+00
35  3.4000000000000D-01 -3.5878153402744D-01  1.1069366532528D+00
36  3.5000000000000D-01 -3.6463285931193D-01  1.1310069148043D+00
37  3.6000000000000D-01 -3.6940728898467D-01  1.1541659244718D+00
38  3.7000000000000D-01 -3.7304002595380D-01  1.1763768523894D+00
39  3.8000000000000D-01 -3.7547138562217D-01  1.1976039171111D+00
40  3.9000000000000D-01 -3.7664724715090D-01  1.2178125308613D+00
41  4.0000000000000D-01 -3.7651943522156D-01  1.2369694350317D+00
42  4.1000000000000D-01 -3.7504602846036D-01  1.2550428250382D+00
43  4.2000000000000D-01 -3.7219159173019D-01  1.2720024638216D+00
44  4.3000000000000D-01 -3.6792733057596D-01  1.2878197834550D+00
45  4.4000000000000D-01 -3.6223116721054D-01  1.3024679745011D+00
46  4.5000000000000D-01 -3.5508773853756D-01  1.3159220629498D+00
47  4.6000000000000D-01 -3.4648831780872D-01  1.3281589747482D+00
48  4.7000000000000D-01 -3.3643066259075D-01  1.3391575881146D+00
49  4.8000000000000D-01 -3.2491879275716D-01  1.3488987740035D+00
50  4.9000000000000D-01 -3.1196270320654D-01  1.3573654252508D+00
51  5.0000000000000D-01 -2.9757801693006D-01  1.3645424750850D+00
52  5.1000000000000D-01 -2.8178558489075D-01  1.3704169058292D+00
53  5.2000000000000D-01 -2.6461103992659D-01  1.3749777487429D+00
54  5.3000000000000D-01 -2.4608431253502D-01  1.3782160760622D+00
55  5.4000000000000D-01 -2.2623911693076D-01  1.3801249863835D+00
56  5.5000000000000D-01 -2.0511241618192D-01  1.3806995846053D+00
57  5.6000000000000D-01 -1.8274387551557D-01  1.3799369576903D+00
58  5.7000000000000D-01 -1.5917531303913D-01  1.3778361475317D+00
59  5.8000000000000D-01 -1.3445015714287D-01  1.3743981222136D+00
60  5.9000000000000D-01 -1.0861291973243D-01  1.3696257469310D+00
61  6.0000000000000D-01 -8.1708694188579D-02  1.3635237557943D+00
62  6.1000000000000D-01 -5.3782686564223D-02  1.3560987256743D+00
63  6.2000000000000D-01 -2.4879788017539D-02  1.3473590531619D+00
64  6.3000000000000D-01  4.9558041612671D-03  1.3373149356029D+00
65  6.4000000000000D-01  3.5680910320808D-02  1.3259783570503D+00
66  6.5000000000000D-01  6.7253631266764D-02  1.3133630798269D+00
67  6.6000000000000D-01  9.9633545331716D-02  1.2994846422385D+00
68  6.7000000000000D-01  1.3278183593151D-01  1.2843603628063D+00
69  6.8000000000000D-01  1.6666134694720D-01  1.2680093512061D+00
70  6.9000000000000D-01  2.0123656442859D-01  1.2504525259148D+00
71  7.0000000000000D-01  2.3647352430879D-01  1.2317126383731D+00
72  7.1000000000000D-01  2.7233964703202D-01  1.2118143032780D+00
73  7.2000000000000D-01  3.0880350122032D-01  1.1907840344257D+00
74  7.3000000000000D-01  3.4583449971047D-01  1.1686502853377D+00
75  7.4000000000000D-01  3.8340253246953D-01  1.1454434937193D+00
76  7.5000000000000D-01  4.2147754202829D-01  1.1211961286311D+00
77  7.6000000000000D-01  4.6002904814050D-01  1.0959427390925D+00
78  7.7000000000000D-01  4.9902562935933D-01  1.0697200026971D+00
79  7.8000000000000D-01  5.3843437012213D-01  1.0425667726913D+00
80  7.9000000000000D-01  5.7822028271427D-01  1.0145241218679D+00
81  8.0000000000000D-01  6.1834571414918D-01  9.8563538154273D-01
82  8.1000000000000D-01  6.5876974853213D-01  9.5594617382789D-01
83  8.2000000000000D-01  6.9944761586492D-01  9.2550443538291D-01
84  8.3000000000000D-01  7.4033011848780D-01  8.9436043082445D-01
85  8.4000000000000D-01  7.8136308643846D-01  8.6256675399874D-01
86  8.5000000000000D-01  8.2248687293181D-01  8.3017831537523D-01
87  8.6000000000000D-01  8.6363590092621D-01  7.9725231390228D-01
88  8.7000000000000D-01  9.0473827134280D-01  7.6384819177604D-01
89  8.8000000000000D-01  9.4571544294659D-01  7.3002757071238D-01
90  8.9000000000000D-01  9.8648199318607D-01  6.9585416847569D-01
91  9.0000000000000D-01  1.0269454684282D+00  6.6139369460867D-01
92  9.1000000000000D-01  1.0670063310284D+00  6.2671372451948D-01
93  9.2000000000000D-01  1.1065580095487D+00  5.9188355131631D-01
94  9.3000000000000D-01  1.1454870571970D+00  5.5697401503158D-01
95  9.4000000000000D-01  1.1836734222196D+00  5.2205730914496D-01
96  9.5000000000000D-01  1.2209908325539D+00  4.8720676459440D-01
97  9.6000000000000D-01  1.2573072955495D+00  4.5249661175379D-01
98  9.7000000000000D-01  1.2924857120301D+00  4.1800172114939D-01
99  9.8000000000000D-01  1.3263846024069D+00  3.8379732398129D-01
100  9.9000000000000D-01  1.3588589409473D+00  3.4995871381532D-01
101  1.0000000000000D+00  1.3897610927581D+00  3.1656093109413D-01
102  1.0100000000000D+00  1.4189418464959D+00  2.8367843239709D-01
103  1.0200000000000D+00  1.4462515343374D+00  2.5138474664236D-01
104  1.0300000000000D+00  1.4715412293136D+00  2.1975212067547D-01
105  1.0400000000000D+00  1.4946640088287D+00  1.8885115690997D-01
106  1.0500000000000D+00  1.5154762719562D+00  1.5875044589192D-01
107  1.0600000000000D+00  1.5338390970095D+00  1.2951619683843D-01
108  1.0700000000000D+00  1.5496196249842D+00  1.0121186934068D-01
109  1.0800000000000D+00  1.5626924536728D+00  7.3897809537727D-02
110  1.0900000000000D+00  1.5729410266765D+00  4.7630894141148D-02
111  1.1000000000000D+00  1.5802590011003D+00  2.2464185737681D-02
112  1.1100000000000D+00  1.5845515774875D+00 -1.5533972026539D-03
113  1.1200000000000D+00  1.5857367755279D+00 -2.4377392218751D-02
114  1.1300000000000D+00  1.5837466393249D+00 -4.5968083350946D-02
115  1.1400000000000D+00  1.5785283561985D+00 -6.6290767002414D-02
116  1.1500000000000D+00  1.5700452737740D+00 -8.5315990141065D-02
117  1.1600000000000D+00  1.5582778007613D+00 -1.0301975797163D-01
118  1.1700000000000D+00  1.5432241779990D+00 -1.1938370847933D-01
119  1.1800000000000D+00  1.5249011070180D+00 -1.3439525140515D-01
120  1.1900000000000D+00  1.5033442252617D+00 -1.4804766962968D-01
121  1.2000000000000D+00  1.4786084183852D+00 -1.6034018121713D-01
122  1.2100000000000D+00  1.4507679614540D+00 -1.7127796067343D-01
123  1.2200000000000D+00  1.4199164827312D+00 -1.8087211836923D-01
124  1.2300000000000D+00  1.3861667459003D+00 -1.8913963752940D-01
125  1.2400000000000D+00  1.3496502482950D+00 -1.9610326854552D-01
126  1.2500000000000D+00  1.3105166340475D+00 -2.0179138064969D-01
127  1.2600000000000D+00  1.2689329244077D+00 -2.0623777166954D-01
128  1.2700000000000D+00  1.2250825689130D+00 -2.0948143687146D-01
129  1.2800000000000D+00  1.1791643220272D+00 -2.1156629809387D-01
130  1.2900000000000D+00  1.1313909540309D+00 -2.1254089520946D-01
131  1.3000000000000D+00  1.0819878055774D+00 -2.1245804207738D-01
132  1.3100000000000D+00  1.0311911963359D+00 -2.1137444935264D-01
133  1.3200000000000D+00  9.7924670229572D-01 -2.0935031734175D-01
134  1.3300000000000D+00  9.2640731585643D-01 -2.0644890200080D-01
135  1.3400000000000D+00  8.7293150457019D-01 -2.0273605752069D-01
136  1.3500000000000D+00  8.1908118722067D-01 -1.9827975948868D-01
137  1.3600000000000D+00  7.6511964483678D-01 -1.9314961240372D-01
138  1.3700000000000D+00  7.1130938681681D-01 -1.8741634582560D-01
139  1.3800000000000D+00  6.5790999249183D-01 -1.8115130345062D-01
140  1.3900000000000D+00  6.0517594845124D-01 -1.7442592942055D-01
141  1.4000000000000D+00  5.5335450325434D-01 -1.6731125639518D-01
142  1.4100000000000D+00  5.0268355973721D-01 -1.5987739964704D-01
143  1.4200000000000D+00  4.5338962686258D-01 -1.5219306177540D-01
144  1.4300000000000D+00  4.0568584965147D-01 -1.4432505193122D-01
145  1.4400000000000D+00  3.5977013883659D-01 -1.3633782408601D-01
146  1.4500000000000D+00  3.1582341727288D-01 -1.2829303792213D-01
147  1.4600000000000D+00  2.7400800071377D-01 -1.2024914605320D-01
148  1.4700000000000D+00  2.3446612687482D-01 -1.1226101071252D-01
149  1.4800000000000D+00  1.9731866270760D-01 -1.0437955512379D-01
150  1.4900000000000D+00  1.6266396564903D-01 -9.6651447160368D-02
151  1.5000000000000D+00  1.3057709580719D-01 -8.9118846508967D-02
152  1.5100000000000D+00  1.0110857565414D-01 -8.1819087091854D-02
153  1.5200000000000D+00  7.4284395853552D-02 -7.4784569501478D-02
154  1.5300000000000D+00  5.0107374781750D-02 -6.8042871063243D-02
155  1.5400000000000D+00  2.8558468840525D-02 -6.1616889724861D-02
156  1.5500000000000D+00  9.5988094522767D-03 -5.5525130074317D-02
157  1.5600000000000D+00 -6.8296948264103D-03 -4.9781775996353D-02
158  1.5700000000000D+00 -2.0803934225420D-02 -4.4396754791401D-02
159  1.5800000000000D+00 -3.2418357885898D-02 -3.9375929850772D-02
160  1.5900000000000D+00 -4.1783880513943D-02 -3.4721283207640D-02
161  1.6000000000000D+00 -4.9026510233046D-02 -3.0431149585954D-02
162  1.6100000000000D+00 -5.4285862860690D-02 -2.6500476065294D-02
163  1.6200000000000D+00 -5.7713531635517D-02 -2.2921111764975D-02
164  1.6300000000000D+00 -5.9471343483083D-02 -1.9682121569963D-02
165  1.6400000000000D+00 -5.9729514094787D-02 -1.6770121444039D-02
166  1.6500000000000D+00 -5.8664726775577D-02 -1.4169630340690D-02
167  1.6600000000000D+00 -5.6458151901593D-02 -1.1863435341883D-02
168  1.6700000000000D+00 -5.3293431662444D-02 -9.8329651065387D-03
169  1.6800000000000D+00 -4.9354649251144D-02 -8.0586678040679D-03
170  1.6900000000000D+00 -4.4824307241421D-02 -6.5203886137983D-03
171  1.7000000000000D+00 -3.9881334692693D-02 -5.1977428994310D-03
172  1.7100000000000D+00 -3.4699147416007D-02 -4.0704802117304D-03
173  1.7200000000000D+00 -2.9443780251251D-02 -3.1188353713452D-03
174  1.7300000000000D+00 -2.4272113971327D-02 -2.3238621567764D-03
175  1.7400000000000D+00 -1.9330215296010D-02 -1.6677459251667D-03
176  1.7500000000000D+00 -1.4754352695190D-02 -1.1340668385518D-03
177  1.7600000000000D+00 -1.0662044673497D-02 -7.0813319243867D-04
178  1.7700000000000D+00 -7.1384643571893D-03 -3.7773422135795D-04
179  1.7800000000000D+00 -4.2842057415247D-03 -1.3200979537935D-04
180  1.7900000000000D+00 -2.2633727727792D-03  4.2138004302375D-05
181  1.8000000000000D+00 -1.1148942133076D-03  1.5187113982966D-04
182  1.8100000000000D+00 -5.4090402660499D-04  1.7702248889371D-04
183  1.8200000000000D+00 -2.0093099732411D-04  1.0579692639676D-04
184  1.8300000000000D+00 -2.0130992169724D-05  1.3825769060042D-05
185  1.8400000000000D+00  2.6442501798162D-05 -2.0852744110217D-05
186  1.8500000000000D+00  9.9816419323181D-06 -9.0466424984040D-06
187  1.8600000000000D+00 -6.2850502764691D-06  3.9181056930872D-06
188  1.8700000000000D+00 -4.9939311610598D-06  3.2694328337661D-06
189  1.8800000000000D+00  8.8588305655485D-07 -2.9201021278265D-07
190  1.8900000000000D+00  1.3726332223520D-06 -4.5245579127601D-07
191  1.9000000000000D+00  0.0000000000000D+00  0.0000000000000D+00
192  1.9100000000000D+00  0.0000000000000D+00  0.0000000000000D+00
193  1.9200000000000D+00  0.0000000000000D+00  0.0000000000000D+00
194  1.9300000000000D+00  0.0000000000000D+00  0.0000000000000D+00
195  1.9400000000000D+00  0.0000000000000D+00  0.0000000000000D+00
196  1.9500000000000D+00  0.0000000000000D+00  0.0000000000000D+00
197  1.9600000000000D+00  0.0000000000000D+00  0.0000000000000D+00
198  1.9700000000000D+00  0.0000000000000D+00  0.0000000000000D+00
199  1.9800000000000D+00  0.0000000000000D+00  0.0000000000000D+00
200  1.9900000000000D+00  0.0000000000000D+00  0.0000000000000D+00
201  2.0000000000000D+00  0.0000000000000D+00  0.0000000000000D+00
202  2.0100000000000D+00  0.0000000000000D+00  0.0000000000000D+00
203  2.0200000000000D+00  0.0000000000000D+00  0.0000000000000D+00
204  2.0300000000000D+00  0.0000000000000D+00  0.0000000000000D+00
205  2.0400000000000D+00  0.0000000000000D+00  0.0000000000000D+00
206  2.0500000000000D+00  0.0000000000000D+00  0.0000000000000D+00
207  2.0600000000000D+00  0.0000000000000D+00  0.0000000000000D+00
208  2.0700000000000D+00  0.0000000000000D+00  0.0000000000000D+00
209  2.0800000000000D+00  0.0000000000000D+00  0.0000000000000D+00
210  2.0900000000000D+00  0.0000000000000D+00  0.0000000000000D+00
211  2.1000000000000D+00  0.0000000000000D+00  0.0000000000000D+00
212  2.1100000000000D+00  0.0000000000000D+00  0.0000000000000D+00
213  2.1200000000000D+00  0.0000000000000D+00  0.0000000000000D+00
214  2.1300000000000D+00  0.0000000000000D+00  0.0000000000000D+00
215  2.1400000000000D+00  0.0000000000000D+00  0.0000000000000D+00
216  2.1500000000000D+00  0.0000000000000D+00  0.0000000000000D+00
217  2.1600000000000D+00  0.0000000000000D+00  0.0000000000000D+00
218  2.1700000000000D+00  0.0000000000000D+00  0.0000000000000D+00
219  2.1800000000000D+00  0.0000000000000D+00  0.0000000000000D+00
220  2.1900000000000D+00  0.0000000000000D+00  0.0000000000000D+00
221  2.2000000000000D+00  0.0000000000000D+00  0.0000000000000D+00
222  2.2100000000000D+00  0.0000000000000D+00  0.0000000000000D+00
223  2.2200000000000D+00  0.0000000000000D+00  0.0000000000000D+00
224  2.2300000000000D+00  0.0000000000000D+00  0.0000000000000D+00
225  2.2400000000000D+00  0.0000000000000D+00  0.0000000000000D+00
226  2.2500000000000D+00  0.0000000000000D+00  0.0000000000000D+00
227  2.2600000000000D+00  0.0000000000000D+00  0.0000000000000D+00
228  2.2700000000000D+00  0.0000000000000D+00  0.0000000000000D+00
229  2.2800000000000D+00  0.0000000000000D+00  0.0000000000000D+00
230  2.2900000000000D+00  0.0000000000000D+00  0.0000000000000D+00
231  2.3000000000000D+00  0.0000000000000D+00  0.0000000000000D+00
232  2.3100000000000D+00  0.0000000000000D+00  0.0000000000000D+00
233  2.3200000000000D+00  0.0000000000000D+00  0.0000000000000D+00
234  2.3300000000000D+00  0.0000000000000D+00  0.0000000000000D+00
235  2.3400000000000D+00  0.0000000000000D+00  0.0000000000000D+00
236  2.3500000000000D+00  0.0000000000000D+00  0.0000000000000D+00
237  2.3600000000000D+00  0.0000000000000D+00  0.0000000000000D+00
238  2.3700000000000D+00  0.0000000000000D+00  0.0000000000000D+00
239  2.3800000000000D+00  0.0000000000000D+00  0.0000000000000D+00
240  2.3900000000000D+00  0.0000000000000D+00  0.0000000000000D+00
241  2.4000000000000D+00  0.0000000000000D+00  0.0000000000000D+00
242  2.4100000000000D+00  0.0000000000000D+00  0.0000000000000D+00
243  2.4200000000000D+00  0.0000000000000D+00  0.0000000000000D+00
244  2.4300000000000D+00  0.0000000000000D+00  0.0000000000000D+00
245  2.4400000000000D+00  0.0000000000000D+00  0.0000000000000D+00
246  2.4500000000000D+00  0.0000000000000D+00  0.0000000000000D+00
247  2.4600000000000D+00  0.0000000000000D+00  0.0000000000000D+00
248  2.4700000000000D+00  0.0000000000000D+00  0.0000000000000D+00
249  2.4800000000000D+00  0.0000000000000D+00  0.0000000000000D+00
250  2.4900000000000D+00  0.0000000000000D+00  0.0000000000000D+00
251  2.5000000000000D+00  0.0000000000000D+00  0.0000000000000D+00
252  2.5100000000000D+00  0.0000000000000D+00  0.0000000000000D+00
253  2.5200000000000D+00  0.0000000000000D+00  0.0000000000000D+00
254  2.5300000000000D+00  0.0000000000000D+00  0.0000000000000D+00
255  2.5400000000000D+00  0.0000000000000D+00  0.0000000000000D+00
256  2.5500000000000D+00  0.0000000000000D+00  0.0000000000000D+00
257  2.5600000000000D+00  0.0000000000000D+00  0.0000000000000D+00
258  2.5700000000000D+00  0.0000000000000D+00  0.0000000000000D+00
259  2.5800000000000D+00  0.0000000000000D+00  0.0000000000000D+00
260  2.5900000000000D+00  0.0000000000000D+00  0.0000000000000D+00
261  2.6000000000000D+00  0.0000000000000D+00  0.0000000000000D+00
262  2.6100000000000D+00  0.0000000000000D+00  0.0000000000000D+00
263  2.6200000000000D+00  0.0000000000000D+00  0.0000000000000D+00
264  2.6300000000000D+00  0.0000000000000D+00  0.0000000000000D+00
265  2.6400000000000D+00  0.0000000000000D+00  0.0000000000000D+00
266  2.6500000000000D+00  0.0000000000000D+00  0.0000000000000D+00
267  2.6600000000000D+00  0.0000000000000D+00  0.0000000000000D+00
268  2.6700000000000D+00  0.0000000000000D+00  0.0000000000000D+00
269  2.6800000000000D+00  0.0000000000000D+00  0.0000000000000D+00
270  2.6900000000000D+00  0.0000000000000D+00  0.0000000000000D+00
271  2.7000000000000D+00  0.0000000000000D+00  0.0000000000000D+00
272  2.7100000000000D+00  0.0000000000000D+00  0.0000000000000D+00
273  2.7200000000000D+00  0.0000000000000D+00  0.0000000000000D+00
274  2.7300000000000D+00  0.0000000000000D+00  0.0000000000000D+00
275  2.7400000000000D+00  0.0000000000000D+00  0.0000000000000D+00
276  2.7500000000000D+00  0.0000000000000D+00  0.0000000000000D+00
277  2.7600000000000D+00  0.0000000000000D+00  0.0000000000000D+00
278  2.7700000000000D+00  0.0000000000000D+00  0.0000000000000D+00
279  2.7800000000000D+00  0.0000000000000D+00  0.0000000000000D+00
280  2.7900000000000D+00  0.0000000000000D+00  0.0000000000000D+00
281  2.8000000000000D+00  0.0000000000000D+00  0.0000000000000D+00
282  2.8100000000000D+00  0.0000000000000D+00  0.0000000000000D+00
283  2.8200000000000D+00  0.0000000000000D+00  0.0000000000000D+00
284  2.8300000000000D+00  0.0000000000000D+00  0.0000000000000D+00
285  2.8400000000000D+00  0.0000000000000D+00  0.0000000000000D+00
286  2.8500000000000D+00  0.0000000000000D+00  0.0000000000000D+00
287  2.8600000000000D+00  0.0000000000000D+00  0.0000000000000D+00
288  2.8700000000000D+00  0.0000000000000D+00  0.0000000000000D+00
289  2.8800000000000D+00  0.0000000000000D+00  0.0000000000000D+00
290  2.8900000000000D+00  0.0000000000000D+00  0.0000000000000D+00
291  2.9000000000000D+00  0.0000000000000D+00  0.0000000000000D+00
292  2.9100000000000D+00  0.0000000000000D+00  0.0000000000000D+00
293  2.9200000000000D+00  0.0000000000000D+00  0.0000000000000D+00
294  2.9300000000000D+00  0.0000000000000D+00  0.0000000000000D+00
295  2.9400000000000D+00  0.0000000000000D+00  0.0000000000000D+00
296  2.9500000000000D+00  0.0000000000000D+00  0.0000000000000D+00
297  2.9600000000000D+00  0.0000000000000D+00  0.0000000000000D+00
298  2.9700000000000D+00  0.0000000000000D+00  0.0000000000000D+00
299  2.9800000000000D+00  0.0000000000000D+00  0.0000000000000D+00
300  2.9900000000000D+00  0.0000000000000D+00  0.0000000000000D+00
301  3.0000000000000D+00  0.0000000000000D+00  0.0000000000000D+00
302  3.0100000000000D+00  0.0000000000000D+00  0.0000000000000D+00
303  3.0200000000000D+00  0.0000000000000D+00  0.0000000000000D+00
304  3.0300000000000D+00  0.0000000000000D+00  0.0000000000000D+00
305  3.0400000000000D+00  0.0000000000000D+00  0.0000000000000D+00
306  3.0500000000000D+00  0.0000000000000D+00  0.0000000000000D+00
307  3.0600000000000D+00  0.0000000000000D+00  0.0000000000000D+00
308  3.0700000000000D+00  0.0000000000000D+00  0.0000000000000D+00
309  3.0800000000000D+00  0.0000000000000D+00  0.0000000000000D+00
310  3.0900000000000D+00  0.0000000000000D+00  0.0000000000000D+00
311  3.1000000000000D+00  0.0000000000000D+00  0.0000000000000D+00
312  3.1100000000000D+00  0.0000000000000D+00  0.0000000000000D+00
313  3.1200000000000D+00  0.0000000000000D+00  0.0000000000000D+00
314  3.1300000000000D+00  0.0000000000000D+00  0.0000000000000D+00
315  3.1400000000000D+00  0.0000000000000D+00  0.0000000000000D+00
316  3.1500000000000D+00  0.0000000000000D+00  0.0000000000000D+00
317  3.1600000000000D+00  0.0000000000000D+00  0.0000000000000D+00
318  3.1700000000000D+00  0.0000000000000D+00  0.0000000000000D+00
319  3.1800000000000D+00  0.0000000000000D+00  0.0000000000000D+00
320  3.1900000000000D+00  0.0000000000000D+00  0.0000000000000D+00
321  3.2000000000000D+00  0.0000000000000D+00  0.0000000000000D+00
322  3.2100000000000D+00  0.0000000000000D+00  0.0000000000000D+00
323  3.2200000000000D+00  0.0000000000000D+00  0.0000000000000D+00
324  3.2300000000000D+00  0.0000000000000D+00  0.0000000000000D+00
325  3.2400000000000D+00  0.0000000000000D+00  0.0000000000000D+00
326  3.2500000000000D+00  0.0000000000000D+00  0.0000000000000D+00
327  3.2600000000000D+00  0.0000000000000D+00  0.0000000000000D+00
328  3.2700000000000D+00  0.0000000000000D+00  0.0000000000000D+00
329  3.2800000000000D+00  0.0000000000000D+00  0.0000000000000D+00
330  3.2900000000000D+00  0.0000000000000D+00  0.0000000000000D+00
331  3.3000000000000D+00  0.0000000000000D+00  0.0000000000000D+00
332  3.3100000000000D+00  0.0000000000000D+00  0.0000000000000D+00
333  3.3200000000000D+00  0.0000000000000D+00  0.0000000000000D+00
334  3.3300000000000D+00  0.0000000000000D+00  0.0000000000000D+00
335  3.3400000000000D+00  0.0000000000000D+00  0.0000000000000D+00
336  3.3500000000000D+00  0.0000000000000D+00  0.0000000000000D+00
337  3.3600000000000D+00  0.0000000000000D+00  0.0000000000000D+00
338  3.3700000000000D+00  0.0000000000000D+00  0.0000000000000D+00
339  3.3800000000000D+00  0.0000000000000D+00  0.0000000000000D+00
340  3.3900000000000D+00  0.0000000000000D+00  0.0000000000000D+00
341  3.4000000000000D+00  0.0000000000000D+00  0.0000000000000D+00
342  3.4100000000000D+00  0.0000000000000D+00  0.0000000000000D+00
343  3.4200000000000D+00  0.0000000000000D+00  0.0000000000000D+00
344  3.4300000000000D+00  0.0000000000000D+00  0.0000000000000D+00
345  3.4400000000000D+00  0.0000000000000D+00  0.0000000000000D+00
346  3.4500000000000D+00  0.0000000000000D+00  0.0000000000000D+00
347  3.4600000000000D+00  0.0000000000000D+00  0.0000000000000D+00
348  3.4700000000000D+00  0.0000000000000D+00  0.0000000000000D+00
349  3.4800000000000D+00  0.0000000000000D+00  0.0000000000000D+00
350  3.4900000000000D+00  0.0000000000000D+00  0.0000000000000D+00
351  3.5000000000000D+00  0.0000000000000D+00  0.0000000000000D+00
352  3.5100000000000D+00  0.0000000000000D+00  0.0000000000000D+00
353  3.5200000000000D+00  0.0000000000000D+00  0.0000000000000D+00
354  3.5300000000000D+00  0.0000000000000D+00  0.0000000000000D+00
355  3.5400000000000D+00  0.0000000000000D+00  0.0000000000000D+00
356  3.5500000000000D+00  0.0000000000000D+00  0.0000000000000D+00
357  3.5600000000000D+00  0.0000000000000D+00  0.0000000000000D+00
358  3.5700000000000D+00  0.0000000000000D+00  0.0000000000000D+00
359  3.5800000000000D+00  0.0000000000000D+00  0.0000000000000D+00
360  3.5900000000000D+00  0.0000000000000D+00  0.0000000000000D+00
361  3.6000000000000D+00  0.0000000000000D+00  0.0000000000000D+00
362  3.6100000000000D+00  0.0000000000000D+00  0.0000000000000D+00
363  3.6200000000000D+00  0.0000000000000D+00  0.0000000000000D+00
364  3.6300000000000D+00  0.0000000000000D+00  0.0000000000000D+00
365  3.6400000000000D+00  0.0000000000000D+00  0.0000000000000D+00
366  3.6500000000000D+00  0.0000000000000D+00  0.0000000000000D+00
367  3.6600000000000D+00  0.0000000000000D+00  0.0000000000000D+00
368  3.6700000000000D+00  0.0000000000000D+00  0.0000000000000D+00
369  3.6800000000000D+00  0.0000000000000D+00  0.0000000000000D+00
370  3.6900000000000D+00  0.0000000000000D+00  0.0000000000000D+00
371  3.7000000000000D+00  0.0000000000000D+00  0.0000000000000D+00
372  3.7100000000000D+00  0.0000000000000D+00  0.0000000000000D+00
373  3.7200000000000D+00  0.0000000000000D+00  0.0000000000000D+00
374  3.7300000000000D+00  0.0000000000000D+00  0.0000000000000D+00
375  3.7400000000000D+00  0.0000000000000D+00  0.0000000000000D+00
376  3.7500000000000D+00  0.0000000000000D+00  0.0000000000000D+00
377  3.7600000000000D+00  0.0000000000000D+00  0.0000000000000D+00
378  3.7700000000000D+00  0.0000000000000D+00  0.0000000000000D+00
379  3.7800000000000D+00  0.0000000000000D+00  0.0000000000000D+00
380  3.7900000000000D+00  0.0000000000000D+00  0.0000000000000D+00
381  3.8000000000000D+00  0.0000000000000D+00  0.0000000000000D+00
382  3.8100000000000D+00  0.0000000000000D+00  0.0000000000000D+00
383  3.8200000000000D+00  0.0000000000000D+00  0.0000000000000D+00
384  3.8300000000000D+00  0.0000000000000D+00  0.0000000000000D+00
385  3.8400000000000D+00  0.0000000000000D+00  0.0000000000000D+00
386  3.8500000000000D+00  0.0000000000000D+00  0.0000000000000D+00
387  3.8600000000000D+00  0.0000000000000D+00  0.0000000000000D+00
388  3.8700000000000D+00  0.0000000000000D+00  0.0000000000000D+00
389  3.8800000000000D+00  0.0000000000000D+00  0.0000000000000D+00
390  3.8900000000000D+00  0.0000000000000D+00  0.0000000000000D+00
391  3.9000000000000D+00  0.0000000000000D+00  0.0000000000000D+00
392  3.9100000000000D+00  0.0000000000000D+00  0.0000000000000D+00
393  3.9200000000000D+00  0.0000000000000D+00  0.0000000000000D+00
394  3.9300000000000D+00  0.0000000000000D+00  0.0000000000000D+00
395  3.9400000000000D+00  0.0000000000000D+00  0.0000000000000D+00
396  3.9500000000000D+00  0.0000000000000D+00  0.0000000000000D+00
397  3.9600000000000D+00  0.0000000000000D+00  0.0000000000000D+00
398  3.9700000000000D+00  0.0000000000000D+00  0.0000000000000D+00
399  3.9800000000000D+00  0.0000000000000D+00  0.0000000000000D+00
400  3.9900000000000D+00  0.0000000000000D+00  0.0000000000000D+00
401  4.0000000000000D+00  0.0000000000000D+00  0.0000000000000D+00
402  4.0100000000000D+00  0.0000000000000D+00  0.0000000000000D+00
403  4.0200000000000D+00  0.0000000000000D+00  0.0000000000000D+00
404  4.0300000000000D+00  0.0000000000000D+00  0.0000000000000D+00
405  4.0400000000000D+00  0.0000000000000D+00  0.0000000000000D+00
406  4.0500000000000D+00  0.0000000000000D+00  0.0000000000000D+00
407  4.0600000000000D+00  0.0000000000000D+00  0.0000000000000D+00
408  4.0700000000000D+00  0.0000000000000D+00  0.0000000000000D+00
409  4.0800000000000D+00  0.0000000000000D+00  0.0000000000000D+00
410  4.0900000000000D+00  0.0000000000000D+00  0.0000000000000D+00
411  4.1000000000000D+00  0.0000000000000D+00  0.0000000000000D+00
412  4.1100000000000D+00  0.0000000000000D+00  0.0000000000000D+00
413  4.1200000000000D+00  0.0000000000000D+00  0.0000000000000D+00
414  4.1300000000000D+00  0.0000000000000D+00  0.0000000000000D+00
415  4.1400000000000D+00  0.0000000000000D+00  0.0000000000000D+00
416  4.1500000000000D+00  0.0000000000000D+00  0.0000000000000D+00
417  4.1600000000000D+00  0.0000000000000D+00  0.0000000000000D+00
418  4.1700000000000D+00  0.0000000000000D+00  0.0000000000000D+00
419  4.1800000000000D+00  0.0000000000000D+00  0.0000000000000D+00
420  4.1900000000000D+00  0.0000000000000D+00  0.0000000000000D+00
421  4.2000000000000D+00  0.0000000000000D+00  0.0000000000000D+00
422  4.2100000000000D+00  0.0000000000000D+00  0.0000000000000D+00
423  4.2200000000000D+00  0.0000000000000D+00  0.0000000000000D+00
424  4.2300000000000D+00  0.0000000000000D+00  0.0000000000000D+00
425  4.2400000000000D+00  0.0000000000000D+00  0.0000000000000D+00
426  4.2500000000000D+00  0.0000000000000D+00  0.0000000000000D+00
427  4.2600000000000D+00  0.0000000000000D+00  0.0000000000000D+00
428  4.2700000000000D+00  0.0000000000000D+00  0.0000000000000D+00
429  4.2800000000000D+00  0.0000000000000D+00  0.0000000000000D+00
430  4.2900000000000D+00  0.0000000000000D+00  0.0000000000000D+00
431  4.3000000000000D+00  0.0000000000000D+00  0.0000000000000D+00
432  4.3100000000000D+00  0.0000000000000D+00  0.0000000000000D+00
433  4.3200000000000D+00  0.0000000000000D+00  0.0000000000000D+00
434  4.3300000000000D+00  0.0000000000000D+00  0.0000000000000D+00
435  4.3400000000000D+00  0.0000000000000D+00  0.0000000000000D+00
436  4.3500000000000D+00  0.0000000000000D+00  0.0000000000000D+00
437  4.3600000000000D+00  0.0000000000000D+00  0.0000000000000D+00
438  4.3700000000000D+00  0.0000000000000D+00  0.0000000000000D+00
439  4.3800000000000D+00  0.0000000000000D+00  0.0000000000000D+00
440  4.3900000000000D+00  0.0000000000000D+00  0.0000000000000D+00
441  4.4000000000000D+00  0.0000000000000D+00  0.0000000000000D+00
442  4.4100000000000D+00  0.0000000000000D+00  0.0000000000000D+00
443  4.4200000000000D+00  0.0000000000000D+00  0.0000000000000D+00