As    ONCVPSP-3.2.3.1  r_core=   1.76603   1.70395   1.80867
33.0000     15.0000      170703    zatom,zion,pspd
8      11   2     4   600     0    pspcod,pspxc,lmax,lloc,mmax,r2well
5.99000000  5.00000000  0.00000000    rchrg fchrg qchrg
2     2     2     0     0    nproj
1     1           extension_switch
0                         8.3051104263369D+00  8.7481408998565D-01
1  0.0000000000000D+00  4.8439585675908D-12 -6.1019578279087D-11
2  1.0000000000000D-02  3.6526386455946D-02 -1.8101689915922D-02
3  2.0000000000000D-02  7.3034844831218D-02 -3.6194049716116D-02
4  3.0000000000000D-02  1.0950738902133D-01 -5.4267533353833D-02
5  4.0000000000000D-02  1.4592591726735D-01 -7.2312164934732D-02
6  5.0000000000000D-02  1.8227215531043D-01 -9.0317328813649D-02
7  6.0000000000000D-02  2.1852760072105D-01 -1.0827156567267D-01
8  7.0000000000000D-02  2.5467346878908D-01 -1.2616237650238D-01
9  8.0000000000000D-02  2.9069064035571D-01 -1.4397603634711D-01
10  9.0000000000000D-02  3.2655961196247D-01 -1.6169741959986D-01
11  1.0000000000000D-01  3.6226044868519D-01 -1.7930983854344D-01
12  1.1000000000000D-01  3.9777274001203D-01 -1.9679489673215D-01
13  1.2000000000000D-01  4.3307555911513D-01 -2.1413235869400D-01
14  1.3000000000000D-01  4.6814742585376D-01 -2.3130003730760D-01
15  1.4000000000000D-01  5.0296627383480D-01 -2.4827370007138D-01
16  1.5000000000000D-01  5.3750942184194D-01 -2.6502699533733D-01
17  1.6000000000000D-01  5.7175354992993D-01 -2.8153139942712D-01
18  1.7000000000000D-01  6.0567468046334D-01 -2.9775618538780D-01
19  1.8000000000000D-01  6.3924816436089D-01 -3.1366841397675D-01
20  1.9000000000000D-01  6.7244867278700D-01 -3.2923294729452D-01
21  2.0000000000000D-01  7.0525019451073D-01 -3.4441248530891D-01
22  2.1000000000000D-01  7.3762603912987D-01 -3.5916762533708D-01
23  2.2000000000000D-01  7.6954884633368D-01 -3.7345694437515D-01
24  2.3000000000000D-01  8.0099060135246D-01 -3.8723710398768D-01
25  2.4000000000000D-01  8.3192265671481D-01 -4.0046297729544D-01
26  2.5000000000000D-01  8.6231576040560D-01 -4.1308779742818D-01
27  2.6000000000000D-01  8.9214009048755D-01 -4.2506332664308D-01
28  2.7000000000000D-01  9.2136529621885D-01 -4.3634004514859D-01
29  2.8000000000000D-01  9.4996054566680D-01 -4.4686735852071D-01
30  2.9000000000000D-01  9.7789457978461D-01 -4.5659382245287D-01
31  3.0000000000000D-01  1.0051357728841D+00 -4.6546738344560D-01
32  3.1000000000000D-01  1.0316521994022D+00 -4.7343563391649D-01
33  3.2000000000000D-01  1.0574117068237D+00 -4.8044608009706D-01
34  3.3000000000000D-01  1.0823819945849D+00 -4.8644642098144D-01
35  3.4000000000000D-01  1.1065306987496D+00 -4.9138483650228D-01
36  3.5000000000000D-01  1.1298254822073D+00 -4.9521028303454D-01
37  3.6000000000000D-01  1.1522341301100D+00 -4.9787279426535D-01
38  3.7000000000000D-01  1.1737246502263D+00 -4.9932378542184D-01
39  3.8000000000000D-01  1.1942653778541D+00 -4.9951635881591D-01
40  3.9000000000000D-01  1.2138250848994D+00 -4.9840560864770D-01
41  4.0000000000000D-01  1.2323730926908D+00 -4.9594892300680D-01
42  4.1000000000000D-01  1.2498793880686D+00 -4.9210628102260D-01
43  4.2000000000000D-01  1.2663147422534D+00 -4.8684054314265D-01
44  4.3000000000000D-01  1.2816508319670D+00 -4.8011773255889D-01
45  4.4000000000000D-01  1.2958603622519D+00 -4.7190730585774D-01
46  4.5000000000000D-01  1.3089171904063D+00 -4.6218241103922D-01
47  4.6000000000000D-01  1.3207964504288D+00 -4.5092013113233D-01
48  4.7000000000000D-01  1.3314746773432D+00 -4.3810171172849D-01
49  4.8000000000000D-01  1.3409299307558D+00 -4.2371277086098D-01
50  4.9000000000000D-01  1.3491419169811D+00 -4.0774348977484D-01
51  5.0000000000000D-01  1.3560921090591D+00 -3.9018878325801D-01
52  5.1000000000000D-01  1.3617638639777D+00 -3.7104844833952D-01
53  5.2000000000000D-01  1.3661425364083D+00 -3.5032729030309D-01
54  5.3000000000000D-01  1.3692155882611D+00 -3.2803522511336D-01
55  5.4000000000000D-01  1.3709726933692D+00 -3.0418735750684D-01
56  5.5000000000000D-01  1.3714058366150D+00 -2.7880403415697D-01
57  5.6000000000000D-01  1.3705094068268D+00 -2.5191087148549D-01
58  5.7000000000000D-01  1.3682802827847D+00 -2.2353875785352D-01
59  5.8000000000000D-01  1.3647179116963D+00 -1.9372383003064D-01
60  5.9000000000000D-01  1.3598243795272D+00 -1.6250742400171D-01
61  6.0000000000000D-01  1.3536044725974D+00 -1.2993600033181D-01
62  6.1000000000000D-01  1.3460657298889D+00 -9.6061044467672D-02
63  6.2000000000000D-01  1.3372184855464D+00 -6.0938942505846D-02
64  6.3000000000000D-01  1.3270759010942D+00 -2.4630833106270D-02
65  6.4000000000000D-01  1.3156539869369D+00  1.2797563629413D-02
66  6.5000000000000D-01  1.3029716127610D+00  5.1276139361821D-02
67  6.6000000000000D-01  1.2890505065068D+00  9.0730611721581D-02
68  6.7000000000000D-01  1.2739152416376D+00  1.3108275832581D-01
69  6.8000000000000D-01  1.2575932124890D+00  1.7225066930308D-01
70  6.9000000000000D-01  1.2401145975471D+00  2.1414901692909D-01
71  7.0000000000000D-01  1.2215123105661D+00  2.5668934089179D-01
72  7.1000000000000D-01  1.2018219395035D+00  2.9978034763050D-01
73  7.2000000000000D-01  1.1810816733192D+00  3.4332822213281D-01
74  7.3000000000000D-01  1.1593322167551D+00  3.8723695052269D-01
75  7.4000000000000D-01  1.1366166932814D+00  4.3140865173696D-01
76  7.5000000000000D-01  1.1129805364672D+00  4.7574391656168D-01
77  7.6000000000000D-01  1.0884713701039D+00  5.2014215228749D-01
78  7.7000000000000D-01  1.0631388774815D+00  5.6450193124222D-01
79  7.8000000000000D-01  1.0370346602837D+00  6.0872134147003D-01
80  7.9000000000000D-01  1.0102120876406D+00  6.5269833784880D-01
81  8.0000000000000D-01  9.8272613593941D-01  6.9633109197060D-01
82  8.1000000000000D-01  9.5463322005915D-01  7.3951833915439D-01
83  8.2000000000000D-01  9.2599101675489D-01  7.8215972101300D-01
84  8.3000000000000D-01  8.9685828097425D-01  8.2415612205968D-01
85  8.4000000000000D-01  8.6729465594161D-01  8.6540999891013D-01
86  8.5000000000000D-01  8.3736047789438D-01  9.0582570071471D-01
87  8.6000000000000D-01  8.0711657639909D-01  9.4530977954104D-01
88  8.7000000000000D-01  7.7662407121401D-01  9.8377128951781D-01
89  8.8000000000000D-01  7.4594416669795D-01  1.0211220736471D+00
90  8.9000000000000D-01  7.1513794479221D-01  1.0572770372921D+00
91  9.0000000000000D-01  6.8426615762356D-01  1.0921544074505D+00
92  9.1000000000000D-01  6.5338902079117D-01  1.1256759770281D+00
93  9.2000000000000D-01  6.2256600840806D-01  1.1577673334333D+00
94  9.3000000000000D-01  5.9185565096938D-01  1.1883580709205D+00
95  9.4000000000000D-01  5.6131533711404D-01  1.2173819862128D+00
96  9.5000000000000D-01  5.3100112033395D-01  1.2447772570416D+00
97  9.6000000000000D-01  5.0096753166568D-01  1.2704866033390D+00
98  9.7000000000000D-01  4.7126739937275D-01  1.2944574309180D+00
99  9.8000000000000D-01  4.4195167659463D-01  1.3166419575682D+00
100  9.9000000000000D-01  4.1306927789795D-01  1.3369973215843D+00
101  1.0000000000000D+00  3.8466692561947D-01  1.3554856728281D+00
102  1.0100000000000D+00  3.5678900683854D-01  1.3720742465023D+00
103  1.0200000000000D+00  3.2947744175812D-01  1.3867354198849D+00
104  1.0300000000000D+00  3.0277156421034D-01  1.3994467523377D+00
105  1.0400000000000D+00  2.7670801493121D-01  1.4101910089621D+00
106  1.0500000000000D+00  2.5132064818204D-01  1.4189561683197D+00
107  1.0600000000000D+00  2.2664045220930D-01  1.4257354146844D+00
108  1.0700000000000D+00  2.0269548395905D-01  1.4305271153238D+00
109  1.0800000000000D+00  1.7951081837644D-01  1.4333347833372D+00
110  1.0900000000000D+00  1.5710851252818D-01  1.4341670265965D+00
111  1.1000000000000D+00  1.3550758471270D-01  1.4330374833499D+00
112  1.1100000000000D+00  1.1472400861215D-01  1.4299647450575D+00
113  1.1200000000000D+00  9.4770722465300D-02  1.4249722670232D+00
114  1.1300000000000D+00  7.5657653138078D-02  1.4180882673839D+00
115  1.1400000000000D+00  5.7391754893871D-02  1.4093456150068D+00
116  1.1500000000000D+00  3.9977062562019D-02  1.3987817068248D+00
117  1.1600000000000D+00  2.3414758723746D-02  1.3864383351227D+00
118  1.1700000000000D+00  7.7032544426992D-03  1.3723615452568D+00
119  1.1800000000000D+00 -7.1617169899083D-03  1.3566014842694D+00
120  1.1900000000000D+00 -2.1186993932808D-02  1.3392122408234D+00
121  1.2000000000000D+00 -3.4381868587603D-02  1.3202516768476D+00
122  1.2100000000000D+00 -4.6757958267741D-02  1.2997812512546D+00
123  1.2200000000000D+00 -5.8329066560476D-02  1.2778658360608D+00
124  1.2300000000000D+00 -6.9111035272195D-02  1.2545735251948D+00
125  1.2400000000000D+00 -7.9121588084335D-02  1.2299754362490D+00
126  1.2500000000000D+00 -8.8380166875488D-02  1.2041455054157D+00
127  1.2600000000000D+00 -9.6907761733767D-02  1.1771602757918D+00
128  1.2700000000000D+00 -1.0472673568442D-01  1.1490986792256D+00
129  1.2800000000000D+00 -1.1186064518084D-01  1.1200418118641D+00
130  1.2900000000000D+00 -1.1833405743670D-01  1.0900727035190D+00
131  1.3000000000000D+00 -1.2417236565604D-01  1.0592760809710D+00
132  1.3100000000000D+00 -1.2940160323987D-01  1.0277381253214D+00
133  1.3200000000000D+00 -1.3404825802400D-01  9.9554622348058D-01
134  1.3300000000000D+00 -1.3813908756768D-01  9.6278871390882D-01
135  1.3400000000000D+00 -1.4170093654211D-01  9.2955462669824D-01
136  1.3500000000000D+00 -1.4476055716116D-01  8.9593341812577D-01
137  1.3600000000000D+00 -1.4734443360087D-01  8.6201469981382D-01
138  1.3700000000000D+00 -1.4947861133784D-01  8.2788796262982D-01
139  1.3800000000000D+00 -1.5118853217001D-01  7.9364229555315D-01
140  1.3900000000000D+00 -1.5249887578471D-01  7.5936609967948D-01
141  1.4000000000000D+00 -1.5343340855162D-01  7.2514679763642D-01
142  1.4100000000000D+00 -1.5401484014934D-01  6.9107053873977D-01
143  1.4200000000000D+00 -1.5426468873367D-01  6.5722190014383D-01
144  1.4300000000000D+00 -1.5420315497775D-01  6.2368358449659D-01
145  1.4400000000000D+00 -1.5384900556853D-01  5.9053611443833D-01
146  1.4500000000000D+00 -1.5321946642676D-01  5.5785752449648D-01
147  1.4600000000000D+00 -1.5233012588187D-01  5.2572305096418D-01
148  1.4700000000000D+00 -1.5119484814837D-01  4.9420482025914D-01
149  1.4800000000000D+00 -1.4982569695104D-01  4.6337153662839D-01
150  1.4900000000000D+00 -1.4823286962627D-01  4.3328816970975D-01
151  1.5000000000000D+00 -1.4642464137347D-01  4.0401564294428D-01
152  1.5100000000000D+00 -1.4440731971399D-01  3.7561052354943D-01
153  1.5200000000000D+00 -1.4218520888740D-01  3.4812471500821D-01
154  1.5300000000000D+00 -1.3976058386697D-01  3.2160515305777D-01
155  1.5400000000000D+00 -1.3713367381484D-01  2.9609350607252D-01
156  1.5500000000000D+00 -1.3430265415607D-01  2.7162588011519D-01
157  1.5600000000000D+00 -1.3126364738226D-01  2.4823253086478D-01
158  1.5700000000000D+00 -1.2801073217884D-01  2.2593758648410D-01
159  1.5800000000000D+00 -1.2453595947314D-01  2.0475877344179D-01
160  1.5900000000000D+00 -1.2082940464447D-01  1.8470730353330D-01
161  1.6000000000000D+00 -1.1687909878948D-01  1.6578712888118D-01
162  1.6100000000000D+00 -1.1267113029691D-01  1.4799503286994D-01
163  1.6200000000000D+00 -1.0819000277155D-01  1.3132205743899D-01
164  1.6300000000000D+00 -1.0341892822240D-01  1.1575448687099D-01
165  1.6400000000000D+00 -9.8340222085070D-02  1.0127523821350D-01
166  1.6500000000000D+00 -9.2935509220416D-02  8.7864300960234D-02
167  1.6600000000000D+00 -8.7185730663475D-02  7.5498127681528D-02
168  1.6700000000000D+00 -8.1071251985582D-02  6.4149592968300D-02
169  1.6800000000000D+00 -7.4571964668256D-02  5.3787959575999D-02
170  1.6900000000000D+00 -6.7667363742474D-02  4.4378750920692D-02
171  1.7000000000000D+00 -6.0336626377919D-02  3.5883672245146D-02
172  1.7100000000000D+00 -5.2518713321112D-02  2.8249226265383D-02
173  1.7200000000000D+00 -4.4275512501905D-02  2.1452729402580D-02
174  1.7300000000000D+00 -3.5869267966741D-02  1.5528530068949D-02
175  1.7400000000000D+00 -2.6669453447115D-02  1.0241669724056D-02
176  1.7500000000000D+00 -1.5518235367165D-02  5.1823354689535D-03
177  1.7600000000000D+00 -4.4467781815406D-03  9.2293490859214D-04
178  1.7700000000000D+00  1.6171152142686D-03 -1.0826983365127D-03
179  1.7800000000000D+00  1.5457301142555D-03 -7.4007048081745D-04
180  1.7900000000000D+00 -2.3888336729773D-04  1.2187757970358D-04
181  1.8000000000000D+00 -4.5210656431929D-04  2.2076616840870D-04
182  1.8100000000000D+00  1.5619881041215D-05 -9.4718831478359D-06
183  1.8200000000000D+00  6.7674782800882D-05 -4.0152989216325D-05
184  1.8300000000000D+00  3.4320859077930D-06 -2.0051080464347D-06
185  1.8400000000000D+00 -8.2530847142679D-07  1.9942559867324D-06
186  1.8500000000000D+00 -2.5610761910344D-07  6.1885242951868D-07
187  1.8600000000000D+00  0.0000000000000D+00  0.0000000000000D+00
188  1.8700000000000D+00  0.0000000000000D+00  0.0000000000000D+00
189  1.8800000000000D+00  0.0000000000000D+00  0.0000000000000D+00
190  1.8900000000000D+00  0.0000000000000D+00  0.0000000000000D+00
191  1.9000000000000D+00  0.0000000000000D+00  0.0000000000000D+00
192  1.9100000000000D+00  0.0000000000000D+00  0.0000000000000D+00
193  1.9200000000000D+00  0.0000000000000D+00  0.0000000000000D+00
194  1.9300000000000D+00  0.0000000000000D+00  0.0000000000000D+00
195  1.9400000000000D+00  0.0000000000000D+00  0.0000000000000D+00
196  1.9500000000000D+00  0.0000000000000D+00  0.0000000000000D+00
197  1.9600000000000D+00  0.0000000000000D+00  0.0000000000000D+00
198  1.9700000000000D+00  0.0000000000000D+00  0.0000000000000D+00
199  1.9800000000000D+00  0.0000000000000D+00  0.0000000000000D+00
200  1.9900000000000D+00  0.0000000000000D+00  0.0000000000000D+00
201  2.0000000000000D+00  0.0000000000000D+00  0.0000000000000D+00
202  2.0100000000000D+00  0.0000000000000D+00  0.0000000000000D+00
203  2.0200000000000D+00  0.0000000000000D+00  0.0000000000000D+00
204  2.0300000000000D+00  0.0000000000000D+00  0.0000000000000D+00
205  2.0400000000000D+00  0.0000000000000D+00  0.0000000000000D+00
206  2.0500000000000D+00  0.0000000000000D+00  0.0000000000000D+00
207  2.0600000000000D+00  0.0000000000000D+00  0.0000000000000D+00
208  2.0700000000000D+00  0.0000000000000D+00  0.0000000000000D+00
209  2.0800000000000D+00  0.0000000000000D+00  0.0000000000000D+00
210  2.0900000000000D+00  0.0000000000000D+00  0.0000000000000D+00
211  2.1000000000000D+00  0.0000000000000D+00  0.0000000000000D+00
212  2.1100000000000D+00  0.0000000000000D+00  0.0000000000000D+00
213  2.1200000000000D+00  0.0000000000000D+00  0.0000000000000D+00
214  2.1300000000000D+00  0.0000000000000D+00  0.0000000000000D+00
215  2.1400000000000D+00  0.0000000000000D+00  0.0000000000000D+00
216  2.1500000000000D+00  0.0000000000000D+00  0.0000000000000D+00
217  2.1600000000000D+00  0.0000000000000D+00  0.0000000000000D+00
218  2.1700000000000D+00  0.0000000000000D+00  0.0000000000000D+00
219  2.1800000000000D+00  0.0000000000000D+00  0.0000000000000D+00
220  2.1900000000000D+00  0.0000000000000D+00  0.0000000000000D+00
221  2.2000000000000D+00  0.0000000000000D+00  0.0000000000000D+00
222  2.2100000000000D+00  0.0000000000000D+00  0.0000000000000D+00
223  2.2200000000000D+00  0.0000000000000D+00  0.0000000000000D+00
224  2.2300000000000D+00  0.0000000000000D+00  0.0000000000000D+00
225  2.2400000000000D+00  0.0000000000000D+00  0.0000000000000D+00
226  2.2500000000000D+00  0.0000000000000D+00  0.0000000000000D+00
227  2.2600000000000D+00  0.0000000000000D+00  0.0000000000000D+00
228  2.2700000000000D+00  0.0000000000000D+00  0.0000000000000D+00
229  2.2800000000000D+00  0.0000000000000D+00  0.0000000000000D+00
230  2.2900000000000D+00  0.0000000000000D+00  0.0000000000000D+00
231  2.3000000000000D+00  0.0000000000000D+00  0.0000000000000D+00
232  2.3100000000000D+00  0.0000000000000D+00  0.0000000000000D+00
233  2.3200000000000D+00  0.0000000000000D+00  0.0000000000000D+00
234  2.3300000000000D+00  0.0000000000000D+00  0.0000000000000D+00
235  2.3400000000000D+00  0.0000000000000D+00  0.0000000000000D+00
236  2.3500000000000D+00  0.0000000000000D+00  0.0000000000000D+00
237  2.3600000000000D+00  0.0000000000000D+00  0.0000000000000D+00
238  2.3700000000000D+00  0.0000000000000D+00  0.0000000000000D+00
239  2.3800000000000D+00  0.0000000000000D+00  0.0000000000000D+00
240  2.3900000000000D+00  0.0000000000000D+00  0.0000000000000D+00
241  2.4000000000000D+00  0.0000000000000D+00  0.0000000000000D+00
242  2.4100000000000D+00  0.0000000000000D+00  0.0000000000000D+00
243  2.4200000000000D+00  0.0000000000000D+00  0.0000000000000D+00
244  2.4300000000000D+00  0.0000000000000D+00  0.0000000000000D+00
245  2.4400000000000D+00  0.0000000000000D+00  0.0000000000000D+00
246  2.4500000000000D+00  0.0000000000000D+00  0.0000000000000D+00
247  2.4600000000000D+00  0.0000000000000D+00  0.0000000000000D+00
248  2.4700000000000D+00  0.0000000000000D+00  0.0000000000000D+00
249  2.4800000000000D+00  0.0000000000000D+00  0.0000000000000D+00
250  2.4900000000000D+00  0.0000000000000D+00  0.0000000000000D+00
251  2.5000000000000D+00  0.0000000000000D+00  0.0000000000000D+00
252  2.5100000000000D+00  0.0000000000000D+00  0.0000000000000D+00
253  2.5200000000000D+00  0.0000000000000D+00  0.0000000000000D+00
254  2.5300000000000D+00  0.0000000000000D+00  0.0000000000000D+00
255  2.5400000000000D+00  0.0000000000000D+00  0.0000000000000D+00
256  2.5500000000000D+00  0.0000000000000D+00  0.0000000000000D+00
257  2.5600000000000D+00  0.0000000000000D+00  0.0000000000000D+00
258  2.5700000000000D+00  0.0000000000000D+00  0.0000000000000D+00
259  2.5800000000000D+00  0.0000000000000D+00  0.0000000000000D+00
260  2.5900000000000D+00  0.0000000000000D+00  0.0000000000000D+00
261  2.6000000000000D+00  0.0000000000000D+00  0.0000000000000D+00
262  2.6100000000000D+00  0.0000000000000D+00  0.0000000000000D+00
263  2.6200000000000D+00  0.0000000000000D+00  0.0000000000000D+00
264  2.6300000000000D+00  0.0000000000000D+00  0.0000000000000D+00
265  2.6400000000000D+00  0.0000000000000D+00  0.0000000000000D+00
266  2.6500000000000D+00  0.0000000000000D+00  0.0000000000000D+00
267  2.6600000000000D+00  0.0000000000000D+00  0.0000000000000D+00
268  2.6700000000000D+00  0.0000000000000D+00  0.0000000000000D+00
269  2.6800000000000D+00  0.0000000000000D+00  0.0000000000000D+00
270  2.6900000000000D+00  0.0000000000000D+00  0.0000000000000D+00
271  2.7000000000000D+00  0.0000000000000D+00  0.0000000000000D+00
272  2.7100000000000D+00  0.0000000000000D+00  0.0000000000000D+00
273  2.7200000000000D+00  0.0000000000000D+00  0.0000000000000D+00
274  2.7300000000000D+00  0.0000000000000D+00  0.0000000000000D+00
275  2.7400000000000D+00  0.0000000000000D+00  0.0000000000000D+00
276  2.7500000000000D+00  0.0000000000000D+00  0.0000000000000D+00
277  2.7600000000000D+00  0.0000000000000D+00  0.0000000000000D+00
278  2.7700000000000D+00  0.0000000000000D+00  0.0000000000000D+00
279  2.7800000000000D+00  0.0000000000000D+00  0.0000000000000D+00
280  2.7900000000000D+00  0.0000000000000D+00  0.0000000000000D+00
281  2.8000000000000D+00  0.0000000000000D+00  0.0000000000000D+00
282  2.8100000000000D+00  0.0000000000000D+00  0.0000000000000D+00
283  2.8200000000000D+00  0.0000000000000D+00  0.0000000000000D+00
284  2.8300000000000D+00  0.0000000000000D+00  0.0000000000000D+00
285  2.8400000000000D+00  0.0000000000000D+00  0.0000000000000D+00
286  2.8500000000000D+00  0.0000000000000D+00  0.0000000000000D+00
287  2.8600000000000D+00  0.0000000000000D+00  0.0000000000000D+00
288  2.8700000000000D+00  0.0000000000000D+00  0.0000000000000D+00
289  2.8800000000000D+00  0.0000000000000D+00  0.0000000000000D+00
290  2.8900000000000D+00  0.0000000000000D+00  0.0000000000000D+00
291  2.9000000000000D+00  0.0000000000000D+00  0.0000000000000D+00
292  2.9100000000000D+00  0.0000000000000D+00  0.0000000000000D+00
293  2.9200000000000D+00  0.0000000000000D+00  0.0000000000000D+00
294  2.9300000000000D+00  0.0000000000000D+00  0.0000000000000D+00
295  2.9400000000000D+00  0.0000000000000D+00  0.0000000000000D+00
296  2.9500000000000D+00  0.0000000000000D+00  0.0000000000000D+00
297  2.9600000000000D+00  0.0000000000000D+00  0.0000000000000D+00
298  2.9700000000000D+00  0.0000000000000D+00  0.0000000000000D+00
299  2.9800000000000D+00  0.0000000000000D+00  0.0000000000000D+00
300  2.9900000000000D+00  0.0000000000000D+00  0.0000000000000D+00
301  3.0000000000000D+00  0.0000000000000D+00  0.0000000000000D+00
302  3.0100000000000D+00  0.0000000000000D+00  0.0000000000000D+00
303  3.0200000000000D+00  0.0000000000000D+00  0.0000000000000D+00
304  3.0300000000000D+00  0.0000000000000D+00  0.0000000000000D+00
305  3.0400000000000D+00  0.0000000000000D+00  0.0000000000000D+00
306  3.0500000000000D+00  0.0000000000000D+00  0.0000000000000D+00
307  3.0600000000000D+00  0.0000000000000D+00  0.0000000000000D+00
308  3.0700000000000D+00  0.0000000000000D+00  0.0000000000000D+00
309  3.0800000000000D+00  0.0000000000000D+00  0.0000000000000D+00
310  3.0900000000000D+00  0.0000000000000D+00  0.0000000000000D+00
311  3.1000000000000D+00  0.0000000000000D+00  0.0000000000000D+00
312  3.1100000000000D+00  0.0000000000000D+00  0.0000000000000D+00
313  3.1200000000000D+00  0.0000000000000D+00  0.0000000000000D+00
314  3.1300000000000D+00  0.0000000000000D+00  0.0000000000000D+00
315  3.1400000000000D+00  0.0000000000000D+00  0.0000000000000D+00
316  3.1500000000000D+00  0.0000000000000D+00  0.0000000000000D+00
317  3.1600000000000D+00  0.0000000000000D+00  0.0000000000000D+00
318  3.1700000000000D+00  0.0000000000000D+00  0.0000000000000D+00
319  3.1800000000000D+00  0.0000000000000D+00  0.0000000000000D+00
320  3.1900000000000D+00  0.0000000000000D+00  0.0000000000000D+00
321  3.2000000000000D+00  0.0000000000000D+00  0.0000000000000D+00
322  3.2100000000000D+00  0.0000000000000D+00  0.0000000000000D+00
323  3.2200000000000D+00  0.0000000000000D+00  0.0000000000000D+00
324  3.2300000000000D+00  0.0000000000000D+00  0.0000000000000D+00
325  3.2400000000000D+00  0.0000000000000D+00  0.0000000000000D+00
326  3.2500000000000D+00  0.0000000000000D+00  0.0000000000000D+00
327  3.2600000000000D+00  0.0000000000000D+00  0.0000000000000D+00
328  3.2700000000000D+00  0.0000000000000D+00  0.0000000000000D+00
329  3.2800000000000D+00  0.0000000000000D+00  0.0000000000000D+00
330  3.2900000000000D+00  0.0000000000000D+00  0.0000000000000D+00
331  3.3000000000000D+00  0.0000000000000D+00  0.0000000000000D+00
332  3.3100000000000D+00  0.0000000000000D+00  0.0000000000000D+00
333  3.3200000000000D+00  0.0000000000000D+00  0.0000000000000D+00
334  3.3300000000000D+00  0.0000000000000D+00  0.0000000000000D+00
335  3.3400000000000D+00  0.0000000000000D+00  0.0000000000000D+00
336  3.3500000000000D+00  0.0000000000000D+00  0.0000000000000D+00
337  3.3600000000000D+00  0.0000000000000D+00  0.0000000000000D+00
338  3.3700000000000D+00  0.0000000000000D+00  0.0000000000000D+00
339  3.3800000000000D+00  0.0000000000000D+00  0.0000000000000D+00
340  3.3900000000000D+00  0.0000000000000D+00  0.0000000000000D+00
341  3.4000000000000D+00  0.0000000000000D+00  0.0000000000000D+00
342  3.4100000000000D+00  0.0000000000000D+00  0.0000000000000D+00
343  3.4200000000000D+00  0.0000000000000D+00  0.0000000000000D+00
344  3.4300000000000D+00  0.0000000000000D+00  0.0000000000000D+00
345  3.4400000000000D+00  0.0000000000000D+00  0.0000000000000D+00
346  3.4500000000000D+00  0.0000000000000D+00  0.0000000000000D+00
347  3.4600000000000D+00  0.0000000000000D+00  0.0000000000000D+00
348  3.4700000000000D+00  0.0000000000000D+00  0.0000000000000D+00
349  3.4800000000000D+00  0.0000000000000D+00  0.0000000000000D+00
350  3.4900000000000D+00  0.0000000000000D+00  0.0000000000000D+00
351  3.5000000000000D+00  0.0000000000000D+00  0.0000000000000D+00
352  3.5100000000000D+00  0.0000000000000D+00  0.0000000000000D+00
353  3.5200000000000D+00  0.0000000000000D+00  0.0000000000000D+00
354  3.5300000000000D+00  0.0000000000000D+00  0.0000000000000D+00
355  3.5400000000000D+00  0.0000000000000D+00  0.0000000000000D+00
356  3.5500000000000D+00  0.0000000000000D+00  0.0000000000000D+00
357  3.5600000000000D+00  0.0000000000000D+00  0.0000000000000D+00
358  3.5700000000000D+00  0.0000000000000D+00  0.0000000000000D+00
359  3.5800000000000D+00  0.0000000000000D+00  0.0000000000000D+00
360  3.5900000000000D+00  0.0000000000000D+00  0.0000000000000D+00
361  3.6000000000000D+00  0.0000000000000D+00  0.0000000000000D+00
362  3.6100000000000D+00  0.0000000000000D+00  0.0000000000000D+00
363  3.6200000000000D+00  0.0000000000000D+00  0.0000000000000D+00
364  3.6300000000000D+00  0.0000000000000D+00  0.0000000000000D+00
365  3.6400000000000D+00  0.0000000000000D+00  0.0000000000000D+00
366  3.6500000000000D+00  0.0000000000000D+00  0.0000000000000D+00
367  3.6600000000000D+00  0.0000000000000D+00  0.0000000000000D+00
368  3.6700000000000D+00  0.0000000000000D+00  0.0000000000000D+00
369  3.6800000000000D+00  0.0000000000000D+00  0.0000000000000D+00
370  3.6900000000000D+00  0.0000000000000D+00  0.0000000000000D+00
371  3.7000000000000D+00  0.0000000000000D+00  0.0000000000000D+00
372  3.7100000000000D+00  0.0000000000000D+00  0.0000000000000D+00
373  3.7200000000000D+00  0.0000000000000D+00  0.0000000000000D+00
374  3.7300000000000D+00  0.0000000000000D+00  0.0000000000000D+00
375  3.7400000000000D+00  0.0000000000000D+00  0.0000000000000D+00
376  3.7500000000000D+00  0.0000000000000D+00  0.0000000000000D+00
377  3.7600000000000D+00  0.0000000000000D+00  0.0000000000000D+00
378  3.7700000000000D+00  0.0000000000000D+00  0.0000000000000D+00
379  3.7800000000000D+00  0.0000000000000D+00  0.0000000000000D+00
380  3.7900000000000D+00  0.0000000000000D+00  0.0000000000000D+00
381  3.8000000000000D+00  0.0000000000000D+00  0.0000000000000D+00
382  3.8100000000000D+00  0.0000000000000D+00  0.0000000000000D+00
383  3.8200000000000D+00  0.0000000000000D+00  0.0000000000000D+00
384  3.8300000000000D+00  0.0000000000000D+00  0.0000000000000D+00
385  3.8400000000000D+00  0.0000000000000D+00  0.0000000000000D+00
386  3.8500000000000D+00  0.0000000000000D+00  0.0000000000000D+00
387  3.8600000000000D+00  0.0000000000000D+00  0.0000000000000D+00
388  3.8700000000000D+00  0.0000000000000D+00  0.0000000000000D+00
389  3.8800000000000D+00  0.0000000000000D+00  0.0000000000000D+00
390  3.8900000000000D+00  0.0000000000000D+00  0.0000000000000D+00
391  3.9000000000000D+00  0.0000000000000D+00  0.0000000000000D+00
392  3.9100000000000D+00  0.0000000000000D+00  0.0000000000000D+00
393  3.9200000000000D+00  0.0000000000000D+00  0.0000000000000D+00
394  3.9300000000000D+00  0.0000000000000D+00  0.0000000000000D+00
395  3.9400000000000D+00  0.0000000000000D+00  0.0000000000000D+00
396  3.9500000000000D+00  0.0000000000000D+00  0.0000000000000D+00
397  3.9600000000000D+00  0.0000000000000D+00  0.0000000000000D+00
398  3.9700000000000D+00  0.0000000000000D+00  0.0000000000000D+00
399  3.9800000000000D+00  0.0000000000000D+00  0.0000000000000D+00
400  3.9900000000000D+00  0.0000000000000D+00  0.0000000000000D+00
401  4.0000000000000D+00  0.0000000000000D+00  0.0000000000000D+00
402  4.0100000000000D+00  0.0000000000000D+00  0.0000000000000D+00
403  4.0200000000000D+00  0.0000000000000D+00  0.0000000000000D+00
404  4.0300000000000D+00  0.0000000000000D+00  0.0000000000000D+00
405  4.0400000000000D+00  0.0000000000000D+00  0.0000000000000D+00
406  4.0500000000000D+00  0.0000000000000D+00  0.0000000000000D+00
407  4.0600000000000D+00  0.0000000000000D+00  0.0000000000000D+00
408  4.0700000000000D+00  0.0000000000000D+00  0.0000000000000D+00
409  4.0800000000000D+00  0.0000000000000D+00  0.0000000000000D+00
410  4.0900000000000D+00  0.0000000000000D+00  0.0000000000000D+00
411  4.1000000000000D+00  0.0000000000000D+00  0.0000000000000D+00
412  4.1100000000000D+00  0.0000000000000D+00  0.0000000000000D+00
413  4.1200000000000D+00  0.0000000000000D+00  0.0000000000000D+00
414  4.1300000000000D+00  0.0000000000000D+00  0.0000000000000D+00
415  4.1400000000000D+00  0.0000000000000D+00  0.0000000000000D+00
416  4.1500000000000D+00  0.0000000000000D+00  0.0000000000000D+00
417  4.1600000000000D+00  0.0000000000000D+00  0.0000000000000D+00
418  4.1700000000000D+00  0.0000000000000D+00  0.0000000000000D+00
419  4.1800000000000D+00  0.0000000000000D+00  0.0000000000000D+00
420  4.1900000000000D+00  0.0000000000000D+00  0.0000000000000D+00
421  4.2000000000000D+00  0.0000000000000D+00  0.0000000000000D+00
422  4.2100000000000D+00  0.0000000000000D+00  0.0000000000000D+00
423  4.2200000000000D+00  0.0000000000000D+00  0.0000000000000D+00
424  4.2300000000000D+00  0.0000000000000D+00  0.0000000000000D+00
425  4.2400000000000D+00  0.0000000000000D+00  0.0000000000000D+00
426  4.2500000000000D+00  0.0000000000000D+00  0.0000000000000D+00
427  4.2600000000000D+00  0.0000000000000D+00  0.0000000000000D+00
428  4.2700000000000D+00  0.0000000000000D+00  0.0000000000000D+00
429  4.2800000000000D+00  0.0000000000000D+00  0.0000000000000D+00
430  4.2900000000000D+00  0.0000000000000D+00  0.0000000000000D+00
431  4.3000000000000D+00  0.0000000000000D+00  0.0000000000000D+00
432  4.3100000000000D+00  0.0000000000000D+00  0.0000000000000D+00
433  4.3200000000000D+00  0.0000000000000D+00  0.0000000000000D+00
434  4.3300000000000D+00  0.0000000000000D+00  0.0000000000000D+00
435  4.3400000000000D+00  0.0000000000000D+00  0.0000000000000D+00
436  4.3500000000000D+00  0.0000000000000D+00  0.0000000000000D+00
437  4.3600000000000D+00  0.0000000000000D+00  0.0000000000000D+00
438  4.3700000000000D+00  0.0000000000000D+00  0.0000000000000D+00
439  4.3800000000000D+00  0.0000000000000D+00  0.0000000000000D+00
440  4.3900000000000D+00  0.0000000000000D+00  0.0000000000000D+00
441  4.4000000000000D+00  0.0000000000000D+00  0.0000000000000D+00
442  4.4100000000000D+00  0.0000000000000D+00  0.0000000000000D+00
443  4.4200000000000D+00  0.0000000000000D+00  0.0000000000000D+00