As    ONCVPSP-3.2.3.1  r_core=   1.76603   1.60529   1.80867
33.0000     15.0000      170504    zatom,zion,pspd
8      11   2     4   600     0    pspcod,pspxc,lmax,lloc,mmax,r2well
5.99000000  5.00000000  0.00000000    rchrg fchrg qchrg
2     2     2     0     0    nproj
1     1           extension_switch
0                         7.4629227800761D+00  7.7472457644530D-01
1  0.0000000000000D+00  5.4217463851813D-12 -6.1282767055415D-11
2  1.0000000000000D-02  3.0082720956385D-02 -2.1335763142642D-03
3  2.0000000000000D-02  6.0162809212061D-02 -4.3254392704818D-03
4  3.0000000000000D-02  9.0237549052192D-02 -6.6333939613879D-03
5  4.0000000000000D-02  1.2030405912638D-01 -9.1142852350496D-03
6  5.0000000000000D-02  1.5035921061118D-01 -1.1823524691431D-02
7  6.0000000000000D-02  1.8039954654527D-01 -1.4814626178306D-02
8  7.0000000000000D-02  2.1042120272172D-01 -1.8138752547692D-02
9  8.0000000000000D-02  2.4041983051657D-01 -2.1844276372695D-02
10  9.0000000000000D-02  2.7039052202609D-01 -2.5976357248817D-02
11  1.0000000000000D-01  3.0032773787726D-01 -3.0576538213456D-02
12  1.1000000000000D-01  3.3022523806638D-01 -3.5682363713249D-02
13  1.2000000000000D-01  3.6007601617052D-01 -4.1327021431522D-02
14  1.3000000000000D-01  3.8987223726445D-01 -4.7539010157871D-02
15  1.4000000000000D-01  4.1960517986282D-01 -5.4341835739837D-02
16  1.5000000000000D-01  4.4926518219320D-01 -6.1753737003061D-02
17  1.6000000000000D-01  4.7884159309028D-01 -6.9787443362259D-02
18  1.7000000000000D-01  5.0832272778506D-01 -7.8449965671908D-02
19  1.8000000000000D-01  5.3769582884573D-01 -8.7742421682765D-02
20  1.9000000000000D-01  5.6694703250821D-01 -9.7659897280521D-02
21  2.0000000000000D-01  5.9606134061512D-01 -1.0819134448546D-01
22  2.1000000000000D-01  6.2502259836178D-01 -1.1931951698957D-01
23  2.2000000000000D-01  6.5381347802665D-01 -1.3102094379959D-01
24  2.3000000000000D-01  6.8241546884182D-01 -1.4326594134400D-01
25  2.4000000000000D-01  7.1080887313661D-01 -1.5601866418742D-01
26  2.5000000000000D-01  7.3897280886414D-01 -1.6923719428192D-01
27  2.6000000000000D-01  7.6688521859691D-01 -1.8287366846867D-01
28  2.7000000000000D-01  7.9452288505321D-01 -1.9687444372967D-01
29  2.8000000000000D-01  8.2186145319130D-01 -2.1118029947687D-01
30  2.9000000000000D-01  8.4887545888338D-01 -2.2572667595705D-01
31  3.0000000000000D-01  8.7553836415584D-01 -2.4044394764652D-01
32  3.1000000000000D-01  9.0182259895667D-01 -2.5525773031020D-01
33  3.2000000000000D-01  9.2769960938524D-01 -2.7008922020754D-01
34  3.3000000000000D-01  9.5313991229383D-01 -2.8485556374271D-01
35  3.4000000000000D-01  9.7811315614446D-01 -2.9947025568031D-01
36  3.5000000000000D-01  1.0025881879790D+00 -3.1384356388138D-01
37  3.6000000000000D-01  1.0265331263349D+00 -3.2788297835839D-01
38  3.7000000000000D-01  1.0499154399142D+00 -3.4149368230378D-01
39  3.8000000000000D-01  1.0727020317875D+00 -3.5457904261403D-01
40  3.9000000000000D-01  1.0948593288918D+00 -3.6704111731261D-01
41  4.0000000000000D-01  1.1163533765562D+00 -3.7878117716949D-01
42  4.1000000000000D-01  1.1371499377658D+00 -3.8970023872428D-01
43  4.2000000000000D-01  1.1572145968535D+00 -3.9969960584415D-01
44  4.3000000000000D-01  1.1765128672855D+00 -4.0868141688702D-01
45  4.4000000000000D-01  1.1950103031875D+00 -4.1654919449592D-01
46  4.5000000000000D-01  1.2126726142363D+00 -4.2320839502238D-01
47  4.6000000000000D-01  1.2294657835258D+00 -4.2856695456380D-01
48  4.7000000000000D-01  1.2453561879959D+00 -4.3253582860490D-01
49  4.8000000000000D-01  1.2603107209978D+00 -4.3502952227393D-01
50  4.9000000000000D-01  1.2742969165543D+00 -4.3596660826176D-01
51  5.0000000000000D-01  1.2872830748577D+00 -4.3527022950605D-01
52  5.1000000000000D-01  1.2992383885393D+00 -4.3286858381239D-01
53  5.2000000000000D-01  1.3101330692299D+00 -4.2869538767033D-01
54  5.3000000000000D-01  1.3199384739230D+00 -4.2269031662312D-01
55  5.4000000000000D-01  1.3286272306455D+00 -4.1479941966649D-01
56  5.5000000000000D-01  1.3361733629332D+00 -4.0497550528179D-01
57  5.6000000000000D-01  1.3425524126052D+00 -3.9317849685315D-01
58  5.7000000000000D-01  1.3477415603279D+00 -3.7937575537503D-01
59  5.8000000000000D-01  1.3517197434607D+00 -3.6354236752609D-01
60  5.9000000000000D-01  1.3544677706732D+00 -3.4566139736479D-01
61  6.0000000000000D-01  1.3559684328321D+00 -3.2572410009285D-01
62  6.1000000000000D-01  1.3562066096552D+00 -3.0373009653274D-01
63  6.2000000000000D-01  1.3551693716419D+00 -2.7968750717188D-01
64  6.3000000000000D-01  1.3528460767959D+00 -2.5361304484198D-01
65  6.4000000000000D-01  1.3492284616690D+00 -2.2553206532157D-01
66  6.5000000000000D-01  1.3443107262647D+00 -1.9547857537457D-01
67  6.6000000000000D-01  1.3380896123592D+00 -1.6349519796628D-01
68  6.7000000000000D-01  1.3305644748122D+00 -1.2963309462797D-01
69  6.8000000000000D-01  1.3217373454587D+00 -9.3951845171587D-02
70  6.9000000000000D-01  1.3116129891955D+00 -5.6519285186926D-02
71  7.0000000000000D-01  1.3001989518974D+00 -1.7411301981639D-02
72  7.1000000000000D-01  1.2875055998232D+00  2.3288410151664D-02
73  7.2000000000000D-01  1.2735461501982D+00  6.5488634235327D-02
74  7.3000000000000D-01  1.2583366926889D+00  1.0909095315353D-01
75  7.4000000000000D-01  1.2418962015119D+00  1.5399010891942D-01
76  7.5000000000000D-01  1.2242465379565D+00  2.0007439693539D-01
77  7.6000000000000D-01  1.2054124431259D+00  2.4722609333054D-01
78  7.7000000000000D-01  1.1854215207433D+00  2.9532191327984D-01
79  7.8000000000000D-01  1.1643042098994D+00  3.4423349804160D-01
80  7.9000000000000D-01  1.1420937476568D+00  3.9382792829530D-01
81  8.0000000000000D-01  1.1188261214652D+00  4.4396826121951D-01
82  8.1000000000000D-01  1.0945400113777D+00  4.9451408862328D-01
83  8.2000000000000D-01  1.0692767221008D+00  5.4532211333109D-01
84  8.3000000000000D-01  1.0430801049474D+00  5.9624674092566D-01
85  8.4000000000000D-01  1.0159964698071D+00  6.4714068387239D-01
86  8.5000000000000D-01  9.8807448728374D-01  6.9785557498542D-01
87  8.6000000000000D-01  9.5936508119695D-01  7.4824258714938D-01
88  8.7000000000000D-01  9.2992131168078D-01  7.9815305618153D-01
89  8.8000000000000D-01  8.9979824915653D-01  8.4743910370734D-01
90  8.9000000000000D-01  8.6905283949645D-01  8.9595425692890D-01
91  9.0000000000000D-01  8.3774376073537D-01  9.4355406218908D-01
92  9.1000000000000D-01  8.0593127172687D-01  9.9009668927494D-01
93  9.2000000000000D-01  7.7367705317945D-01  1.0354435234624D+00
94  9.3000000000000D-01  7.4104404154544D-01  1.0794597423781D+00
95  9.4000000000000D-01  7.0809625627236D-01  1.1220148748465D+00
96  9.5000000000000D-01  6.7489862096103D-01  1.1629833389953D+00
97  9.6000000000000D-01  6.4151677900840D-01  1.2022449570143D+00
98  9.7000000000000D-01  6.0801690434509D-01  1.2396854441004D+00
99  9.8000000000000D-01  5.7446550790681D-01  1.2751968692663D+00
100  9.9000000000000D-01  5.4092924050710D-01  1.3086780858545D+00
101  1.0000000000000D+00  5.0747469280436D-01  1.3400351297720D+00
102  1.0100000000000D+00  4.7416819307892D-01  1.3691815836407D+00
103  1.0200000000000D+00  4.4107560355661D-01  1.3960389052530D+00
104  1.0300000000000D+00  4.0826211603331D-01  1.4205367189193D+00
105  1.0400000000000D+00  3.7579204756989D-01  1.4426130685092D+00
106  1.0500000000000D+00  3.4372863703880D-01  1.4622146311806D+00
107  1.0600000000000D+00  3.1213384331340D-01  1.4792968910307D+00
108  1.0700000000000D+00  2.8106814589634D-01  1.4938242721046D+00
109  1.0800000000000D+00  2.5059034878660D-01  1.5057702304205D+00
110  1.0900000000000D+00  2.2075738838315D-01  1.5151173049045D+00
111  1.1000000000000D+00  1.9162414622116D-01  1.5218571273080D+00
112  1.1100000000000D+00  1.6324326732751D-01  1.5259903914444D+00
113  1.1200000000000D+00  1.3566498497283D-01  1.5275267822583D+00
114  1.1300000000000D+00  1.0893695258120D-01  1.5264848654696D+00
115  1.1400000000000D+00  8.3104083544371D-02  1.5228919387023D+00
116  1.1500000000000D+00  5.8208399663642D-02  1.5167838452321D+00
117  1.1600000000000D+00  3.4288888919044D-02  1.5082047516543D+00
118  1.1700000000000D+00  1.1381373233792D-02  1.4972068909570D+00
119  1.1800000000000D+00 -1.0481613118108D-02  1.4838502726062D+00
120  1.1900000000000D+00 -3.1270933859675D-02  1.4682023614570D+00
121  1.2000000000000D+00 -5.0960949245279D-02  1.4503377274040D+00
122  1.2100000000000D+00 -6.9529602253643D-02  1.4303376678147D+00
123  1.2200000000000D+00 -8.6958491945308D-02  1.4082898048865D+00
124  1.2300000000000D+00 -1.0323293355241D-01  1.3842876601945D+00
125  1.2400000000000D+00 -1.1834200491691D-01  1.3584302087488D+00
126  1.2500000000000D+00 -1.3227857891023D-01  1.3308214149313D+00
127  1.2600000000000D+00 -1.4503934156693D-01  1.3015697527762D+00
128  1.2700000000000D+00 -1.5662479570557D-01  1.2707877130402D+00
129  1.2800000000000D+00 -1.6703924982593D-01  1.2385912995505D+00
130  1.2900000000000D+00 -1.7629079218792D-01  1.2050995173256D+00
131  1.3000000000000D+00 -1.8439125002482D-01  1.1704338549035D+00
132  1.3100000000000D+00 -1.9135613384016D-01  1.1347177633576D+00
133  1.3200000000000D+00 -1.9720456689136D-01  1.0980761343688D+00
134  1.3300000000000D+00 -2.0195919998417D-01  1.0606347796516D+00
135  1.3400000000000D+00 -2.0564611170496D-01  1.0225199140838D+00
136  1.3500000000000D+00 -2.0829469440040D-01  9.8385764461779D-01
137  1.3600000000000D+00 -2.0993752617573D-01  9.4477346707752D-01
138  1.3700000000000D+00 -2.1061022925032D-01  9.0539177288532D-01
139  1.3800000000000D+00 -2.1035131516360D-01  8.6583536739989D-01
140  1.3900000000000D+00 -2.0920201722975D-01  8.2622500176843D-01
141  1.4000000000000D+00 -2.0720611082741D-01  7.8667891978214D-01
142  1.4100000000000D+00 -2.0440972212953D-01  7.4731242109696D-01
143  1.4200000000000D+00 -2.0086112583967D-01  7.0823744237113D-01
144  1.4300000000000D+00 -1.9661053273787D-01  6.6956215710658D-01
145  1.4400000000000D+00 -1.9170986767740D-01  6.3139059549705D-01
146  1.4500000000000D+00 -1.8621253887631D-01  5.9382228494272D-01
147  1.4600000000000D+00 -1.8017319933286D-01  5.5695191183485D-01
148  1.4700000000000D+00 -1.7364750117300D-01  5.2086900542582D-01
149  1.4800000000000D+00 -1.6669184392968D-01  4.8565764364128D-01
150  1.4900000000000D+00 -1.5936311757432D-01  4.5139618161160D-01
151  1.5000000000000D+00 -1.5171844136177D-01  4.1815700244829D-01
152  1.5100000000000D+00 -1.4381489940254D-01  3.8600629052573D-01
153  1.5200000000000D+00 -1.3570927400441D-01  3.5500382690226D-01
154  1.5300000000000D+00 -1.2745777778983D-01  3.2520280642804D-01
155  1.5400000000000D+00 -1.1911578562127D-01  2.9664967634722D-01
156  1.5500000000000D+00 -1.1073756721072D-01  2.6938399433189D-01
157  1.5600000000000D+00 -1.0237602169511D-01  2.4343830724229D-01
158  1.5700000000000D+00 -9.4082415500460D-02  2.1883805209706D-01
159  1.5800000000000D+00 -8.5906123761365D-02  1.9560146966190D-01
160  1.5900000000000D+00 -7.7894402436253D-02  1.7373969744766D-01
161  1.6000000000000D+00 -7.0092054203928D-02  1.5325618763277D-01
162  1.6100000000000D+00 -6.2541247104946D-02  1.3414702683056D-01
163  1.6200000000000D+00 -5.5281559541522D-02  1.1640268696250D-01
164  1.6300000000000D+00 -4.8349980305416D-02  1.0000930967407D-01
165  1.6400000000000D+00 -4.1781011442026D-02  8.4950435162445D-02
166  1.6500000000000D+00 -3.5606613837908D-02  7.1207705658138D-02
167  1.6600000000000D+00 -2.9855990608806D-02  5.8760440760842D-02
168  1.6700000000000D+00 -2.4555469709345D-02  4.7585811757959D-02
169  1.6800000000000D+00 -1.9728392034981D-02  3.7659011996990D-02
170  1.6900000000000D+00 -1.5394992889910D-02  2.8953313886747D-02
171  1.7000000000000D+00 -1.1572298440931D-02  2.1440163120009D-02
172  1.7100000000000D+00 -8.2755426514692D-03  1.5091484326646D-02
173  1.7200000000000D+00 -5.5119022604711D-03  9.8706053543077D-03
174  1.7300000000000D+00 -3.2810343761690D-03  5.7343093874033D-03
175  1.7400000000000D+00 -1.6025337040749D-03  2.6692848065501D-03
176  1.7500000000000D+00 -4.9589821448441D-04  6.6036076121956D-04
177  1.7600000000000D+00  7.7950608948104D-05 -3.6919142512002D-04
178  1.7700000000000D+00  2.2189302459970D-04 -5.6947922095707D-04
179  1.7800000000000D+00  1.1071509510314D-04 -2.6422100439530D-04
180  1.7900000000000D+00 -2.0954707974342D-05  4.9108168432360D-05
181  1.8000000000000D+00 -3.6142361759302D-05  8.3433952085439D-05
182  1.8100000000000D+00  1.9695726484525D-06 -4.7144765142326D-06
183  1.8200000000000D+00  8.2432863518039D-06 -1.9598112546457D-05
184  1.8300000000000D+00  4.0781684816496D-07 -9.6469433442535D-07
185  1.8400000000000D+00 -5.9374809311785D-07  1.6465211885033D-06
186  1.8500000000000D+00 -1.8425039332595D-07  5.1094425416709D-07
187  1.8600000000000D+00  0.0000000000000D+00  0.0000000000000D+00
188  1.8700000000000D+00  0.0000000000000D+00  0.0000000000000D+00
189  1.8800000000000D+00  0.0000000000000D+00  0.0000000000000D+00
190  1.8900000000000D+00  0.0000000000000D+00  0.0000000000000D+00
191  1.9000000000000D+00  0.0000000000000D+00  0.0000000000000D+00
192  1.9100000000000D+00  0.0000000000000D+00  0.0000000000000D+00
193  1.9200000000000D+00  0.0000000000000D+00  0.0000000000000D+00
194  1.9300000000000D+00  0.0000000000000D+00  0.0000000000000D+00
195  1.9400000000000D+00  0.0000000000000D+00  0.0000000000000D+00
196  1.9500000000000D+00  0.0000000000000D+00  0.0000000000000D+00
197  1.9600000000000D+00  0.0000000000000D+00  0.0000000000000D+00
198  1.9700000000000D+00  0.0000000000000D+00  0.0000000000000D+00
199  1.9800000000000D+00  0.0000000000000D+00  0.0000000000000D+00
200  1.9900000000000D+00  0.0000000000000D+00  0.0000000000000D+00
201  2.0000000000000D+00  0.0000000000000D+00  0.0000000000000D+00
202  2.0100000000000D+00  0.0000000000000D+00  0.0000000000000D+00
203  2.0200000000000D+00  0.0000000000000D+00  0.0000000000000D+00
204  2.0300000000000D+00  0.0000000000000D+00  0.0000000000000D+00
205  2.0400000000000D+00  0.0000000000000D+00  0.0000000000000D+00
206  2.0500000000000D+00  0.0000000000000D+00  0.0000000000000D+00
207  2.0600000000000D+00  0.0000000000000D+00  0.0000000000000D+00
208  2.0700000000000D+00  0.0000000000000D+00  0.0000000000000D+00
209  2.0800000000000D+00  0.0000000000000D+00  0.0000000000000D+00
210  2.0900000000000D+00  0.0000000000000D+00  0.0000000000000D+00
211  2.1000000000000D+00  0.0000000000000D+00  0.0000000000000D+00
212  2.1100000000000D+00  0.0000000000000D+00  0.0000000000000D+00
213  2.1200000000000D+00  0.0000000000000D+00  0.0000000000000D+00
214  2.1300000000000D+00  0.0000000000000D+00  0.0000000000000D+00
215  2.1400000000000D+00  0.0000000000000D+00  0.0000000000000D+00
216  2.1500000000000D+00  0.0000000000000D+00  0.0000000000000D+00
217  2.1600000000000D+00  0.0000000000000D+00  0.0000000000000D+00
218  2.1700000000000D+00  0.0000000000000D+00  0.0000000000000D+00
219  2.1800000000000D+00  0.0000000000000D+00  0.0000000000000D+00
220  2.1900000000000D+00  0.0000000000000D+00  0.0000000000000D+00
221  2.2000000000000D+00  0.0000000000000D+00  0.0000000000000D+00
222  2.2100000000000D+00  0.0000000000000D+00  0.0000000000000D+00
223  2.2200000000000D+00  0.0000000000000D+00  0.0000000000000D+00
224  2.2300000000000D+00  0.0000000000000D+00  0.0000000000000D+00
225  2.2400000000000D+00  0.0000000000000D+00  0.0000000000000D+00
226  2.2500000000000D+00  0.0000000000000D+00  0.0000000000000D+00
227  2.2600000000000D+00  0.0000000000000D+00  0.0000000000000D+00
228  2.2700000000000D+00  0.0000000000000D+00  0.0000000000000D+00
229  2.2800000000000D+00  0.0000000000000D+00  0.0000000000000D+00
230  2.2900000000000D+00  0.0000000000000D+00  0.0000000000000D+00
231  2.3000000000000D+00  0.0000000000000D+00  0.0000000000000D+00
232  2.3100000000000D+00  0.0000000000000D+00  0.0000000000000D+00
233  2.3200000000000D+00  0.0000000000000D+00  0.0000000000000D+00
234  2.3300000000000D+00  0.0000000000000D+00  0.0000000000000D+00
235  2.3400000000000D+00  0.0000000000000D+00  0.0000000000000D+00
236  2.3500000000000D+00  0.0000000000000D+00  0.0000000000000D+00
237  2.3600000000000D+00  0.0000000000000D+00  0.0000000000000D+00
238  2.3700000000000D+00  0.0000000000000D+00  0.0000000000000D+00
239  2.3800000000000D+00  0.0000000000000D+00  0.0000000000000D+00
240  2.3900000000000D+00  0.0000000000000D+00  0.0000000000000D+00
241  2.4000000000000D+00  0.0000000000000D+00  0.0000000000000D+00
242  2.4100000000000D+00  0.0000000000000D+00  0.0000000000000D+00
243  2.4200000000000D+00  0.0000000000000D+00  0.0000000000000D+00
244  2.4300000000000D+00  0.0000000000000D+00  0.0000000000000D+00
245  2.4400000000000D+00  0.0000000000000D+00  0.0000000000000D+00
246  2.4500000000000D+00  0.0000000000000D+00  0.0000000000000D+00
247  2.4600000000000D+00  0.0000000000000D+00  0.0000000000000D+00
248  2.4700000000000D+00  0.0000000000000D+00  0.0000000000000D+00
249  2.4800000000000D+00  0.0000000000000D+00  0.0000000000000D+00
250  2.4900000000000D+00  0.0000000000000D+00  0.0000000000000D+00
251  2.5000000000000D+00  0.0000000000000D+00  0.0000000000000D+00
252  2.5100000000000D+00  0.0000000000000D+00  0.0000000000000D+00
253  2.5200000000000D+00  0.0000000000000D+00  0.0000000000000D+00
254  2.5300000000000D+00  0.0000000000000D+00  0.0000000000000D+00
255  2.5400000000000D+00  0.0000000000000D+00  0.0000000000000D+00
256  2.5500000000000D+00  0.0000000000000D+00  0.0000000000000D+00
257  2.5600000000000D+00  0.0000000000000D+00  0.0000000000000D+00
258  2.5700000000000D+00  0.0000000000000D+00  0.0000000000000D+00
259  2.5800000000000D+00  0.0000000000000D+00  0.0000000000000D+00
260  2.5900000000000D+00  0.0000000000000D+00  0.0000000000000D+00
261  2.6000000000000D+00  0.0000000000000D+00  0.0000000000000D+00
262  2.6100000000000D+00  0.0000000000000D+00  0.0000000000000D+00
263  2.6200000000000D+00  0.0000000000000D+00  0.0000000000000D+00
264  2.6300000000000D+00  0.0000000000000D+00  0.0000000000000D+00
265  2.6400000000000D+00  0.0000000000000D+00  0.0000000000000D+00
266  2.6500000000000D+00  0.0000000000000D+00  0.0000000000000D+00
267  2.6600000000000D+00  0.0000000000000D+00  0.0000000000000D+00
268  2.6700000000000D+00  0.0000000000000D+00  0.0000000000000D+00
269  2.6800000000000D+00  0.0000000000000D+00  0.0000000000000D+00
270  2.6900000000000D+00  0.0000000000000D+00  0.0000000000000D+00
271  2.7000000000000D+00  0.0000000000000D+00  0.0000000000000D+00
272  2.7100000000000D+00  0.0000000000000D+00  0.0000000000000D+00
273  2.7200000000000D+00  0.0000000000000D+00  0.0000000000000D+00
274  2.7300000000000D+00  0.0000000000000D+00  0.0000000000000D+00
275  2.7400000000000D+00  0.0000000000000D+00  0.0000000000000D+00
276  2.7500000000000D+00  0.0000000000000D+00  0.0000000000000D+00
277  2.7600000000000D+00  0.0000000000000D+00  0.0000000000000D+00
278  2.7700000000000D+00  0.0000000000000D+00  0.0000000000000D+00
279  2.7800000000000D+00  0.0000000000000D+00  0.0000000000000D+00
280  2.7900000000000D+00  0.0000000000000D+00  0.0000000000000D+00
281  2.8000000000000D+00  0.0000000000000D+00  0.0000000000000D+00
282  2.8100000000000D+00  0.0000000000000D+00  0.0000000000000D+00
283  2.8200000000000D+00  0.0000000000000D+00  0.0000000000000D+00
284  2.8300000000000D+00  0.0000000000000D+00  0.0000000000000D+00
285  2.8400000000000D+00  0.0000000000000D+00  0.0000000000000D+00
286  2.8500000000000D+00  0.0000000000000D+00  0.0000000000000D+00
287  2.8600000000000D+00  0.0000000000000D+00  0.0000000000000D+00
288  2.8700000000000D+00  0.0000000000000D+00  0.0000000000000D+00
289  2.8800000000000D+00  0.0000000000000D+00  0.0000000000000D+00
290  2.8900000000000D+00  0.0000000000000D+00  0.0000000000000D+00
291  2.9000000000000D+00  0.0000000000000D+00  0.0000000000000D+00
292  2.9100000000000D+00  0.0000000000000D+00  0.0000000000000D+00
293  2.9200000000000D+00  0.0000000000000D+00  0.0000000000000D+00
294  2.9300000000000D+00  0.0000000000000D+00  0.0000000000000D+00
295  2.9400000000000D+00  0.0000000000000D+00  0.0000000000000D+00
296  2.9500000000000D+00  0.0000000000000D+00  0.0000000000000D+00
297  2.9600000000000D+00  0.0000000000000D+00  0.0000000000000D+00
298  2.9700000000000D+00  0.0000000000000D+00  0.0000000000000D+00
299  2.9800000000000D+00  0.0000000000000D+00  0.0000000000000D+00
300  2.9900000000000D+00  0.0000000000000D+00  0.0000000000000D+00
301  3.0000000000000D+00  0.0000000000000D+00  0.0000000000000D+00
302  3.0100000000000D+00  0.0000000000000D+00  0.0000000000000D+00
303  3.0200000000000D+00  0.0000000000000D+00  0.0000000000000D+00
304  3.0300000000000D+00  0.0000000000000D+00  0.0000000000000D+00
305  3.0400000000000D+00  0.0000000000000D+00  0.0000000000000D+00
306  3.0500000000000D+00  0.0000000000000D+00  0.0000000000000D+00
307  3.0600000000000D+00  0.0000000000000D+00  0.0000000000000D+00
308  3.0700000000000D+00  0.0000000000000D+00  0.0000000000000D+00
309  3.0800000000000D+00  0.0000000000000D+00  0.0000000000000D+00
310  3.0900000000000D+00  0.0000000000000D+00  0.0000000000000D+00
311  3.1000000000000D+00  0.0000000000000D+00  0.0000000000000D+00
312  3.1100000000000D+00  0.0000000000000D+00  0.0000000000000D+00
313  3.1200000000000D+00  0.0000000000000D+00  0.0000000000000D+00
314  3.1300000000000D+00  0.0000000000000D+00  0.0000000000000D+00
315  3.1400000000000D+00  0.0000000000000D+00  0.0000000000000D+00
316  3.1500000000000D+00  0.0000000000000D+00  0.0000000000000D+00
317  3.1600000000000D+00  0.0000000000000D+00  0.0000000000000D+00
318  3.1700000000000D+00  0.0000000000000D+00  0.0000000000000D+00
319  3.1800000000000D+00  0.0000000000000D+00  0.0000000000000D+00
320  3.1900000000000D+00  0.0000000000000D+00  0.0000000000000D+00
321  3.2000000000000D+00  0.0000000000000D+00  0.0000000000000D+00
322  3.2100000000000D+00  0.0000000000000D+00  0.0000000000000D+00
323  3.2200000000000D+00  0.0000000000000D+00  0.0000000000000D+00
324  3.2300000000000D+00  0.0000000000000D+00  0.0000000000000D+00
325  3.2400000000000D+00  0.0000000000000D+00  0.0000000000000D+00
326  3.2500000000000D+00  0.0000000000000D+00  0.0000000000000D+00
327  3.2600000000000D+00  0.0000000000000D+00  0.0000000000000D+00
328  3.2700000000000D+00  0.0000000000000D+00  0.0000000000000D+00
329  3.2800000000000D+00  0.0000000000000D+00  0.0000000000000D+00
330  3.2900000000000D+00  0.0000000000000D+00  0.0000000000000D+00
331  3.3000000000000D+00  0.0000000000000D+00  0.0000000000000D+00
332  3.3100000000000D+00  0.0000000000000D+00  0.0000000000000D+00
333  3.3200000000000D+00  0.0000000000000D+00  0.0000000000000D+00
334  3.3300000000000D+00  0.0000000000000D+00  0.0000000000000D+00
335  3.3400000000000D+00  0.0000000000000D+00  0.0000000000000D+00
336  3.3500000000000D+00  0.0000000000000D+00  0.0000000000000D+00
337  3.3600000000000D+00  0.0000000000000D+00  0.0000000000000D+00
338  3.3700000000000D+00  0.0000000000000D+00  0.0000000000000D+00
339  3.3800000000000D+00  0.0000000000000D+00  0.0000000000000D+00
340  3.3900000000000D+00  0.0000000000000D+00  0.0000000000000D+00
341  3.4000000000000D+00  0.0000000000000D+00  0.0000000000000D+00
342  3.4100000000000D+00  0.0000000000000D+00  0.0000000000000D+00
343  3.4200000000000D+00  0.0000000000000D+00  0.0000000000000D+00
344  3.4300000000000D+00  0.0000000000000D+00  0.0000000000000D+00
345  3.4400000000000D+00  0.0000000000000D+00  0.0000000000000D+00
346  3.4500000000000D+00  0.0000000000000D+00  0.0000000000000D+00
347  3.4600000000000D+00  0.0000000000000D+00  0.0000000000000D+00
348  3.4700000000000D+00  0.0000000000000D+00  0.0000000000000D+00
349  3.4800000000000D+00  0.0000000000000D+00  0.0000000000000D+00
350  3.4900000000000D+00  0.0000000000000D+00  0.0000000000000D+00
351  3.5000000000000D+00  0.0000000000000D+00  0.0000000000000D+00
352  3.5100000000000D+00  0.0000000000000D+00  0.0000000000000D+00
353  3.5200000000000D+00  0.0000000000000D+00  0.0000000000000D+00
354  3.5300000000000D+00  0.0000000000000D+00  0.0000000000000D+00
355  3.5400000000000D+00  0.0000000000000D+00  0.0000000000000D+00
356  3.5500000000000D+00  0.0000000000000D+00  0.0000000000000D+00
357  3.5600000000000D+00  0.0000000000000D+00  0.0000000000000D+00
358  3.5700000000000D+00  0.0000000000000D+00  0.0000000000000D+00
359  3.5800000000000D+00  0.0000000000000D+00  0.0000000000000D+00
360  3.5900000000000D+00  0.0000000000000D+00  0.0000000000000D+00
361  3.6000000000000D+00  0.0000000000000D+00  0.0000000000000D+00
362  3.6100000000000D+00  0.0000000000000D+00  0.0000000000000D+00
363  3.6200000000000D+00  0.0000000000000D+00  0.0000000000000D+00
364  3.6300000000000D+00  0.0000000000000D+00  0.0000000000000D+00
365  3.6400000000000D+00  0.0000000000000D+00  0.0000000000000D+00
366  3.6500000000000D+00  0.0000000000000D+00  0.0000000000000D+00
367  3.6600000000000D+00  0.0000000000000D+00  0.0000000000000D+00
368  3.6700000000000D+00  0.0000000000000D+00  0.0000000000000D+00
369  3.6800000000000D+00  0.0000000000000D+00  0.0000000000000D+00
370  3.6900000000000D+00  0.0000000000000D+00  0.0000000000000D+00
371  3.7000000000000D+00  0.0000000000000D+00  0.0000000000000D+00
372  3.7100000000000D+00  0.0000000000000D+00  0.0000000000000D+00
373  3.7200000000000D+00  0.0000000000000D+00  0.0000000000000D+00
374  3.7300000000000D+00  0.0000000000000D+00  0.0000000000000D+00
375  3.7400000000000D+00  0.0000000000000D+00  0.0000000000000D+00
376  3.7500000000000D+00  0.0000000000000D+00  0.0000000000000D+00
377  3.7600000000000D+00  0.0000000000000D+00  0.0000000000000D+00
378  3.7700000000000D+00  0.0000000000000D+00  0.0000000000000D+00
379  3.7800000000000D+00  0.0000000000000D+00  0.0000000000000D+00
380  3.7900000000000D+00  0.0000000000000D+00  0.0000000000000D+00
381  3.8000000000000D+00  0.0000000000000D+00  0.0000000000000D+00
382  3.8100000000000D+00  0.0000000000000D+00  0.0000000000000D+00
383  3.8200000000000D+00  0.0000000000000D+00  0.0000000000000D+00
384  3.8300000000000D+00  0.0000000000000D+00  0.0000000000000D+00
385  3.8400000000000D+00  0.0000000000000D+00  0.0000000000000D+00
386  3.8500000000000D+00  0.0000000000000D+00  0.0000000000000D+00
387  3.8600000000000D+00  0.0000000000000D+00  0.0000000000000D+00
388  3.8700000000000D+00  0.0000000000000D+00  0.0000000000000D+00
389  3.8800000000000D+00  0.0000000000000D+00  0.0000000000000D+00
390  3.8900000000000D+00  0.0000000000000D+00  0.0000000000000D+00
391  3.9000000000000D+00  0.0000000000000D+00  0.0000000000000D+00
392  3.9100000000000D+00  0.0000000000000D+00  0.0000000000000D+00
393  3.9200000000000D+00  0.0000000000000D+00  0.0000000000000D+00
394  3.9300000000000D+00  0.0000000000000D+00  0.0000000000000D+00
395  3.9400000000000D+00  0.0000000000000D+00  0.0000000000000D+00
396  3.9500000000000D+00  0.0000000000000D+00  0.0000000000000D+00
397  3.9600000000000D+00  0.0000000000000D+00  0.0000000000000D+00
398  3.9700000000000D+00  0.0000000000000D+00  0.0000000000000D+00
399  3.9800000000000D+00  0.0000000000000D+00  0.0000000000000D+00
400  3.9900000000000D+00  0.0000000000000D+00  0.0000000000000D+00
401  4.0000000000000D+00  0.0000000000000D+00  0.0000000000000D+00
402  4.0100000000000D+00  0.0000000000000D+00  0.0000000000000D+00
403  4.0200000000000D+00  0.0000000000000D+00  0.0000000000000D+00
404  4.0300000000000D+00  0.0000000000000D+00  0.0000000000000D+00
405  4.0400000000000D+00  0.0000000000000D+00  0.0000000000000D+00
406  4.0500000000000D+00  0.0000000000000D+00  0.0000000000000D+00
407  4.0600000000000D+00  0.0000000000000D+00  0.0000000000000D+00
408  4.0700000000000D+00  0.0000000000000D+00  0.0000000000000D+00
409  4.0800000000000D+00  0.0000000000000D+00  0.0000000000000D+00
410  4.0900000000000D+00  0.0000000000000D+00  0.0000000000000D+00
411  4.1000000000000D+00  0.0000000000000D+00  0.0000000000000D+00
412  4.1100000000000D+00  0.0000000000000D+00  0.0000000000000D+00
413  4.1200000000000D+00  0.0000000000000D+00  0.0000000000000D+00
414  4.1300000000000D+00  0.0000000000000D+00  0.0000000000000D+00
415  4.1400000000000D+00  0.0000000000000D+00  0.0000000000000D+00
416  4.1500000000000D+00  0.0000000000000D+00  0.0000000000000D+00
417  4.1600000000000D+00  0.0000000000000D+00  0.0000000000000D+00
418  4.1700000000000D+00  0.0000000000000D+00  0.0000000000000D+00
419  4.1800000000000D+00  0.0000000000000D+00  0.0000000000000D+00
420  4.1900000000000D+00  0.0000000000000D+00  0.0000000000000D+00
421  4.2000000000000D+00  0.0000000000000D+00  0.0000000000000D+00
422  4.2100000000000D+00  0.0000000000000D+00  0.0000000000000D+00
423  4.2200000000000D+00  0.0000000000000D+00  0.0000000000000D+00
424  4.2300000000000D+00  0.0000000000000D+00  0.0000000000000D+00
425  4.2400000000000D+00  0.0000000000000D+00  0.0000000000000D+00
426  4.2500000000000D+00  0.0000000000000D+00  0.0000000000000D+00
427  4.2600000000000D+00  0.0000000000000D+00  0.0000000000000D+00
428  4.2700000000000D+00  0.0000000000000D+00  0.0000000000000D+00
429  4.2800000000000D+00  0.0000000000000D+00  0.0000000000000D+00
430  4.2900000000000D+00  0.0000000000000D+00  0.0000000000000D+00
431  4.3000000000000D+00  0.0000000000000D+00  0.0000000000000D+00
432  4.3100000000000D+00  0.0000000000000D+00  0.0000000000000D+00
433  4.3200000000000D+00  0.0000000000000D+00  0.0000000000000D+00
434  4.3300000000000D+00  0.0000000000000D+00  0.0000000000000D+00
435  4.3400000000000D+00  0.0000000000000D+00  0.0000000000000D+00
436  4.3500000000000D+00  0.0000000000000D+00  0.0000000000000D+00
437  4.3600000000000D+00  0.0000000000000D+00  0.0000000000000D+00
438  4.3700000000000D+00  0.0000000000000D+00  0.0000000000000D+00
439  4.3800000000000D+00  0.0000000000000D+00  0.0000000000000D+00
440  4.3900000000000D+00  0.0000000000000D+00  0.0000000000000D+00
441  4.4000000000000D+00  0.0000000000000D+00  0.0000000000000D+00
442  4.4100000000000D+00  0.0000000000000D+00  0.0000000000000D+00
443  4.4200000000000D+00  0.0000000000000D+00  0.0000000000000D+00