Pt    ONCVPSP-3.3.0  r_core=   1.45722   1.45722   1.45722   1.91724
78.0000     18.0000      180112    zatom,zion,pspd
8 -116133   3     4   500     0    pspcod,pspxc,lmax,lloc,mmax,r2well
4.99000000  5.00000000  0.00000000    rchrg fchrg qchrg
2     2     2     2     0    nproj
1     1           extension_switch
0                         1.8149684306290D+01  1.7472480854947D+00
1  0.0000000000000D+00 -3.6554703708447D-10  1.9057549982548D-10
2  1.0000000000000D-02  8.1802557500881D-02 -1.9311579378406D-02
3  2.0000000000000D-02  1.6340373035666D-01 -3.8512239954341D-02
4  3.0000000000000D-02  2.4460278077196D-01 -5.7491317772227D-02
5  4.0000000000000D-02  3.2520025741553D-01 -7.6138643469386D-02
6  5.0000000000000D-02  4.0499862340564D-01 -9.4344765348742D-02
7  6.0000000000000D-02  4.8380286917866D-01 -1.1200115744885D-01
8  7.0000000000000D-02  5.6142110710507D-01 -1.2900041452771D-01
9  8.0000000000000D-02  6.3766514508247D-01 -1.4523643606735D-01
10  9.0000000000000D-02  7.1235103671807D-01 -1.6060460158813D-01
11  1.0000000000000D-01  7.8529960610621D-01 -1.7500193972735D-01
12  1.1000000000000D-01  8.5633694560324D-01 -1.8832729367903D-01
13  1.2000000000000D-01  9.2529488539516D-01 -2.0048148570417D-01
14  1.3000000000000D-01  9.9201143403828D-01 -2.1136748349786D-01
15  1.4000000000000D-01  1.0563311895214D+00 -2.2089057123512D-01
16  1.5000000000000D-01  1.1181057207476D+00 -2.2895852810908D-01
17  1.6000000000000D-01  1.1771939196551D+00 -2.3548181711714D-01
18  1.7000000000000D-01  1.2334623244923D+00 -2.4037378674308D-01
19  1.8000000000000D-01  1.2867854150194D+00 -2.4355088802152D-01
20  1.9000000000000D-01  1.3370458806344D+00 -2.4493290925785D-01
21  2.0000000000000D-01  1.3841348626028D+00 -2.4444323040878D-01
22  2.1000000000000D-01  1.4279521717168D+00 -2.4200909881058D-01
23  2.2000000000000D-01  1.4684064828063D+00 -2.3756192757267D-01
24  2.3000000000000D-01  1.5054155075869D+00 -2.3103761753932D-01
25  2.4000000000000D-01  1.5389061473426D+00 -2.2237690326343D-01
26  2.5000000000000D-01  1.5688146269175D+00 -2.1152572294009D-01
27  2.6000000000000D-01  1.5950866114233D+00 -1.9843561171745D-01
28  2.7000000000000D-01  1.6176773069680D+00 -1.8306411724653D-01
29  2.8000000000000D-01  1.6365515465702D+00 -1.6537523575470D-01
30  2.9000000000000D-01  1.6516838622527D+00 -1.4533986633836D-01
31  3.0000000000000D-01  1.6630585441113D+00 -1.2293628057572D-01
32  3.1000000000000D-01  1.6706696869292D+00 -9.8150603969192D-02
33  3.2000000000000D-01  1.6745212246624D+00 -7.0977305146878D-02
34  3.3000000000000D-01  1.6746269528683D+00 -4.1419688192484D-02
35  3.4000000000000D-01  1.6710105388741D+00 -9.4903829416086D-03
36  3.5000000000000D-01  1.6637055192149D+00  2.4788172411529D-02
37  3.6000000000000D-01  1.6527552835949D+00  6.1383262501309D-02
38  3.7000000000000D-01  1.6382130443622D+00  1.0025144627036D-01
39  3.8000000000000D-01  1.6201417902305D+00  1.4133813557205D-01
40  3.9000000000000D-01  1.5986142227478D+00  1.8457720798928D-01
41  4.0000000000000D-01  1.5737126737921D+00  2.2989066114904D-01
42  4.1000000000000D-01  1.5455290021916D+00  2.7718831591608D-01
43  4.2000000000000D-01  1.5141644674057D+00  3.2636757586524D-01
44  4.3000000000000D-01  1.4797295780871D+00  3.7731325035459D-01
45  4.4000000000000D-01  1.4423439132605D+00  4.2989744834954D-01
46  4.5000000000000D-01  1.4021359138197D+00  4.8397954987611D-01
47  4.6000000000000D-01  1.3592426420486D+00  5.3940626161002D-01
48  4.7000000000000D-01  1.3138095069307D+00  5.9601176263638D-01
49  4.8000000000000D-01  1.2659899531141D+00  6.5361794584322D-01
50  4.9000000000000D-01  1.2159451115547D+00  7.1203475974316D-01
51  5.0000000000000D-01  1.1638434100636D+00  7.7106065475463D-01
52  5.1000000000000D-01  1.1098601422406D+00  8.3048313712325D-01
53  5.2000000000000D-01  1.0541769935748D+00  8.9007943272743D-01
54  5.3000000000000D-01  9.9698152384330D-01  9.4961726200286D-01
55  5.4000000000000D-01  9.3846660532647D-01  1.0088557261422D+00
56  5.5000000000000D-01  8.7882981679074D-01  1.0675463035895D+00
57  5.6000000000000D-01  8.1827279365176D-01  1.1254339546673D+00
58  5.7000000000000D-01  7.5700053522676D-01  1.1822583309563D+00
59  5.8000000000000D-01  6.9522067050397D-01  1.2377550848035D+00
60  5.9000000000000D-01  6.3314268439416D-01  1.2916572730918D+00
61  6.0000000000000D-01  5.7097710697975D-01  1.3436968481503D+00
62  6.1000000000000D-01  5.0893466883153D-01  1.3936062274651D+00
63  6.2000000000000D-01  4.4722542601548D-01  1.4411199326574D+00
64  6.3000000000000D-01  3.8605785895717D-01  1.4859762870504D+00
65  6.4000000000000D-01  3.2563794985432D-01  1.5279191600759D+00
66  6.5000000000000D-01  2.6616824383291D-01  1.5666997457645D+00
67  6.6000000000000D-01  2.0784689950904D-01  1.6020783616660D+00
68  6.7000000000000D-01  1.5086673504807D-01  1.6338262537473D+00
69  6.8000000000000D-01  9.5414276195966D-02  1.6617273921383D+00
70  6.9000000000000D-01  4.1668813085071D-02  1.6855802420579D+00
71  7.0000000000000D-01 -1.0198527114618D-02  1.7051994938489D+00
72  7.1000000000000D-01 -6.0025684425620D-02  1.7204177358133D+00
73  7.2000000000000D-01 -1.0766053976968D-01  1.7310870534531D+00
74  7.3000000000000D-01 -1.5296175069060D-01  1.7370805388120D+00
75  7.4000000000000D-01 -1.9579954165578D-01  1.7382936938767D+00
76  7.5000000000000D-01 -2.3605644160425D-01  1.7346457124331D+00
77  7.6000000000000D-01 -2.7362796159577D-01  1.7260806253922D+00
78  7.7000000000000D-01 -3.0842320568975D-01  1.7125682953931D+00
79  7.8000000000000D-01 -3.4036540853722D-01  1.6941052474600D+00
80  7.9000000000000D-01 -3.6939239360815D-01  1.6707153236257D+00
81  8.0000000000000D-01 -3.9545694649415D-01  1.6424501507292D+00
82  8.1000000000000D-01 -4.1852709832125D-01  1.6093894120451D+00
83  8.2000000000000D-01 -4.3858631497301D-01  1.5716409149870D+00
84  8.3000000000000D-01 -4.5563358855608D-01  1.5293404488375D+00
85  8.4000000000000D-01 -4.6968342833096D-01  1.4826514282792D+00
86  8.5000000000000D-01 -4.8076574917296D-01  1.4317643204087D+00
87  8.6000000000000D-01 -4.8892565651313D-01  1.3768958549010D+00
88  8.7000000000000D-01 -4.9422312762787D-01  1.3182880190219D+00
89  8.8000000000000D-01 -4.9673259008723D-01  1.2562068412477D+00
90  8.9000000000000D-01 -4.9654239912754D-01  1.1909409693205D+00
91  9.0000000000000D-01 -4.9375421666989D-01  1.1228000506107D+00
92  9.1000000000000D-01 -4.8848229565346D-01  1.0521129246678D+00
93  9.2000000000000D-01 -4.8085267427840D-01  9.7922563977519D-01
94  9.3000000000000D-01 -4.7100228564560D-01  9.0449930716929D-01
95  9.4000000000000D-01 -4.5907798912952D-01  8.2830780831467D-01
96  9.5000000000000D-01 -4.4523553061271D-01  7.5103537221311D-01
97  9.6000000000000D-01 -4.2963843943706D-01  6.7307404115331D-01
98  9.7000000000000D-01 -4.1245687057503D-01  5.9482104455122D-01
99  9.8000000000000D-01 -3.9386640109147D-01  5.1667610157930D-01
100  9.9000000000000D-01 -3.7404679042074D-01  4.3903867408523D-01
101  1.0000000000000D+00 -3.5318071436595D-01  3.6230519191868D-01
102  1.0100000000000D+00 -3.3145248296738D-01  2.8686627310132D-01
103  1.0200000000000D+00 -3.0904675253067D-01  2.1310396136684D-01
104  1.0300000000000D+00 -2.8614724212511D-01  1.4138900341925D-01
105  1.0400000000000D+00 -2.6293546475194D-01  7.2078187789177D-02
106  1.0500000000000D+00 -2.3958948315976D-01  5.5117664634729D-03
107  1.0600000000000D+00 -2.1628269994445D-01 -5.7989020499278D-02
108  1.0700000000000D+00 -1.9318269107358D-01 -1.1812429846382D-01
109  1.0800000000000D+00 -1.7045009140898D-01 -1.7461777235653D-01
110  1.0900000000000D+00 -1.4823754005777D-01 -2.2721878581299D-01
111  1.1000000000000D+00 -1.2668869261676D-01 -2.7570421155170D-01
112  1.1100000000000D+00 -1.0593730646043D-01 -3.1988016137347D-01
113  1.1200000000000D+00 -8.6106404166952D-02 -3.5958350666220D-01
114  1.1300000000000D+00 -6.7307519138979D-02 -3.9468320267352D-01
115  1.1400000000000D+00 -4.9640026275352D-02 -4.2508141265862D-01
116  1.1500000000000D+00 -3.3190559527136D-02 -4.5071443021379D-01
117  1.1600000000000D+00 -1.8032516644137D-02 -4.7155340170487D-01
118  1.1700000000000D+00 -4.2256502985845D-03 -4.8760485312608D-01
119  1.1800000000000D+00  8.1842564725250D-03 -4.9891102853732D-01
120  1.1900000000000D+00  1.9165633828588D-02 -5.0555005003802D-01
121  1.2000000000000D+00  2.8701292449473D-02 -5.0763591239888D-01
122  1.2100000000000D+00  3.6788520592764D-02 -5.0531832810602D-01
123  1.2200000000000D+00  4.3439117538972D-02 -4.9878244008000D-01
124  1.2300000000000D+00  4.8679371934477D-02 -4.8824842333133D-01
125  1.2400000000000D+00  5.2549994165556D-02 -4.7397099810569D-01
126  1.2500000000000D+00  5.5106012630777D-02 -4.5623887863995D-01
127  1.2600000000000D+00  5.6416645013121D-02 -4.3537418423391D-01
128  1.2700000000000D+00  5.6565166077602D-02 -4.1173186839496D-01
129  1.2800000000000D+00  5.5648740702695D-02 -3.8569907042833D-01
130  1.2900000000000D+00  5.3778307020147D-02 -3.5769463014866D-01
131  1.3000000000000D+00  5.1078126287832D-02 -3.2816766103068D-01
132  1.3100000000000D+00  4.7687408615551D-02 -2.9760201663810D-01
133  1.3200000000000D+00  4.3755888477184D-02 -2.6650357371001D-01
134  1.3300000000000D+00  3.9436628474000D-02 -2.3537976805790D-01
135  1.3400000000000D+00  3.4877824378213D-02 -2.0471704543299D-01
136  1.3500000000000D+00  3.0218513908170D-02 -1.7496951736676D-01
137  1.3600000000000D+00  2.5588707243342D-02 -1.4656036194153D-01
138  1.3700000000000D+00  2.1107391489335D-02 -1.1987701097626D-01
139  1.3800000000000D+00  1.6881369448971D-02 -9.5268695602456D-02
140  1.3900000000000D+00  1.3004039684223D-02 -7.3043751250635D-02
141  1.4000000000000D+00  9.5543731698158D-03 -5.3467410576257D-02
142  1.4100000000000D+00  6.5973665878027D-03 -3.6767069710372D-02
143  1.4200000000000D+00  4.1778204194639D-03 -2.3101432489200D-02
144  1.4300000000000D+00  2.3131120031530D-03 -1.2529443174250D-02
145  1.4400000000000D+00  1.0618052437098D-03 -5.3494243386460D-03
146  1.4500000000000D+00  4.3700625717198D-04 -1.6537378956812D-03
147  1.4600000000000D+00  1.7212491585933D-04 -2.8815833039237D-04
148  1.4700000000000D+00  3.4766802456573D-05  6.4032774773396D-06
149  1.4800000000000D+00 -1.1302621226092D-05 -1.5343717147304D-05
150  1.4900000000000D+00 -3.5227111326353D-06 -8.7890516792162D-06
151  1.5000000000000D+00  3.1581871494935D-06  1.1166535268850D-06
152  1.5100000000000D+00  1.4736542055481D-07  9.8007547950896D-08
153  1.5200000000000D+00 -6.4366114037371D-07  1.4613417532003D-06
154  1.5300000000000D+00  0.0000000000000D+00  0.0000000000000D+00
155  1.5400000000000D+00  0.0000000000000D+00  0.0000000000000D+00
156  1.5500000000000D+00  0.0000000000000D+00  0.0000000000000D+00
157  1.5600000000000D+00  0.0000000000000D+00  0.0000000000000D+00
158  1.5700000000000D+00  0.0000000000000D+00  0.0000000000000D+00
159  1.5800000000000D+00  0.0000000000000D+00  0.0000000000000D+00
160  1.5900000000000D+00  0.0000000000000D+00  0.0000000000000D+00
161  1.6000000000000D+00  0.0000000000000D+00  0.0000000000000D+00
162  1.6100000000000D+00  0.0000000000000D+00  0.0000000000000D+00
163  1.6200000000000D+00  0.0000000000000D+00  0.0000000000000D+00
164  1.6300000000000D+00  0.0000000000000D+00  0.0000000000000D+00
165  1.6400000000000D+00  0.0000000000000D+00  0.0000000000000D+00
166  1.6500000000000D+00  0.0000000000000D+00  0.0000000000000D+00
167  1.6600000000000D+00  0.0000000000000D+00  0.0000000000000D+00
168  1.6700000000000D+00  0.0000000000000D+00  0.0000000000000D+00
169  1.6800000000000D+00  0.0000000000000D+00  0.0000000000000D+00
170  1.6900000000000D+00  0.0000000000000D+00  0.0000000000000D+00
171  1.7000000000000D+00  0.0000000000000D+00  0.0000000000000D+00
172  1.7100000000000D+00  0.0000000000000D+00  0.0000000000000D+00
173  1.7200000000000D+00  0.0000000000000D+00  0.0000000000000D+00
174  1.7300000000000D+00  0.0000000000000D+00  0.0000000000000D+00
175  1.7400000000000D+00  0.0000000000000D+00  0.0000000000000D+00
176  1.7500000000000D+00  0.0000000000000D+00  0.0000000000000D+00
177  1.7600000000000D+00  0.0000000000000D+00  0.0000000000000D+00
178  1.7700000000000D+00  0.0000000000000D+00  0.0000000000000D+00
179  1.7800000000000D+00  0.0000000000000D+00  0.0000000000000D+00
180  1.7900000000000D+00  0.0000000000000D+00  0.0000000000000D+00
181  1.8000000000000D+00  0.0000000000000D+00  0.0000000000000D+00
182  1.8100000000000D+00  0.0000000000000D+00  0.0000000000000D+00
183  1.8200000000000D+00  0.0000000000000D+00  0.0000000000000D+00
184  1.8300000000000D+00  0.0000000000000D+00  0.0000000000000D+00
185  1.8400000000000D+00  0.0000000000000D+00  0.0000000000000D+00
186  1.8500000000000D+00  0.0000000000000D+00  0.0000000000000D+00
187  1.8600000000000D+00  0.0000000000000D+00  0.0000000000000D+00
188  1.8700000000000D+00  0.0000000000000D+00  0.0000000000000D+00
189  1.8800000000000D+00  0.0000000000000D+00  0.0000000000000D+00
190  1.8900000000000D+00  0.0000000000000D+00  0.0000000000000D+00
191  1.9000000000000D+00  0.0000000000000D+00  0.0000000000000D+00
192  1.9100000000000D+00  0.0000000000000D+00  0.0000000000000D+00
193  1.9200000000000D+00  0.0000000000000D+00  0.0000000000000D+00
194  1.9300000000000D+00  0.0000000000000D+00  0.0000000000000D+00
195  1.9400000000000D+00  0.0000000000000D+00  0.0000000000000D+00
196  1.9500000000000D+00  0.0000000000000D+00  0.0000000000000D+00
197  1.9600000000000D+00  0.0000000000000D+00  0.0000000000000D+00
198  1.9700000000000D+00  0.0000000000000D+00  0.0000000000000D+00
199  1.9800000000000D+00  0.0000000000000D+00  0.0000000000000D+00
200  1.9900000000000D+00  0.0000000000000D+00  0.0000000000000D+00
201  2.0000000000000D+00  0.0000000000000D+00  0.0000000000000D+00
202  2.0100000000000D+00  0.0000000000000D+00  0.0000000000000D+00
203  2.0200000000000D+00  0.0000000000000D+00  0.0000000000000D+00
204  2.0300000000000D+00  0.0000000000000D+00  0.0000000000000D+00
205  2.0400000000000D+00  0.0000000000000D+00  0.0000000000000D+00
206  2.0500000000000D+00  0.0000000000000D+00  0.0000000000000D+00
207  2.0600000000000D+00  0.0000000000000D+00  0.0000000000000D+00
208  2.0700000000000D+00  0.0000000000000D+00  0.0000000000000D+00
209  2.0800000000000D+00  0.0000000000000D+00  0.0000000000000D+00
210  2.0900000000000D+00  0.0000000000000D+00  0.0000000000000D+00
211  2.1000000000000D+00  0.0000000000000D+00  0.0000000000000D+00
212  2.1100000000000D+00  0.0000000000000D+00  0.0000000000000D+00
213  2.1200000000000D+00  0.0000000000000D+00  0.0000000000000D+00
214  2.1300000000000D+00  0.0000000000000D+00  0.0000000000000D+00
215  2.1400000000000D+00  0.0000000000000D+00  0.0000000000000D+00
216  2.1500000000000D+00  0.0000000000000D+00  0.0000000000000D+00
217  2.1600000000000D+00  0.0000000000000D+00  0.0000000000000D+00
218  2.1700000000000D+00  0.0000000000000D+00  0.0000000000000D+00
219  2.1800000000000D+00  0.0000000000000D+00  0.0000000000000D+00
220  2.1900000000000D+00  0.0000000000000D+00  0.0000000000000D+00
221  2.2000000000000D+00  0.0000000000000D+00  0.0000000000000D+00
222  2.2100000000000D+00  0.0000000000000D+00  0.0000000000000D+00
223  2.2200000000000D+00  0.0000000000000D+00  0.0000000000000D+00
224  2.2300000000000D+00  0.0000000000000D+00  0.0000000000000D+00
225  2.2400000000000D+00  0.0000000000000D+00  0.0000000000000D+00
226  2.2500000000000D+00  0.0000000000000D+00  0.0000000000000D+00
227  2.2600000000000D+00  0.0000000000000D+00  0.0000000000000D+00
228  2.2700000000000D+00  0.0000000000000D+00  0.0000000000000D+00
229  2.2800000000000D+00  0.0000000000000D+00  0.0000000000000D+00
230  2.2900000000000D+00  0.0000000000000D+00  0.0000000000000D+00
231  2.3000000000000D+00  0.0000000000000D+00  0.0000000000000D+00
232  2.3100000000000D+00  0.0000000000000D+00  0.0000000000000D+00
233  2.3200000000000D+00  0.0000000000000D+00  0.0000000000000D+00
234  2.3300000000000D+00  0.0000000000000D+00  0.0000000000000D+00
235  2.3400000000000D+00  0.0000000000000D+00  0.0000000000000D+00
236  2.3500000000000D+00  0.0000000000000D+00  0.0000000000000D+00
237  2.3600000000000D+00  0.0000000000000D+00  0.0000000000000D+00
238  2.3700000000000D+00  0.0000000000000D+00  0.0000000000000D+00
239  2.3800000000000D+00  0.0000000000000D+00  0.0000000000000D+00
240  2.3900000000000D+00  0.0000000000000D+00  0.0000000000000D+00
241  2.4000000000000D+00  0.0000000000000D+00  0.0000000000000D+00
242  2.4100000000000D+00  0.0000000000000D+00  0.0000000000000D+00
243  2.4200000000000D+00  0.0000000000000D+00  0.0000000000000D+00
244  2.4300000000000D+00  0.0000000000000D+00  0.0000000000000D+00
245  2.4400000000000D+00  0.0000000000000D+00  0.0000000000000D+00
246  2.4500000000000D+00  0.0000000000000D+00  0.0000000000000D+00
247  2.4600000000000D+00  0.0000000000000D+00  0.0000000000000D+00
248  2.4700000000000D+00  0.0000000000000D+00  0.0000000000000D+00
249  2.4800000000000D+00  0.0000000000000D+00  0.0000000000000D+00
250  2.4900000000000D+00  0.0000000000000D+00  0.0000000000000D+00
251  2.5000000000000D+00  0.0000000000000D+00  0.0000000000000D+00
252  2.5100000000000D+00  0.0000000000000D+00  0.0000000000000D+00
253  2.5200000000000D+00  0.0000000000000D+00  0.0000000000000D+00
254  2.5300000000000D+00  0.0000000000000D+00  0.0000000000000D+00
255  2.5400000000000D+00  0.0000000000000D+00  0.0000000000000D+00
256  2.5500000000000D+00  0.0000000000000D+00  0.0000000000000D+00
257  2.5600000000000D+00  0.0000000000000D+00  0.0000000000000D+00
258  2.5700000000000D+00  0.0000000000000D+00  0.0000000000000D+00
259  2.5800000000000D+00  0.0000000000000D+00  0.0000000000000D+00
260  2.5900000000000D+00  0.0000000000000D+00  0.0000000000000D+00
261  2.6000000000000D+00  0.0000000000000D+00  0.0000000000000D+00
262  2.6100000000000D+00  0.0000000000000D+00  0.0000000000000D+00
263  2.6200000000000D+00  0.0000000000000D+00  0.0000000000000D+00
264  2.6300000000000D+00  0.0000000000000D+00  0.0000000000000D+00
265  2.6400000000000D+00  0.0000000000000D+00  0.0000000000000D+00
266  2.6500000000000D+00  0.0000000000000D+00  0.0000000000000D+00
267  2.6600000000000D+00  0.0000000000000D+00  0.0000000000000D+00
268  2.6700000000000D+00  0.0000000000000D+00  0.0000000000000D+00
269  2.6800000000000D+00  0.0000000000000D+00  0.0000000000000D+00
270  2.6900000000000D+00  0.0000000000000D+00  0.0000000000000D+00
271  2.7000000000000D+00  0.0000000000000D+00  0.0000000000000D+00
272  2.7100000000000D+00  0.0000000000000D+00  0.0000000000000D+00
273  2.7200000000000D+00  0.0000000000000D+00  0.0000000000000D+00
274  2.7300000000000D+00  0.0000000000000D+00  0.0000000000000D+00
275  2.7400000000000D+00  0.0000000000000D+00  0.0000000000000D+00
276  2.7500000000000D+00  0.0000000000000D+00  0.0000000000000D+00
277  2.7600000000000D+00  0.0000000000000D+00  0.0000000000000D+00
278  2.7700000000000D+00  0.0000000000000D+00  0.0000000000000D+00
279  2.7800000000000D+00  0.0000000000000D+00  0.0000000000000D+00
280  2.7900000000000D+00  0.0000000000000D+00  0.0000000000000D+00
281  2.8000000000000D+00  0.0000000000000D+00  0.0000000000000D+00
282  2.8100000000000D+00  0.0000000000000D+00  0.0000000000000D+00
283  2.8200000000000D+00  0.0000000000000D+00  0.0000000000000D+00
284  2.8300000000000D+00  0.0000000000000D+00  0.0000000000000D+00
285  2.8400000000000D+00  0.0000000000000D+00  0.0000000000000D+00
286  2.8500000000000D+00  0.0000000000000D+00  0.0000000000000D+00
287  2.8600000000000D+00  0.0000000000000D+00  0.0000000000000D+00
288  2.8700000000000D+00  0.0000000000000D+00  0.0000000000000D+00
289  2.8800000000000D+00  0.0000000000000D+00  0.0000000000000D+00
290  2.8900000000000D+00  0.0000000000000D+00  0.0000000000000D+00
291  2.9000000000000D+00  0.0000000000000D+00  0.0000000000000D+00
292  2.9100000000000D+00  0.0000000000000D+00  0.0000000000000D+00
293  2.9200000000000D+00  0.0000000000000D+00  0.0000000000000D+00
294  2.9300000000000D+00  0.0000000000000D+00  0.0000000000000D+00
295  2.9400000000000D+00  0.0000000000000D+00  0.0000000000000D+00
296  2.9500000000000D+00  0.0000000000000D+00  0.0000000000000D+00
297  2.9600000000000D+00  0.0000000000000D+00  0.0000000000000D+00
298  2.9700000000000D+00  0.0000000000000D+00  0.0000000000000D+00
299  2.9800000000000D+00  0.0000000000000D+00  0.0000000000000D+00
300  2.9900000000000D+00  0.0000000000000D+00  0.0000000000000D+00
301  3.0000000000000D+00  0.0000000000000D+00  0.0000000000000D+00
302  3.0100000000000D+00  0.0000000000000D+00  0.0000000000000D+00
303  3.0200000000000D+00  0.0000000000000D+00  0.0000000000000D+00
304  3.0300000000000D+00  0.0000000000000D+00  0.0000000000000D+00
305  3.0400000000000D+00  0.0000000000000D+00  0.0000000000000D+00
306  3.0500000000000D+00  0.0000000000000D+00  0.0000000000000D+00
307  3.0600000000000D+00  0.0000000000000D+00  0.0000000000000D+00
308  3.0700000000000D+00  0.0000000000000D+00  0.0000000000000D+00
309  3.0800000000000D+00  0.0000000000000D+00  0.0000000000000D+00
310  3.0900000000000D+00  0.0000000000000D+00  0.0000000000000D+00
311  3.1000000000000D+00  0.0000000000000D+00  0.0000000000000D+00
312  3.1100000000000D+00  0.0000000000000D+00  0.0000000000000D+00
313  3.1200000000000D+00  0.0000000000000D+00  0.0000000000000D+00
314  3.1300000000000D+00  0.0000000000000D+00  0.0000000000000D+00
315  3.1400000000000D+00  0.0000000000000D+00  0.0000000000000D+00
316  3.1500000000000D+00  0.0000000000000D+00  0.0000000000000D+00
317  3.1600000000000D+00  0.0000000000000D+00  0.0000000000000D+00
318  3.1700000000000D+00  0.0000000000000D+00  0.0000000000000D+00
319  3.1800000000000D+00  0.0000000000000D+00  0.0000000000000D+00
320  3.1900000000000D+00  0.0000000000000D+00  0.0000000000000D+00
321  3.2000000000000D+00  0.0000000000000D+00  0.0000000000000D+00
322  3.2100000000000D+00  0.0000000000000D+00  0.0000000000000D+00
323  3.2200000000000D+00  0.0000000000000D+00  0.0000000000000D+00
324  3.2300000000000D+00  0.0000000000000D+00  0.0000000000000D+00
325  3.2400000000000D+00  0.0000000000000D+00  0.0000000000000D+00
326  3.2500000000000D+00  0.0000000000000D+00  0.0000000000000D+00
327  3.2600000000000D+00  0.0000000000000D+00  0.0000000000000D+00
328  3.2700000000000D+00  0.0000000000000D+00  0.0000000000000D+00
329  3.2800000000000D+00  0.0000000000000D+00  0.0000000000000D+00
330  3.2900000000000D+00  0.0000000000000D+00  0.0000000000000D+00
331  3.3000000000000D+00  0.0000000000000D+00  0.0000000000000D+00
332  3.3100000000000D+00  0.0000000000000D+00  0.0000000000000D+00
333  3.3200000000000D+00  0.0000000000000D+00  0.0000000000000D+00
334  3.3300000000000D+00  0.0000000000000D+00  0.0000000000000D+00
335  3.3400000000000D+00  0.0000000000000D+00  0.0000000000000D+00
336  3.3500000000000D+00  0.0000000000000D+00  0.0000000000000D+00
337  3.3600000000000D+00  0.0000000000000D+00  0.0000000000000D+00
338  3.3700000000000D+00  0.0000000000000D+00  0.0000000000000D+00
339  3.3800000000000D+00  0.0000000000000D+00  0.0000000000000D+00
340  3.3900000000000D+00  0.0000000000000D+00  0.0000000000000D+00
341  3.4000000000000D+00  0.0000000000000D+00  0.0000000000000D+00
342  3.4100000000000D+00  0.0000000000000D+00  0.0000000000000D+00
343  3.4200000000000D+00  0.0000000000000D+00  0.0000000000000D+00
344  3.4300000000000D+00  0.0000000000000D+00  0.0000000000000D+00
345  3.4400000000000D+00  0.0000000000000D+00  0.0000000000000D+00
346  3.4500000000000D+00  0.0000000000000D+00  0.0000000000000D+00
347  3.4600000000000D+00  0.0000000000000D+00  0.0000000000000D+00
348  3.4700000000000D+00  0.0000000000000D+00  0.0000000000000D+00
349  3.4800000000000D+00  0.0000000000000D+00  0.0000000000000D+00
350  3.4900000000000D+00  0.0000000000000D+00  0.0000000000000D+00
351  3.5000000000000D+00  0.0000000000000D+00  0.0000000000000D+00
352  3.5100000000000D+00  0.0000000000000D+00  0.0000000000000D+00
353  3.5200000000000D+00  0.0000000000000D+00  0.0000000000000D+00
354  3.5300000000000D+00  0.0000000000000D+00  0.0000000000000D+00
355  3.5400000000000D+00  0.0000000000000D+00  0.0000000000000D+00
356  3.5500000000000D+00  0.0000000000000D+00  0.0000000000000D+00
357  3.5600000000000D+00  0.0000000000000D+00  0.0000000000000D+00
358  3.5700000000000D+00  0.0000000000000D+00  0.0000000000000D+00
359  3.5800000000000D+00  0.0000000000000D+00  0.0000000000000D+00
360  3.5900000000000D+00  0.0000000000000D+00  0.0000000000000D+00
361  3.6000000000000D+00  0.0000000000000D+00  0.0000000000000D+00
362  3.6100000000000D+00  0.0000000000000D+00  0.0000000000000D+00
363  3.6200000000000D+00  0.0000000000000D+00  0.0000000000000D+00
364  3.6300000000000D+00  0.0000000000000D+00  0.0000000000000D+00
365  3.6400000000000D+00  0.0000000000000D+00  0.0000000000000D+00
366  3.6500000000000D+00  0.0000000000000D+00  0.0000000000000D+00
367  3.6600000000000D+00  0.0000000000000D+00  0.0000000000000D+00
368  3.6700000000000D+00  0.0000000000000D+00  0.0000000000000D+00
369  3.6800000000000D+00  0.0000000000000D+00  0.0000000000000D+00
370  3.6900000000000D+00  0.0000000000000D+00  0.0000000000000D+00
371  3.7000000000000D+00  0.0000000000000D+00  0.0000000000000D+00
372  3.7100000000000D+00  0.0000000000000D+00  0.0000000000000D+00
373  3.7200000000000D+00  0.0000000000000D+00  0.0000000000000D+00
374  3.7300000000000D+00  0.0000000000000D+00  0.0000000000000D+00
375  3.7400000000000D+00  0.0000000000000D+00  0.0000000000000D+00
376  3.7500000000000D+00  0.0000000000000D+00  0.0000000000000D+00
377  3.7600000000000D+00  0.0000000000000D+00  0.0000000000000D+00
378  3.7700000000000D+00  0.0000000000000D+00  0.0000000000000D+00
379  3.7800000000000D+00  0.0000000000000D+00  0.0000000000000D+00
380  3.7900000000000D+00  0.0000000000000D+00  0.0000000000000D+00
381  3.8000000000000D+00  0.0000000000000D+00  0.0000000000000D+00
382  3.8100000000000D+00  0.0000000000000D+00  0.0000000000000D+00
383  3.8200000000000D+00  0.0000000000000D+00  0.0000000000000D+00
384  3.8300000000000D+00  0.0000000000000D+00  0.0000000000000D+00
385  3.8400000000000D+00  0.0000000000000D+00  0.0000000000000D+00
386  3.8500000000000D+00  0.0000000000000D+00  0.0000000000000D+00
387  3.8600000000000D+00  0.0000000000000D+00  0.0000000000000D+00
388  3.8700000000000D+00  0.0000000000000D+00  0.0000000000000D+00
389  3.8800000000000D+00  0.0000000000000D+00  0.0000000000000D+00
390  3.8900000000000D+00  0.0000000000000D+00  0.0000000000000D+00
391  3.9000000000000D+00  0.0000000000000D+00  0.0000000000000D+00
392  3.9100000000000D+00  0.0000000000000D+00  0.0000000000000D+00
393  3.9200000000000D+00  0.0000000000000D+00  0.0000000000000D+00
394  3.9300000000000D+00  0.0000000000000D+00  0.0000000000000D+00
395  3.9400000000000D+00  0.0000000000000D+00  0.0000000000000D+00
396  3.9500000000000D+00  0.0000000000000D+00  0.0000000000000D+00
397  3.9600000000000D+00  0.0000000000000D+00  0.0000000000000D+00
398  3.9700000000000D+00  0.0000000000000D+00  0.0000000000000D+00
399  3.9800000000000D+00  0.0000000000000D+00  0.0000000000000D+00
400  3.9900000000000D+00  0.0000000000000D+00  0.0000000000000D+00
401  4.0000000000000D+00  0.0000000000000D+00  0.0000000000000D+00
402  4.0100000000000D+00  0.0000000000000D+00  0.0000000000000D+00
403  4.0200000000000D+00  0.0000000000000D+00  0.0000000000000D+00
404  4.0300000000000D+00  0.0000000000000D+00  0.0000000000000D+00
405  4.0400000000000D+00  0.0000000000000D+00  0.0000000000000D+00
406  4.0500000000000D+00  0.0000000000000D+00  0.0000000000000D+00
407  4.0600000000000D+00  0.0000000000000D+00  0.0000000000000D+00
408  4.0700000000000D+00  0.0000000000000D+00  0.0000000000000D+00
409  4.0800000000000D+00  0.0000000000000D+00  0.0000000000000D+00
410  4.0900000000000D+00  0.0000000000000D+00  0.0000000000000D+00
411  4.1000000000000D+00  0.0000000000000D+00  0.0000000000000D+00
412  4.1100000000000D+00  0.0000000000000D+00  0.0000000000000D+00
413  4.1200000000000D+00  0.0000000000000D+00  0.0000000000000D+00
414  4.1300000000000D+00  0.0000000000000D+00  0.0000000000000D+00
415  4.1400000000000D+00  0.0000000000000D+00  0.0000000000000D+00
416  4.1500000000000D+00  0.0000000000000D+00  0.0000000000000D+00
417  4.1600000000000D+00  0.0000000000000D+00  0.0000000000000D+00
418  4.1700000000000D+00  0.0000000000000D+00  0.0000000000000D+00
419  4.1800000000000D+00  0.0000000000000D+00  0.0000000000000D+00
420  4.1900000000000D+00  0.0000000000000D+00  0.0000000000000D+00
421  4.2000000000000D+00  0.0000000000000D+00  0.0000000000000D+00
422  4.2100000000000D+00  0.0000000000000D+00  0.0000000000000D+00
423  4.2200000000000D+00  0.0000000000000D+00  0.0000000000000D+00
424  4.2300000000000D+00  0.0000000000000D+00  0.0000000000000D+00
425  4.2400000000000D+00  0.0000000000000D+00  0.0000000000000D+00
426  4.2500000000000D+00  0.0000000000000D+00  0.0000000000000D+00
427  4.2600000000000D+00  0.0000000000000D+00  0.0000000000000D+00
428  4.2700000000000D+00  0.0000000000000D+00  0.0000000000000D+00
429  4.2800000000000D+00  0.0000000000000D+00  0.0000000000000D+00
430  4.2900000000000D+00  0.0000000000000D+00  0.0000000000000D+00
431  4.3000000000000D+00  0.0000000000000D+00  0.0000000000000D+00
432  4.3100000000000D+00  0.0000000000000D+00  0.0000000000000D+00
433  4.3200000000000D+00  0.0000000000000D+00  0.0000000000000D+00
434  4.3300000000000D+00  0.0000000000000D+00  0.0000000000000D+00
435  4.3400000000000D+00  0.0000000000000D+00  0.0000000000000D+00
436  4.3500000000000D+00  0.0000000000000D+00  0.0000000000000D+00
437  4.3600000000000D+00  0.0000000000000D+00  0.0000000000000D+00
438  4.3700000000000D+00  0.0000000000000D+00  0.0000000000000D+00
439  4.3800000000000D+00  0.0000000000000D+00  0.0000000000000D+00
440  4.3900000000000D+00  0.0000000000000D+00  0.0000000000000D+00
441  4.4000000000000D+00  0.0000000000000D+00  0.0000000000000D+00
442  4.4100000000000D+00  0.0000000000000D+00  0.0000000000000D+00
443  4.4200000000000D+00  0.0000000000000D+00  0.0000000000000D+00