Hg    ONCVPSP-3.3.0  r_core=   1.60079   1.60079   1.45509   1.60079
80.0000     20.0000      180112    zatom,zion,pspd
8 -116133   3     4   600     0    pspcod,pspxc,lmax,lloc,mmax,r2well
5.99000000  5.00000000  0.00000000    rchrg fchrg qchrg
2     2     2     1     0    nproj
1     1           extension_switch
0                         1.5280579678554D+01  2.0635954438116D+00
1  0.0000000000000D+00 -2.8579338895440D-10  5.0624356096041D-10
2  1.0000000000000D-02  7.6998431167988D-02 -7.6683657132415D-03
3  2.0000000000000D-02  1.5379148721048D-01 -1.5194594827221D-02
4  3.0000000000000D-02  2.3017465723941D-01 -2.2437653605216D-02
5  4.0000000000000D-02  3.0594515213312D-01 -2.9258702787874D-02
6  5.0000000000000D-02  3.8090274872190D-01 -3.5522166842890D-02
7  6.0000000000000D-02  4.5485061414148D-01 -4.1096769991058D-02
8  7.0000000000000D-02  5.2759610408298D-01 -4.5856528535047D-02
9  8.0000000000000D-02  5.9895152895361D-01 -4.9681689523420D-02
10  9.0000000000000D-02  6.6873488231361D-01 -5.2459606404238D-02
11  1.0000000000000D-01  7.3677052636675D-01 -5.4085543052811D-02
12  1.1000000000000D-01  8.0288982975075D-01 -5.4463398388519D-02
13  1.2000000000000D-01  8.6693175339342D-01 -5.3506344716533D-02
14  1.3000000000000D-01  9.2874338076490D-01 -5.1137373930921D-02
15  1.4000000000000D-01  9.8818038945985D-01 -4.7289746784864D-02
16  1.5000000000000D-01  1.0451074616775D+00 -4.1907341558612D-02
17  1.6000000000000D-01  1.0993986318267D+00 -3.4944899623659D-02
18  1.7000000000000D-01  1.1509375701567D+00 -2.6368166598635D-02
19  1.8000000000000D-01  1.1996178020001D+00 -1.6153929004496D-02
20  1.9000000000000D-01  1.2453428628939D+00 -4.2899475394893D-03
21  2.0000000000000D-01  1.2880263905258D+00  9.2252107062923D-03
22  2.1000000000000D-01  1.3275921551058D+00  2.4382437605594D-02
23  2.2000000000000D-01  1.3639740304065D+00  4.1162442297261D-02
24  2.3000000000000D-01  1.3971159083135D+00  5.9536196743733D-02
25  2.4000000000000D-01  1.4269715602974D+00  7.9465461843514D-02
26  2.5000000000000D-01  1.4535044497352D+00  1.0090338647559D-01
27  2.6000000000000D-01  1.4766874994803D+00  1.2379517102195D-01
28  2.7000000000000D-01  1.4965028194849D+00  1.4807878618673D-01
29  2.8000000000000D-01  1.5129413996285D+00  1.7368573731574D-01
30  2.9000000000000D-01  1.5260027731825D+00  2.0054186392636D-01
31  3.0000000000000D-01  1.5356946565471D+00  2.2856816379152D-01
32  3.1000000000000D-01  1.5420325710297D+00  2.5768163068861D-01
33  3.2000000000000D-01  1.5450394524897D+00  2.8779609482818D-01
34  3.3000000000000D-01  1.5447452546504D+00  3.1882305502001D-01
35  3.4000000000000D-01  1.5411865517833D+00  3.5067249181705D-01
36  3.5000000000000D-01  1.5344061462891D+00  3.8325365119891D-01
37  3.6000000000000D-01  1.5244526864515D+00  4.1647578881353D-01
38  3.7000000000000D-01  1.5113802993148D+00  4.5024886538373D-01
39  3.8000000000000D-01  1.4952482432439D+00  4.8448418459885D-01
40  3.9000000000000D-01  1.4761205842689D+00  5.1909496564220D-01
41  4.0000000000000D-01  1.4540658998023D+00  5.5399684344348D-01
42  4.1000000000000D-01  1.4291570127464D+00  5.8910829078190D-01
43  4.2000000000000D-01  1.4014707584012D+00  6.2435095748655D-01
44  4.3000000000000D-01  1.3710877859260D+00  6.5964992317379D-01
45  4.4000000000000D-01  1.3380923954332D+00  6.9493386121264D-01
46  4.5000000000000D-01  1.3025724110906D+00  7.3013511290184D-01
47  4.6000000000000D-01  1.2646190898955D+00  7.6518967216205D-01
48  4.7000000000000D-01  1.2243270650730D+00  8.0003708237510D-01
49  4.8000000000000D-01  1.1817943223416D+00  8.3462024832445D-01
50  4.9000000000000D-01  1.1371222066043D+00  8.6888516748764D-01
51  5.0000000000000D-01  1.0904154559587D+00  9.0278058618696D-01
52  5.1000000000000D-01  1.0417822592986D+00  9.3625758730156D-01
53  5.2000000000000D-01  9.9133433319793D-01  9.6926911736519D-01
54  5.3000000000000D-01  9.3918701324668D-01  1.0017694619056D+00
55  5.4000000000000D-01  8.8545935454648D-01  1.0337136788051D+00
56  5.5000000000000D-01  8.3027423568395D-01  1.0650570002687D+00
57  5.6000000000000D-01  7.7375846018768D-01  1.0957542146572D+00
58  5.7000000000000D-01  7.1604284924607D-01  1.1257590399742D+00
59  5.8000000000000D-01  6.5726231932262D-01  1.1550235011702D+00
60  5.9000000000000D-01  5.9755593825856D-01  1.1834973236451D+00
61  6.0000000000000D-01  5.3706695350008D-01  1.2111273553765D+00
62  6.1000000000000D-01  4.7594278623303D-01  1.2378570299825D+00
63  6.2000000000000D-01  4.1433498545100D-01  1.2636258827318D+00
64  6.3000000000000D-01  3.5239913632295D-01  1.2883691310467D+00
65  6.4000000000000D-01  2.9029471766046D-01  1.3120173304137D+00
66  6.5000000000000D-01  2.2818490381309D-01  1.3344961158097D+00
67  6.6000000000000D-01  1.6623630693214D-01  1.3557260377983D+00
68  6.7000000000000D-01  1.0461865623830D-01  1.3756225013429D+00
69  6.8000000000000D-01  4.3504411698300D-02  1.3940958141376D+00
70  6.9000000000000D-01 -1.6931689648809D-02  1.4110513498873D+00
71  7.0000000000000D-01 -7.6513155587052D-02  1.4263898304957D+00
72  7.1000000000000D-01 -1.3506232876843D-01  1.4400077295427D+00
73  7.2000000000000D-01 -1.9240104386436D-01  1.4517977977910D+00
74  7.3000000000000D-01 -2.4835134978201D-01  1.4616497097611D+00
75  7.4000000000000D-01 -3.0273629389307D-01  1.4694508286788D+00
76  7.5000000000000D-01 -3.5538076421820D-01  1.4750870853587D+00
77  7.6000000000000D-01 -4.0611238451098D-01  1.4784439648402D+00
78  7.7000000000000D-01 -4.5476245622320D-01  1.4794075928970D+00
79  7.8000000000000D-01 -5.0116694040644D-01  1.4778659128871D+00
80  7.9000000000000D-01 -5.4516747173344D-01  1.4737099418391D+00
81  8.0000000000000D-01 -5.8661239601840D-01  1.4668350931966D+00
82  8.1000000000000D-01 -6.2535782188866D-01  1.4571425522904D+00
83  8.2000000000000D-01 -6.6126867662521D-01  1.4445406893944D+00
84  8.3000000000000D-01 -6.9421975565364D-01  1.4289464941679D+00
85  8.4000000000000D-01 -7.2409675474355D-01  1.4102870144102D+00
86  8.5000000000000D-01 -7.5079727366825D-01  1.3885007813647D+00
87  8.6000000000000D-01 -7.7423177989765D-01  1.3635392033305D+00
88  8.7000000000000D-01 -7.9432452084924D-01  1.3353679090714D+00
89  8.8000000000000D-01 -8.1101437331133D-01  1.3039680224699D+00
90  8.9000000000000D-01 -8.2425561887941D-01  1.2693373500604D+00
91  9.0000000000000D-01 -8.3401863461439D-01  1.2314914634942D+00
92  9.1000000000000D-01 -8.4029048863751D-01  1.1904646596412D+00
93  9.2000000000000D-01 -8.4307543101984D-01  1.1463107819148D+00
94  9.3000000000000D-01 -8.4239527109981D-01  1.0991038875099D+00
95  9.4000000000000D-01 -8.3828963326432D-01  1.0489387465669D+00
96  9.5000000000000D-01 -8.3081608424985D-01  9.9593116079796D-01
97  9.6000000000000D-01 -8.2005012615084D-01  9.4021809082636D-01
98  9.7000000000000D-01 -8.0608505055194D-01  8.8195758337702D-01
99  9.8000000000000D-01 -7.8903165051211D-01  8.2132849148894D-01
100  9.9000000000000D-01 -7.6901778854744D-01  7.5852998314025D-01
101  1.0000000000000D+00 -7.4618782013539D-01  6.9378083584264D-01
102  1.0100000000000D+00 -7.2070187384287D-01  6.2731851726794D-01
103  1.0200000000000D+00 -6.9273499063463D-01  5.5939805428965D-01
104  1.0300000000000D+00 -6.6247612646487D-01  4.9029069530421D-01
105  1.0400000000000D+00 -6.3012702376013D-01  4.2028237312354D-01
106  1.0500000000000D+00 -5.9590095893630D-01  3.4967197822147D-01
107  1.0600000000000D+00 -5.6002137442232D-01  2.7876945428297D-01
108  1.0700000000000D+00 -5.2272040517859D-01  2.0789373048831D-01
109  1.0800000000000D+00 -4.8423731091917D-01  1.3737050697993D-01
110  1.0900000000000D+00 -4.4481682645842D-01  6.7529911968393D-02
111  1.1000000000000D+00 -4.0470744374769D-01 -1.2959491479925D-03
112  1.1100000000000D+00 -3.6415963998461D-01 -6.8775530900923D-02
113  1.1200000000000D+00 -3.2342406720302D-01 -1.3458044760715D-01
114  1.1300000000000D+00 -2.8274971926988D-01 -1.9838811155445D-01
115  1.1400000000000D+00 -2.4238209277398D-01 -2.5988438411087D-01
116  1.1500000000000D+00 -2.0256135858806D-01 -3.1876621379937D-01
117  1.1600000000000D+00 -1.6352056111368D-01 -3.7474423489874D-01
118  1.1700000000000D+00 -1.2548386213997D-01 -4.2754530017482D-01
119  1.1800000000000D+00 -8.8664845917718D-02 -4.7691492176879D-01
120  1.1900000000000D+00 -5.3264901952697D-02 -5.2261959437118D-01
121  1.2000000000000D+00 -1.9471701130434D-02 -5.6444897610553D-01
122  1.2100000000000D+00  1.2542219937270D-02 -6.0221790364936D-01
123  1.2200000000000D+00  4.2620752244190D-02 -6.3576821931373D-01
124  1.2300000000000D+00  7.0625372383298D-02 -6.6497038945869D-01
125  1.2400000000000D+00  9.6436153808700D-02 -6.8972489615057D-01
126  1.2500000000000D+00  1.1995262117361D-01 -7.0996338585004D-01
127  1.2600000000000D+00  1.4109443852011D-01 -7.2564956042151D-01
128  1.2700000000000D+00  1.5980192490516D-01 -7.3677980018594D-01
129  1.2800000000000D+00  1.7603639219605D-01 -7.4338351056727D-01
130  1.2900000000000D+00  1.8978030065025D-01 -7.4552318526213D-01
131  1.3000000000000D+00  2.0103723180993D-01 -7.4329418509102D-01
132  1.3100000000000D+00  2.0983167873560D-01 -7.3682423248682D-01
133  1.3200000000000D+00  2.1620865490623D-01 -7.2627262363845D-01
134  1.3300000000000D+00  2.2023312750201D-01 -7.1182916733034D-01
135  1.3400000000000D+00  2.2198928009068D-01 -6.9371285841037D-01
136  1.3500000000000D+00  2.2157961240017D-01 -6.7217029807142D-01
137  1.3600000000000D+00  2.1912388835804D-01 -6.4747387875584D-01
138  1.3700000000000D+00  2.1475794176645D-01 -6.1991974857769D-01
139  1.3800000000000D+00  2.0863235387888D-01 -5.8982557802583D-01
140  1.3900000000000D+00  2.0091101734801D-01 -5.5752815204629D-01
141  1.4000000000000D+00  1.9176960069750D-01 -5.2338081008563D-01
142  1.4100000000000D+00  1.8139393731142D-01 -4.8775077368616D-01
143  1.4200000000000D+00  1.6997831972388D-01 -4.5101632260413D-01
144  1.4300000000000D+00  1.5772385790832D-01 -4.1356410511504D-01
145  1.4400000000000D+00  1.4483643486518D-01 -3.7578572789209D-01
146  1.4500000000000D+00  1.3152549933359D-01 -3.3807587829027D-01
147  1.4600000000000D+00  1.1800219723984D-01 -3.0082925411881D-01
148  1.4700000000000D+00  1.0447490305372D-01 -2.6443270225463D-01
149  1.4800000000000D+00  9.1145307442835D-02 -2.2925845244657D-01
150  1.4900000000000D+00  7.8203925541496D-02 -1.9565635809280D-01
151  1.5000000000000D+00  6.5828012285154D-02 -1.6395054037038D-01
152  1.5100000000000D+00  5.4180596147485D-02 -1.3443809416152D-01
153  1.5200000000000D+00  4.3408619274695D-02 -1.0738609155053D-01
154  1.5300000000000D+00  3.3641675322112D-02 -8.3029661514589D-02
155  1.5400000000000D+00  2.4990769862129D-02 -6.1570069343764D-02
156  1.5500000000000D+00  1.7551308995006D-02 -4.3183063554767D-02
157  1.5600000000000D+00  1.1385166805477D-02 -2.7975405280176D-02
158  1.5700000000000D+00  6.5152890981680D-03 -1.5973365233979D-02
159  1.5800000000000D+00  3.0512088758833D-03 -7.4277386775483D-03
160  1.5900000000000D+00  1.0599891497059D-03 -2.4967643960155D-03
161  1.6000000000000D+00  2.0493918628842D-04 -3.8597855895474D-04
162  1.6100000000000D+00 -2.3767024809803D-05  1.2288638487321D-04
163  1.6200000000000D+00 -1.1702540743337D-08  3.9550424163052D-08
164  1.6300000000000D+00  1.9036043759713D-05 -5.9445525159558D-05
165  1.6400000000000D+00 -2.6114222245370D-07  9.7134756921975D-07
166  1.6500000000000D+00 -2.7140249217115D-06  9.4811383373930D-06
167  1.6600000000000D+00 -8.0366258619299D-08  1.4293786613854D-07
168  1.6700000000000D+00 -4.7280219274512D-07  8.4091679390906D-07
169  1.6800000000000D+00  0.0000000000000D+00  0.0000000000000D+00
170  1.6900000000000D+00  0.0000000000000D+00  0.0000000000000D+00
171  1.7000000000000D+00  0.0000000000000D+00  0.0000000000000D+00
172  1.7100000000000D+00  0.0000000000000D+00  0.0000000000000D+00
173  1.7200000000000D+00  0.0000000000000D+00  0.0000000000000D+00
174  1.7300000000000D+00  0.0000000000000D+00  0.0000000000000D+00
175  1.7400000000000D+00  0.0000000000000D+00  0.0000000000000D+00
176  1.7500000000000D+00  0.0000000000000D+00  0.0000000000000D+00
177  1.7600000000000D+00  0.0000000000000D+00  0.0000000000000D+00
178  1.7700000000000D+00  0.0000000000000D+00  0.0000000000000D+00
179  1.7800000000000D+00  0.0000000000000D+00  0.0000000000000D+00
180  1.7900000000000D+00  0.0000000000000D+00  0.0000000000000D+00
181  1.8000000000000D+00  0.0000000000000D+00  0.0000000000000D+00
182  1.8100000000000D+00  0.0000000000000D+00  0.0000000000000D+00
183  1.8200000000000D+00  0.0000000000000D+00  0.0000000000000D+00
184  1.8300000000000D+00  0.0000000000000D+00  0.0000000000000D+00
185  1.8400000000000D+00  0.0000000000000D+00  0.0000000000000D+00
186  1.8500000000000D+00  0.0000000000000D+00  0.0000000000000D+00
187  1.8600000000000D+00  0.0000000000000D+00  0.0000000000000D+00
188  1.8700000000000D+00  0.0000000000000D+00  0.0000000000000D+00
189  1.8800000000000D+00  0.0000000000000D+00  0.0000000000000D+00
190  1.8900000000000D+00  0.0000000000000D+00  0.0000000000000D+00
191  1.9000000000000D+00  0.0000000000000D+00  0.0000000000000D+00
192  1.9100000000000D+00  0.0000000000000D+00  0.0000000000000D+00
193  1.9200000000000D+00  0.0000000000000D+00  0.0000000000000D+00
194  1.9300000000000D+00  0.0000000000000D+00  0.0000000000000D+00
195  1.9400000000000D+00  0.0000000000000D+00  0.0000000000000D+00
196  1.9500000000000D+00  0.0000000000000D+00  0.0000000000000D+00
197  1.9600000000000D+00  0.0000000000000D+00  0.0000000000000D+00
198  1.9700000000000D+00  0.0000000000000D+00  0.0000000000000D+00
199  1.9800000000000D+00  0.0000000000000D+00  0.0000000000000D+00
200  1.9900000000000D+00  0.0000000000000D+00  0.0000000000000D+00
201  2.0000000000000D+00  0.0000000000000D+00  0.0000000000000D+00
202  2.0100000000000D+00  0.0000000000000D+00  0.0000000000000D+00
203  2.0200000000000D+00  0.0000000000000D+00  0.0000000000000D+00
204  2.0300000000000D+00  0.0000000000000D+00  0.0000000000000D+00
205  2.0400000000000D+00  0.0000000000000D+00  0.0000000000000D+00
206  2.0500000000000D+00  0.0000000000000D+00  0.0000000000000D+00
207  2.0600000000000D+00  0.0000000000000D+00  0.0000000000000D+00
208  2.0700000000000D+00  0.0000000000000D+00  0.0000000000000D+00
209  2.0800000000000D+00  0.0000000000000D+00  0.0000000000000D+00
210  2.0900000000000D+00  0.0000000000000D+00  0.0000000000000D+00
211  2.1000000000000D+00  0.0000000000000D+00  0.0000000000000D+00
212  2.1100000000000D+00  0.0000000000000D+00  0.0000000000000D+00
213  2.1200000000000D+00  0.0000000000000D+00  0.0000000000000D+00
214  2.1300000000000D+00  0.0000000000000D+00  0.0000000000000D+00
215  2.1400000000000D+00  0.0000000000000D+00  0.0000000000000D+00
216  2.1500000000000D+00  0.0000000000000D+00  0.0000000000000D+00
217  2.1600000000000D+00  0.0000000000000D+00  0.0000000000000D+00
218  2.1700000000000D+00  0.0000000000000D+00  0.0000000000000D+00
219  2.1800000000000D+00  0.0000000000000D+00  0.0000000000000D+00
220  2.1900000000000D+00  0.0000000000000D+00  0.0000000000000D+00
221  2.2000000000000D+00  0.0000000000000D+00  0.0000000000000D+00
222  2.2100000000000D+00  0.0000000000000D+00  0.0000000000000D+00
223  2.2200000000000D+00  0.0000000000000D+00  0.0000000000000D+00
224  2.2300000000000D+00  0.0000000000000D+00  0.0000000000000D+00
225  2.2400000000000D+00  0.0000000000000D+00  0.0000000000000D+00
226  2.2500000000000D+00  0.0000000000000D+00  0.0000000000000D+00
227  2.2600000000000D+00  0.0000000000000D+00  0.0000000000000D+00
228  2.2700000000000D+00  0.0000000000000D+00  0.0000000000000D+00
229  2.2800000000000D+00  0.0000000000000D+00  0.0000000000000D+00
230  2.2900000000000D+00  0.0000000000000D+00  0.0000000000000D+00
231  2.3000000000000D+00  0.0000000000000D+00  0.0000000000000D+00
232  2.3100000000000D+00  0.0000000000000D+00  0.0000000000000D+00
233  2.3200000000000D+00  0.0000000000000D+00  0.0000000000000D+00
234  2.3300000000000D+00  0.0000000000000D+00  0.0000000000000D+00
235  2.3400000000000D+00  0.0000000000000D+00  0.0000000000000D+00
236  2.3500000000000D+00  0.0000000000000D+00  0.0000000000000D+00
237  2.3600000000000D+00  0.0000000000000D+00  0.0000000000000D+00
238  2.3700000000000D+00  0.0000000000000D+00  0.0000000000000D+00
239  2.3800000000000D+00  0.0000000000000D+00  0.0000000000000D+00
240  2.3900000000000D+00  0.0000000000000D+00  0.0000000000000D+00
241  2.4000000000000D+00  0.0000000000000D+00  0.0000000000000D+00
242  2.4100000000000D+00  0.0000000000000D+00  0.0000000000000D+00
243  2.4200000000000D+00  0.0000000000000D+00  0.0000000000000D+00
244  2.4300000000000D+00  0.0000000000000D+00  0.0000000000000D+00
245  2.4400000000000D+00  0.0000000000000D+00  0.0000000000000D+00
246  2.4500000000000D+00  0.0000000000000D+00  0.0000000000000D+00
247  2.4600000000000D+00  0.0000000000000D+00  0.0000000000000D+00
248  2.4700000000000D+00  0.0000000000000D+00  0.0000000000000D+00
249  2.4800000000000D+00  0.0000000000000D+00  0.0000000000000D+00
250  2.4900000000000D+00  0.0000000000000D+00  0.0000000000000D+00
251  2.5000000000000D+00  0.0000000000000D+00  0.0000000000000D+00
252  2.5100000000000D+00  0.0000000000000D+00  0.0000000000000D+00
253  2.5200000000000D+00  0.0000000000000D+00  0.0000000000000D+00
254  2.5300000000000D+00  0.0000000000000D+00  0.0000000000000D+00
255  2.5400000000000D+00  0.0000000000000D+00  0.0000000000000D+00
256  2.5500000000000D+00  0.0000000000000D+00  0.0000000000000D+00
257  2.5600000000000D+00  0.0000000000000D+00  0.0000000000000D+00
258  2.5700000000000D+00  0.0000000000000D+00  0.0000000000000D+00
259  2.5800000000000D+00  0.0000000000000D+00  0.0000000000000D+00
260  2.5900000000000D+00  0.0000000000000D+00  0.0000000000000D+00
261  2.6000000000000D+00  0.0000000000000D+00  0.0000000000000D+00
262  2.6100000000000D+00  0.0000000000000D+00  0.0000000000000D+00
263  2.6200000000000D+00  0.0000000000000D+00  0.0000000000000D+00
264  2.6300000000000D+00  0.0000000000000D+00  0.0000000000000D+00
265  2.6400000000000D+00  0.0000000000000D+00  0.0000000000000D+00
266  2.6500000000000D+00  0.0000000000000D+00  0.0000000000000D+00
267  2.6600000000000D+00  0.0000000000000D+00  0.0000000000000D+00
268  2.6700000000000D+00  0.0000000000000D+00  0.0000000000000D+00
269  2.6800000000000D+00  0.0000000000000D+00  0.0000000000000D+00
270  2.6900000000000D+00  0.0000000000000D+00  0.0000000000000D+00
271  2.7000000000000D+00  0.0000000000000D+00  0.0000000000000D+00
272  2.7100000000000D+00  0.0000000000000D+00  0.0000000000000D+00
273  2.7200000000000D+00  0.0000000000000D+00  0.0000000000000D+00
274  2.7300000000000D+00  0.0000000000000D+00  0.0000000000000D+00
275  2.7400000000000D+00  0.0000000000000D+00  0.0000000000000D+00
276  2.7500000000000D+00  0.0000000000000D+00  0.0000000000000D+00
277  2.7600000000000D+00  0.0000000000000D+00  0.0000000000000D+00
278  2.7700000000000D+00  0.0000000000000D+00  0.0000000000000D+00
279  2.7800000000000D+00  0.0000000000000D+00  0.0000000000000D+00
280  2.7900000000000D+00  0.0000000000000D+00  0.0000000000000D+00
281  2.8000000000000D+00  0.0000000000000D+00  0.0000000000000D+00
282  2.8100000000000D+00  0.0000000000000D+00  0.0000000000000D+00
283  2.8200000000000D+00  0.0000000000000D+00  0.0000000000000D+00
284  2.8300000000000D+00  0.0000000000000D+00  0.0000000000000D+00
285  2.8400000000000D+00  0.0000000000000D+00  0.0000000000000D+00
286  2.8500000000000D+00  0.0000000000000D+00  0.0000000000000D+00
287  2.8600000000000D+00  0.0000000000000D+00  0.0000000000000D+00
288  2.8700000000000D+00  0.0000000000000D+00  0.0000000000000D+00
289  2.8800000000000D+00  0.0000000000000D+00  0.0000000000000D+00
290  2.8900000000000D+00  0.0000000000000D+00  0.0000000000000D+00
291  2.9000000000000D+00  0.0000000000000D+00  0.0000000000000D+00
292  2.9100000000000D+00  0.0000000000000D+00  0.0000000000000D+00
293  2.9200000000000D+00  0.0000000000000D+00  0.0000000000000D+00
294  2.9300000000000D+00  0.0000000000000D+00  0.0000000000000D+00
295  2.9400000000000D+00  0.0000000000000D+00  0.0000000000000D+00
296  2.9500000000000D+00  0.0000000000000D+00  0.0000000000000D+00
297  2.9600000000000D+00  0.0000000000000D+00  0.0000000000000D+00
298  2.9700000000000D+00  0.0000000000000D+00  0.0000000000000D+00
299  2.9800000000000D+00  0.0000000000000D+00  0.0000000000000D+00
300  2.9900000000000D+00  0.0000000000000D+00  0.0000000000000D+00
301  3.0000000000000D+00  0.0000000000000D+00  0.0000000000000D+00
302  3.0100000000000D+00  0.0000000000000D+00  0.0000000000000D+00
303  3.0200000000000D+00  0.0000000000000D+00  0.0000000000000D+00
304  3.0300000000000D+00  0.0000000000000D+00  0.0000000000000D+00
305  3.0400000000000D+00  0.0000000000000D+00  0.0000000000000D+00
306  3.0500000000000D+00  0.0000000000000D+00  0.0000000000000D+00
307  3.0600000000000D+00  0.0000000000000D+00  0.0000000000000D+00
308  3.0700000000000D+00  0.0000000000000D+00  0.0000000000000D+00
309  3.0800000000000D+00  0.0000000000000D+00  0.0000000000000D+00
310  3.0900000000000D+00  0.0000000000000D+00  0.0000000000000D+00
311  3.1000000000000D+00  0.0000000000000D+00  0.0000000000000D+00
312  3.1100000000000D+00  0.0000000000000D+00  0.0000000000000D+00
313  3.1200000000000D+00  0.0000000000000D+00  0.0000000000000D+00
314  3.1300000000000D+00  0.0000000000000D+00  0.0000000000000D+00
315  3.1400000000000D+00  0.0000000000000D+00  0.0000000000000D+00
316  3.1500000000000D+00  0.0000000000000D+00  0.0000000000000D+00
317  3.1600000000000D+00  0.0000000000000D+00  0.0000000000000D+00
318  3.1700000000000D+00  0.0000000000000D+00  0.0000000000000D+00
319  3.1800000000000D+00  0.0000000000000D+00  0.0000000000000D+00
320  3.1900000000000D+00  0.0000000000000D+00  0.0000000000000D+00
321  3.2000000000000D+00  0.0000000000000D+00  0.0000000000000D+00
322  3.2100000000000D+00  0.0000000000000D+00  0.0000000000000D+00
323  3.2200000000000D+00  0.0000000000000D+00  0.0000000000000D+00
324  3.2300000000000D+00  0.0000000000000D+00  0.0000000000000D+00
325  3.2400000000000D+00  0.0000000000000D+00  0.0000000000000D+00
326  3.2500000000000D+00  0.0000000000000D+00  0.0000000000000D+00
327  3.2600000000000D+00  0.0000000000000D+00  0.0000000000000D+00
328  3.2700000000000D+00  0.0000000000000D+00  0.0000000000000D+00
329  3.2800000000000D+00  0.0000000000000D+00  0.0000000000000D+00
330  3.2900000000000D+00  0.0000000000000D+00  0.0000000000000D+00
331  3.3000000000000D+00  0.0000000000000D+00  0.0000000000000D+00
332  3.3100000000000D+00  0.0000000000000D+00  0.0000000000000D+00
333  3.3200000000000D+00  0.0000000000000D+00  0.0000000000000D+00
334  3.3300000000000D+00  0.0000000000000D+00  0.0000000000000D+00
335  3.3400000000000D+00  0.0000000000000D+00  0.0000000000000D+00
336  3.3500000000000D+00  0.0000000000000D+00  0.0000000000000D+00
337  3.3600000000000D+00  0.0000000000000D+00  0.0000000000000D+00
338  3.3700000000000D+00  0.0000000000000D+00  0.0000000000000D+00
339  3.3800000000000D+00  0.0000000000000D+00  0.0000000000000D+00
340  3.3900000000000D+00  0.0000000000000D+00  0.0000000000000D+00
341  3.4000000000000D+00  0.0000000000000D+00  0.0000000000000D+00
342  3.4100000000000D+00  0.0000000000000D+00  0.0000000000000D+00
343  3.4200000000000D+00  0.0000000000000D+00  0.0000000000000D+00
344  3.4300000000000D+00  0.0000000000000D+00  0.0000000000000D+00
345  3.4400000000000D+00  0.0000000000000D+00  0.0000000000000D+00
346  3.4500000000000D+00  0.0000000000000D+00  0.0000000000000D+00
347  3.4600000000000D+00  0.0000000000000D+00  0.0000000000000D+00
348  3.4700000000000D+00  0.0000000000000D+00  0.0000000000000D+00
349  3.4800000000000D+00  0.0000000000000D+00  0.0000000000000D+00
350  3.4900000000000D+00  0.0000000000000D+00  0.0000000000000D+00
351  3.5000000000000D+00  0.0000000000000D+00  0.0000000000000D+00
352  3.5100000000000D+00  0.0000000000000D+00  0.0000000000000D+00
353  3.5200000000000D+00  0.0000000000000D+00  0.0000000000000D+00
354  3.5300000000000D+00  0.0000000000000D+00  0.0000000000000D+00
355  3.5400000000000D+00  0.0000000000000D+00  0.0000000000000D+00
356  3.5500000000000D+00  0.0000000000000D+00  0.0000000000000D+00
357  3.5600000000000D+00  0.0000000000000D+00  0.0000000000000D+00
358  3.5700000000000D+00  0.0000000000000D+00  0.0000000000000D+00
359  3.5800000000000D+00  0.0000000000000D+00  0.0000000000000D+00
360  3.5900000000000D+00  0.0000000000000D+00  0.0000000000000D+00
361  3.6000000000000D+00  0.0000000000000D+00  0.0000000000000D+00
362  3.6100000000000D+00  0.0000000000000D+00  0.0000000000000D+00
363  3.6200000000000D+00  0.0000000000000D+00  0.0000000000000D+00
364  3.6300000000000D+00  0.0000000000000D+00  0.0000000000000D+00
365  3.6400000000000D+00  0.0000000000000D+00  0.0000000000000D+00
366  3.6500000000000D+00  0.0000000000000D+00  0.0000000000000D+00
367  3.6600000000000D+00  0.0000000000000D+00  0.0000000000000D+00
368  3.6700000000000D+00  0.0000000000000D+00  0.0000000000000D+00
369  3.6800000000000D+00  0.0000000000000D+00  0.0000000000000D+00
370  3.6900000000000D+00  0.0000000000000D+00  0.0000000000000D+00
371  3.7000000000000D+00  0.0000000000000D+00  0.0000000000000D+00
372  3.7100000000000D+00  0.0000000000000D+00  0.0000000000000D+00
373  3.7200000000000D+00  0.0000000000000D+00  0.0000000000000D+00
374  3.7300000000000D+00  0.0000000000000D+00  0.0000000000000D+00
375  3.7400000000000D+00  0.0000000000000D+00  0.0000000000000D+00
376  3.7500000000000D+00  0.0000000000000D+00  0.0000000000000D+00
377  3.7600000000000D+00  0.0000000000000D+00  0.0000000000000D+00
378  3.7700000000000D+00  0.0000000000000D+00  0.0000000000000D+00
379  3.7800000000000D+00  0.0000000000000D+00  0.0000000000000D+00
380  3.7900000000000D+00  0.0000000000000D+00  0.0000000000000D+00
381  3.8000000000000D+00  0.0000000000000D+00  0.0000000000000D+00
382  3.8100000000000D+00  0.0000000000000D+00  0.0000000000000D+00
383  3.8200000000000D+00  0.0000000000000D+00  0.0000000000000D+00
384  3.8300000000000D+00  0.0000000000000D+00  0.0000000000000D+00
385  3.8400000000000D+00  0.0000000000000D+00  0.0000000000000D+00
386  3.8500000000000D+00  0.0000000000000D+00  0.0000000000000D+00
387  3.8600000000000D+00  0.0000000000000D+00  0.0000000000000D+00
388  3.8700000000000D+00  0.0000000000000D+00  0.0000000000000D+00
389  3.8800000000000D+00  0.0000000000000D+00  0.0000000000000D+00
390  3.8900000000000D+00  0.0000000000000D+00  0.0000000000000D+00
391  3.9000000000000D+00  0.0000000000000D+00  0.0000000000000D+00
392  3.9100000000000D+00  0.0000000000000D+00  0.0000000000000D+00
393  3.9200000000000D+00  0.0000000000000D+00  0.0000000000000D+00
394  3.9300000000000D+00  0.0000000000000D+00  0.0000000000000D+00
395  3.9400000000000D+00  0.0000000000000D+00  0.0000000000000D+00
396  3.9500000000000D+00  0.0000000000000D+00  0.0000000000000D+00
397  3.9600000000000D+00  0.0000000000000D+00  0.0000000000000D+00
398  3.9700000000000D+00  0.0000000000000D+00  0.0000000000000D+00
399  3.9800000000000D+00  0.0000000000000D+00  0.0000000000000D+00
400  3.9900000000000D+00  0.0000000000000D+00  0.0000000000000D+00
401  4.0000000000000D+00  0.0000000000000D+00  0.0000000000000D+00
402  4.0100000000000D+00  0.0000000000000D+00  0.0000000000000D+00
403  4.0200000000000D+00  0.0000000000000D+00  0.0000000000000D+00
404  4.0300000000000D+00  0.0000000000000D+00  0.0000000000000D+00
405  4.0400000000000D+00  0.0000000000000D+00  0.0000000000000D+00
406  4.0500000000000D+00  0.0000000000000D+00  0.0000000000000D+00
407  4.0600000000000D+00  0.0000000000000D+00  0.0000000000000D+00
408  4.0700000000000D+00  0.0000000000000D+00  0.0000000000000D+00
409  4.0800000000000D+00  0.0000000000000D+00  0.0000000000000D+00
410  4.0900000000000D+00  0.0000000000000D+00  0.0000000000000D+00
411  4.1000000000000D+00  0.0000000000000D+00  0.0000000000000D+00
412  4.1100000000000D+00  0.0000000000000D+00  0.0000000000000D+00
413  4.1200000000000D+00  0.0000000000000D+00  0.0000000000000D+00
414  4.1300000000000D+00  0.0000000000000D+00  0.0000000000000D+00
415  4.1400000000000D+00  0.0000000000000D+00  0.0000000000000D+00
416  4.1500000000000D+00  0.0000000000000D+00  0.0000000000000D+00
417  4.1600000000000D+00  0.0000000000000D+00  0.0000000000000D+00
418  4.1700000000000D+00  0.0000000000000D+00  0.0000000000000D+00
419  4.1800000000000D+00  0.0000000000000D+00  0.0000000000000D+00
420  4.1900000000000D+00  0.0000000000000D+00  0.0000000000000D+00
421  4.2000000000000D+00  0.0000000000000D+00  0.0000000000000D+00
422  4.2100000000000D+00  0.0000000000000D+00  0.0000000000000D+00
423  4.2200000000000D+00  0.0000000000000D+00  0.0000000000000D+00
424  4.2300000000000D+00  0.0000000000000D+00  0.0000000000000D+00
425  4.2400000000000D+00  0.0000000000000D+00  0.0000000000000D+00
426  4.2500000000000D+00  0.0000000000000D+00  0.0000000000000D+00
427  4.2600000000000D+00  0.0000000000000D+00  0.0000000000000D+00
428  4.2700000000000D+00  0.0000000000000D+00  0.0000000000000D+00
429  4.2800000000000D+00  0.0000000000000D+00  0.0000000000000D+00
430  4.2900000000000D+00  0.0000000000000D+00  0.0000000000000D+00
431  4.3000000000000D+00  0.0000000000000D+00  0.0000000000000D+00
432  4.3100000000000D+00  0.0000000000000D+00  0.0000000000000D+00
433  4.3200000000000D+00  0.0000000000000D+00  0.0000000000000D+00
434  4.3300000000000D+00  0.0000000000000D+00  0.0000000000000D+00
435  4.3400000000000D+00  0.0000000000000D+00  0.0000000000000D+00
436  4.3500000000000D+00  0.0000000000000D+00  0.0000000000000D+00
437  4.3600000000000D+00  0.0000000000000D+00  0.0000000000000D+00
438  4.3700000000000D+00  0.0000000000000D+00  0.0000000000000D+00
439  4.3800000000000D+00  0.0000000000000D+00  0.0000000000000D+00
440  4.3900000000000D+00  0.0000000000000D+00  0.0000000000000D+00
441  4.4000000000000D+00  0.0000000000000D+00  0.0000000000000D+00
442  4.4100000000000D+00  0.0000000000000D+00  0.0000000000000D+00
443  4.4200000000000D+00  0.0000000000000D+00  0.0000000000000D+00