In    ONCVPSP  r_core=  2.11  2.38  1.87
49.0000     13.0000      141211    zatom,zion,pspd
8    11     2     4   601     0    pspcod,pspxc,lmax,lloc,mmax,r2well
6.00000000  1.00000000  0.00000000    rchrg fchrg qchrg
2     2     2     0     0    nproj
0                 extension_switch
0                         1.2067157644043D+01  1.8154130745309D+00
1  0.0000000000000D+00  0.0000000000000D+00 -0.0000000000000D+00
2  1.0000000000000D-02  5.1337658495613D-02 -3.6584091288944D-02
3  2.0000000000000D-02  1.0243161430945D-01 -7.2907902937126D-02
4  3.0000000000000D-02  1.5303961119344D-01 -1.0871270807586D-01
5  4.0000000000000D-02  2.0292227739385D-01 -1.4374287631539D-01
6  5.0000000000000D-02  2.5184454701207D-01 -1.7774739937213D-01
7  6.0000000000000D-02  2.9957705643122D-01 -2.1048138970350D-01
8  7.0000000000000D-02  3.4589750771306D-01 -2.4170754338997D-01
9  8.0000000000000D-02  3.9059199105272D-01 -2.7119755870472D-01
10  9.0000000000000D-02  4.3345625859983D-01 -2.9873350205451D-01
11  1.0000000000000D-01  4.7429694224733D-01 -3.2410911329595D-01
12  1.1000000000000D-01  5.1293270825839D-01 -3.4713104272760D-01
13  1.2000000000000D-01  5.4919534200534D-01 -3.6762001250012D-01
14  1.3000000000000D-01  5.8293075641715D-01 -3.8541189554214D-01
15  1.4000000000000D-01  6.1399991829372D-01 -4.0035870571190D-01
16  1.5000000000000D-01  6.4227968683621D-01 -4.1232949310121D-01
17  1.6000000000000D-01  6.6766355965260D-01 -4.2121113940449D-01
18  1.7000000000000D-01  6.9006232141048D-01 -4.2690904818632D-01
19  1.8000000000000D-01  7.0940459162373D-01 -4.2934772630010D-01
20  1.9000000000000D-01  7.2563726821176D-01 -4.2847125288570D-01
21  2.0000000000000D-01  7.3872586321144D-01 -4.2424363211959D-01
22  2.1000000000000D-01  7.4865473005464D-01 -4.1664902913278D-01
23  2.2000000000000D-01  7.5542717919153D-01 -4.0569188573339D-01
24  2.3000000000000D-01  7.5906548256036D-01 -3.9139691653618D-01
25  2.4000000000000D-01  7.5961076554715D-01 -3.7380898416061D-01
26  2.5000000000000D-01  7.5712278772496D-01 -3.5299285496992D-01
27  2.6000000000000D-01  7.5167961268270D-01 -3.2903283580517D-01
28  2.7000000000000D-01  7.4337716881900D-01 -3.0203229385996D-01
29  2.8000000000000D-01  7.3232870383330D-01 -2.7211306277457D-01
30  2.9000000000000D-01  7.1866413518472D-01 -2.3941473748760D-01
31  3.0000000000000D-01  7.0252930012358D-01 -2.0409386189741D-01
32  3.1000000000000D-01  6.8408510935242D-01 -1.6632301383082D-01
33  3.2000000000000D-01  6.6350661014354D-01 -1.2628979374467D-01
34  3.3000000000000D-01  6.4098196741071D-01 -8.4195726449104D-02
35  3.4000000000000D-01  6.1671134333690D-01 -4.0255054991941D-02
36  3.5000000000000D-01  5.9090574944582D-01  5.3064932613524D-03
37  3.6000000000000D-01  5.6378575939768D-01  5.2253089035440D-02
38  3.7000000000000D-01  5.3558024264063D-01  1.0034015893541D-01
39  3.8000000000000D-01  5.0652498631945D-01  1.4931586171089D-01
40  3.9000000000000D-01  4.7686127978156D-01  1.9892260254427D-01
41  4.0000000000000D-01  4.4683449358523D-01  2.4889855108018D-01
42  4.1000000000000D-01  4.1669260128935D-01  2.9897921870552D-01
43  4.2000000000000D-01  3.8668468844417D-01  3.4889904718459D-01
44  4.3000000000000D-01  3.5705945040833D-01  3.9839300683291D-01
45  4.4000000000000D-01  3.2806368749741D-01  4.4719819501718D-01
46  4.5000000000000D-01  2.9994080613230D-01  4.9505542560716D-01
47  4.6000000000000D-01  2.7292933501515D-01  5.4171079963803D-01
48  4.7000000000000D-01  2.4726146594001D-01  5.8691724684598D-01
49  4.8000000000000D-01  2.2316164513547D-01  6.3043601047651D-01
50  4.9000000000000D-01  2.0084519390024D-01  6.7203809799164D-01
51  5.0000000000000D-01  1.8051686872206D-01  7.1150579248853D-01
52  5.1000000000000D-01  1.6236970017092D-01  7.4863386491263D-01
53  5.2000000000000D-01  1.4658387314740D-01  7.8323074014446D-01
54  5.3000000000000D-01  1.3332523111971D-01  8.1512005624342D-01
55  5.4000000000000D-01  1.2274461429198D-01  8.4414133886826D-01
56  5.5000000000000D-01  1.1497668523172D-01  8.7015121414236D-01
57  5.6000000000000D-01  1.1013899927158D-01  8.9302435790288D-01
58  5.7000000000000D-01  1.0833145481423D-01  9.1265404362042D-01
59  5.8000000000000D-01  1.0963528047492D-01  9.2895317040119D-01
60  5.9000000000000D-01  1.1411279552320D-01  9.4185447875372D-01
61  6.0000000000000D-01  1.2180672864392D-01  9.5131122269159D-01
62  6.1000000000000D-01  1.3273986267497D-01  9.5729749715741D-01
63  6.2000000000000D-01  1.4691515553273D-01  9.5980806990015D-01
64  6.3000000000000D-01  1.6431498350654D-01  9.5885911167230D-01
65  6.4000000000000D-01  1.8490174786026D-01  9.5448751884811D-01
66  6.5000000000000D-01  2.0861785458677D-01  9.4675087873990D-01
67  6.6000000000000D-01  2.3538563819923D-01  9.3572747762866D-01
68  6.7000000000000D-01  2.6510812173690D-01  9.2151545959269D-01
69  6.8000000000000D-01  2.9766940854577D-01  9.0423235581008D-01
70  6.9000000000000D-01  3.3293514394729D-01  8.8401452949812D-01
71  7.0000000000000D-01  3.7075328748662D-01  8.6101630605502D-01
72  7.1000000000000D-01  4.1095499371580D-01  8.3540899679746D-01
73  7.2000000000000D-01  4.5335548318192D-01  8.0737992259048D-01
74  7.3000000000000D-01  4.9775504560683D-01  7.7713130811959D-01
75  7.4000000000000D-01  5.4394013854146D-01  7.4487906390266D-01
76  7.5000000000000D-01  5.9168461691312D-01  7.1085144371656D-01
77  7.6000000000000D-01  6.4075097887762D-01  6.7528769669709D-01
78  7.7000000000000D-01  6.9089170262132D-01  6.3843661458833D-01
79  7.8000000000000D-01  7.4185064623880D-01  6.0055502117657D-01
80  7.9000000000000D-01  7.9336450205042D-01  5.6190620940581D-01
81  8.0000000000000D-01  8.4516429644609D-01  5.2275833604114D-01
82  8.1000000000000D-01  8.9697692609601D-01  4.8338278398165D-01
83  8.2000000000000D-01  9.4852672118484D-01  4.4405250249201D-01
84  8.3000000000000D-01  9.9953702619729D-01  4.0504033572795D-01
85  8.4000000000000D-01  1.0497317887058D+00  3.6661734998040D-01
86  8.5000000000000D-01  1.0988371465785D+00  3.2905117006231D-01
87  8.6000000000000D-01  1.1465830040336D+00  2.9260433521742D-01
88  8.7000000000000D-01  1.1927045870091D+00  2.5753268484447D-01
89  8.8000000000000D-01  1.2369439683939D+00  2.2408378420703D-01
90  8.9000000000000D-01  1.2790515537769D+00  1.9249540013685D-01
91  9.0000000000000D-01  1.3187875185147D+00  1.6299403653371D-01
92  9.1000000000000D-01  1.3559231871138D+00  1.3579353920823D-01
93  9.2000000000000D-01  1.3902423461659D+00  1.1109377929323D-01
94  9.3000000000000D-01  1.4215424823936D+00  8.9079424046143D-02
95  9.4000000000000D-01  1.4496359377768D+00  6.9918803356340D-02
96  9.5000000000000D-01  1.4743509742573D+00  5.3762879631892D-02
97  9.6000000000000D-01  1.4955327411889D+00  4.0744327940459D-02
98  9.7000000000000D-01  1.5130436275346D+00  3.0977256991319D-02
99  9.8000000000000D-01  1.5267653067694D+00  2.4555196533196D-02
100  9.9000000000000D-01  1.5365986925305D+00  2.1551260203893D-02
101  1.0000000000000D+00  1.5424642139596D+00  2.2017972846593D-02
102  1.0100000000000D+00  1.5443024393642D+00  2.5986751634039D-02
103  1.0200000000000D+00  1.5420743617676D+00  3.3467743122969D-02
104  1.0300000000000D+00  1.5357611981959D+00  4.4450149264421D-02
105  1.0400000000000D+00  1.5253648621873D+00  5.8901886048518D-02
106  1.0500000000000D+00  1.5109091668103D+00  7.6768588590598D-02
107  1.0600000000000D+00  1.4924375795512D+00  9.7975985168045D-02
108  1.0700000000000D+00  1.4700136267986D+00  1.2242966812087D-01
109  1.0800000000000D+00  1.4437200161057D+00  1.5001610157396D-01
110  1.0900000000000D+00  1.4136589978313D+00  1.8060247521957D-01
111  1.1000000000000D+00  1.3799523571901D+00  2.1403704609225D-01
112  1.1100000000000D+00  1.3427387772037D+00  2.5015179391290D-01
113  1.1200000000000D+00  1.3021735910818D+00  2.8876287151868D-01
114  1.1300000000000D+00  1.2584278469379D+00  3.2967161207071D-01
115  1.1400000000000D+00  1.2116888717808D+00  3.7266472762478D-01
116  1.1500000000000D+00  1.1621567448950D+00  4.1751748249056D-01
117  1.1600000000000D+00  1.1100439630589D+00  4.6399422360264D-01
118  1.1700000000000D+00  1.0555748028785D+00  5.1184933305106D-01
119  1.1800000000000D+00  9.9898337654563D-01  5.6082983980843D-01
120  1.1900000000000D+00  9.4051196705161D-01  6.1067657668571D-01
121  1.2000000000000D+00  8.8041097626106D-01  6.6112414434794D-01
122  1.2100000000000D+00  8.1893557407357D-01  7.1190576820233D-01
123  1.2200000000000D+00  7.5634486107539D-01  7.6275324318024D-01
124  1.2300000000000D+00  6.9290219963099D-01  8.1339640951531D-01
125  1.2400000000000D+00  6.2887129996220D-01  8.6356824075606D-01
126  1.2500000000000D+00  5.6451415847834D-01  9.1300680404117D-01
127  1.2600000000000D+00  5.0009382096922D-01  9.6145156231663D-01
128  1.2700000000000D+00  4.3586925853871D-01  1.0086497293814D+00
129  1.2800000000000D+00  3.7209198154652D-01  1.0543598593356D+00
130  1.2900000000000D+00  3.0901237232490D-01  1.0983440642129D+00
131  1.3000000000000D+00  2.4687099268763D-01  1.1403783495011D+00
132  1.3100000000000D+00  1.8589697854284D-01  1.1802539838613D+00
133  1.3200000000000D+00  1.2631730907610D-01  1.2177667070299D+00
134  1.3300000000000D+00  6.8340770331048D-02  1.2527350934574D+00
135  1.3400000000000D+00  1.2164629754056D-02  1.2849924245138D+00
136  1.3500000000000D+00 -4.2016596163850D-02  1.3143769895352D+00
137  1.3600000000000D+00 -9.4037698527282D-02  1.3407614741570D+00
138  1.3700000000000D+00 -1.4373704517480D-01  1.3640240318367D+00
139  1.3800000000000D+00 -1.9096876040792D-01  1.3840619092589D+00
140  1.3900000000000D+00 -2.3561117460927D-01  1.4008000666448D+00
141  1.4000000000000D+00 -2.7754438195843D-01  1.4141670260840D+00
142  1.4100000000000D+00 -3.1667985986040D-01  1.4241263371382D+00
143  1.4200000000000D+00 -3.5293733499029D-01  1.4306515805763D+00
144  1.4300000000000D+00 -3.8625204375701D-01  1.4337342890557D+00
145  1.4400000000000D+00 -4.1658616715536D-01  1.4333949963785D+00
146  1.4500000000000D+00 -4.4390199913044D-01  1.4296560853589D+00
147  1.4600000000000D+00 -4.6819721674482D-01  1.4225768468758D+00
148  1.4700000000000D+00 -4.8947132407758D-01  1.4122197369526D+00
149  1.4800000000000D+00 -5.0774677129135D-01  1.3986712530060D+00
150  1.4900000000000D+00 -5.2306116899257D-01  1.3820333977592D+00
151  1.5000000000000D+00 -5.3546108253957D-01  1.3624185687048D+00
152  1.5100000000000D+00 -5.4501792133920D-01  1.3399624910167D+00
153  1.5200000000000D+00 -5.5180231891286D-01  1.3148025610185D+00
154  1.5300000000000D+00 -5.5591257308876D-01  1.2871003171591D+00
155  1.5400000000000D+00 -5.5744592773941D-01  1.2570185524032D+00
156  1.5500000000000D+00 -5.5651926107520D-01  1.2247362450452D+00
157  1.5600000000000D+00 -5.5325326506783D-01  1.1904366537136D+00
158  1.5700000000000D+00 -5.4778084094410D-01  1.1543127778180D+00
159  1.5800000000000D+00 -5.4024037664435D-01  1.1165611800452D+00
160  1.5900000000000D+00 -5.3077803177970D-01  1.0773851876171D+00
161  1.6000000000000D+00 -5.1954390292595D-01  1.0369874320195D+00
162  1.6100000000000D+00 -5.0669429391577D-01  9.9557747176971D-01
163  1.6200000000000D+00 -4.9238513816850D-01  9.5335707765875D-01
164  1.6300000000000D+00 -4.7677938144508D-01  9.1053752750727D-01
165  1.6400000000000D+00 -4.6003329767082D-01  8.6731338390814D-01
166  1.6500000000000D+00 -4.4231262190815D-01  8.2389278598629D-01
167  1.6600000000000D+00 -4.2376903842807D-01  7.8045752271822D-01
168  1.6700000000000D+00 -4.0456695274160D-01  7.3720750604785D-01
169  1.6800000000000D+00 -3.8484923812565D-01  6.9430711629966D-01
170  1.6900000000000D+00 -3.6477467830248D-01  6.5194279697322D-01
171  1.7000000000000D+00 -3.4447396448486D-01  6.1025807691482D-01
172  1.7100000000000D+00 -3.2409581212324D-01  5.6942031826376D-01
173  1.7200000000000D+00 -3.0375661967638D-01  5.2955137801184D-01
174  1.7300000000000D+00 -2.8359103023369D-01  4.9079590667088D-01
175  1.7400000000000D+00 -2.6370005629361D-01  4.5325416372464D-01
176  1.7500000000000D+00 -2.4420082681940D-01  4.1704571555020D-01
177  1.7600000000000D+00 -2.2517851339862D-01  3.8224900910556D-01
178  1.7700000000000D+00 -2.0672948102541D-01  3.4895523142011D-01
179  1.7800000000000D+00 -1.8892338495615D-01  3.1722183675491D-01
180  1.7900000000000D+00 -1.7183324192739D-01  2.8710917637136D-01
181  1.8000000000000D+00 -1.5551403520004D-01  2.5865508972849D-01
182  1.8100000000000D+00 -1.4001382953633D-01  2.3188793829183D-01
183  1.8200000000000D+00 -1.2537396733201D-01  2.0682744908187D-01
184  1.8300000000000D+00 -1.1161726343591D-01  1.8347051533438D-01
185  1.8400000000000D+00 -9.8772257087930D-02  1.6181992305497D-01
186  1.8500000000000D+00 -8.6837823976325D-02  1.4184363032162D-01
187  1.8600000000000D+00 -7.5829993327012D-02  1.2352792700129D-01
188  1.8700000000000D+00 -6.5728453316283D-02  1.0681825190691D-01
189  1.8800000000000D+00 -5.6531313201273D-02  9.1678801212785D-02
190  1.8900000000000D+00 -4.8208845074675D-02  7.8043969205430D-02
191  1.9000000000000D+00 -4.0738476374982D-02  6.5854047444043D-02
192  1.9100000000000D+00 -3.4085525212751D-02  5.5037198781731D-02
193  1.9200000000000D+00 -2.8210299564936D-02  4.5515422868977D-02
194  1.9300000000000D+00 -2.3072913194284D-02  3.7210051353948D-02
195  1.9400000000000D+00 -1.8623176098363D-02  3.0033920396419D-02
196  1.9500000000000D+00 -1.4814436685113D-02  2.3899426803706D-02
197  1.9600000000000D+00 -1.1593387120847D-02  1.8718996375189D-02
198  1.9700000000000D+00 -8.9060250032449D-03  1.4398590706291D-02
199  1.9800000000000D+00 -6.6999287191720D-03  1.0852040202548D-02
200  1.9900000000000D+00 -4.9200262116112D-03  7.9889658053664D-03
201  2.0000000000000D+00 -3.5119913201633D-03  5.7201856456925D-03
202  2.0100000000000D+00 -2.4284177532653D-03  3.9706362352000D-03
203  2.0200000000000D+00 -1.6106171665544D-03  2.6452438748751D-03
204  2.0300000000000D+00 -1.0213112571339D-03  1.6856553031359D-03
205  2.0400000000000D+00 -6.0996941035622D-04  1.0116360602072D-03
206  2.0500000000000D+00 -3.3867313314906D-04  5.6314559552538D-04
207  2.0600000000000D+00 -1.7618954966423D-04  2.9095424998958D-04
208  2.0700000000000D+00 -7.9774700423352D-05  1.2771421649114D-04
209  2.0800000000000D+00 -3.7949121986225D-05  5.4497159902613D-05
210  2.0900000000000D+00 -1.9843555056189D-05  2.2057611016825D-05
211  2.1000000000000D+00 -1.4721491183321D-05  1.2931267203330D-05
212  2.1100000000000D+00 -1.6065835152544D-05  1.6419121498416D-05
213  2.1200000000000D+00 -8.5381517943473D-06  8.1380547358719D-06
214  2.1300000000000D+00 -1.9951805798925D-06  1.7947721186932D-06
215  2.1400000000000D+00  9.5832237341637D-07 -9.9071438211548D-07
216  2.1500000000000D+00  9.5522622794758D-07 -9.8751358462797D-07
217  2.1600000000000D+00  0.0000000000000D+00  0.0000000000000D+00
218  2.1700000000000D+00  0.0000000000000D+00  0.0000000000000D+00
219  2.1800000000000D+00  0.0000000000000D+00  0.0000000000000D+00
220  2.1900000000000D+00  0.0000000000000D+00  0.0000000000000D+00
221  2.2000000000000D+00  0.0000000000000D+00  0.0000000000000D+00
222  2.2100000000000D+00  0.0000000000000D+00  0.0000000000000D+00
223  2.2200000000000D+00  0.0000000000000D+00  0.0000000000000D+00
224  2.2300000000000D+00  0.0000000000000D+00  0.0000000000000D+00
225  2.2400000000000D+00  0.0000000000000D+00  0.0000000000000D+00
226  2.2500000000000D+00  0.0000000000000D+00  0.0000000000000D+00
227  2.2600000000000D+00  0.0000000000000D+00  0.0000000000000D+00
228  2.2700000000000D+00  0.0000000000000D+00  0.0000000000000D+00
229  2.2800000000000D+00  0.0000000000000D+00  0.0000000000000D+00
230  2.2900000000000D+00  0.0000000000000D+00  0.0000000000000D+00
231  2.3000000000000D+00  0.0000000000000D+00  0.0000000000000D+00
232  2.3100000000000D+00  0.0000000000000D+00  0.0000000000000D+00
233  2.3200000000000D+00  0.0000000000000D+00  0.0000000000000D+00
234  2.3300000000000D+00  0.0000000000000D+00  0.0000000000000D+00
235  2.3400000000000D+00  0.0000000000000D+00  0.0000000000000D+00
236  2.3500000000000D+00  0.0000000000000D+00  0.0000000000000D+00
237  2.3600000000000D+00  0.0000000000000D+00  0.0000000000000D+00
238  2.3700000000000D+00  0.0000000000000D+00  0.0000000000000D+00
239  2.3800000000000D+00  0.0000000000000D+00  0.0000000000000D+00
240  2.3900000000000D+00  0.0000000000000D+00  0.0000000000000D+00
241  2.4000000000000D+00  0.0000000000000D+00  0.0000000000000D+00
242  2.4100000000000D+00  0.0000000000000D+00  0.0000000000000D+00
243  2.4200000000000D+00  0.0000000000000D+00  0.0000000000000D+00
244  2.4300000000000D+00  0.0000000000000D+00  0.0000000000000D+00
245  2.4400000000000D+00  0.0000000000000D+00  0.0000000000000D+00
246  2.4500000000000D+00  0.0000000000000D+00  0.0000000000000D+00
247  2.4600000000000D+00  0.0000000000000D+00  0.0000000000000D+00
248  2.4700000000000D+00  0.0000000000000D+00  0.0000000000000D+00
249  2.4800000000000D+00  0.0000000000000D+00  0.0000000000000D+00
250  2.4900000000000D+00  0.0000000000000D+00  0.0000000000000D+00
251  2.5000000000000D+00  0.0000000000000D+00  0.0000000000000D+00
252  2.5100000000000D+00  0.0000000000000D+00  0.0000000000000D+00
253  2.5200000000000D+00  0.0000000000000D+00  0.0000000000000D+00
254  2.5300000000000D+00  0.0000000000000D+00  0.0000000000000D+00
255  2.5400000000000D+00  0.0000000000000D+00  0.0000000000000D+00
256  2.5500000000000D+00  0.0000000000000D+00  0.0000000000000D+00
257  2.5600000000000D+00  0.0000000000000D+00  0.0000000000000D+00
258  2.5700000000000D+00  0.0000000000000D+00  0.0000000000000D+00
259  2.5800000000000D+00  0.0000000000000D+00  0.0000000000000D+00
260  2.5900000000000D+00  0.0000000000000D+00  0.0000000000000D+00
261  2.6000000000000D+00  0.0000000000000D+00  0.0000000000000D+00
262  2.6100000000000D+00  0.0000000000000D+00  0.0000000000000D+00
263  2.6200000000000D+00  0.0000000000000D+00  0.0000000000000D+00
264  2.6300000000000D+00  0.0000000000000D+00  0.0000000000000D+00
265  2.6400000000000D+00  0.0000000000000D+00  0.0000000000000D+00
266  2.6500000000000D+00  0.0000000000000D+00  0.0000000000000D+00
267  2.6600000000000D+00  0.0000000000000D+00  0.0000000000000D+00
268  2.6700000000000D+00  0.0000000000000D+00  0.0000000000000D+00
269  2.6800000000000D+00  0.0000000000000D+00  0.0000000000000D+00
270  2.6900000000000D+00  0.0000000000000D+00  0.0000000000000D+00
271  2.7000000000000D+00  0.0000000000000D+00  0.0000000000000D+00
272  2.7100000000000D+00  0.0000000000000D+00  0.0000000000000D+00
273  2.7200000000000D+00  0.0000000000000D+00  0.0000000000000D+00
274  2.7300000000000D+00  0.0000000000000D+00  0.0000000000000D+00
275  2.7400000000000D+00  0.0000000000000D+00  0.0000000000000D+00
276  2.7500000000000D+00  0.0000000000000D+00  0.0000000000000D+00
277  2.7600000000000D+00  0.0000000000000D+00  0.0000000000000D+00
278  2.7700000000000D+00  0.0000000000000D+00  0.0000000000000D+00
279  2.7800000000000D+00  0.0000000000000D+00  0.0000000000000D+00
280  2.7900000000000D+00  0.0000000000000D+00  0.0000000000000D+00
281  2.8000000000000D+00  0.0000000000000D+00  0.0000000000000D+00
282  2.8100000000000D+00  0.0000000000000D+00  0.0000000000000D+00
283  2.8200000000000D+00  0.0000000000000D+00  0.0000000000000D+00
284  2.8300000000000D+00  0.0000000000000D+00  0.0000000000000D+00
285  2.8400000000000D+00  0.0000000000000D+00  0.0000000000000D+00
286  2.8500000000000D+00  0.0000000000000D+00  0.0000000000000D+00
287  2.8600000000000D+00  0.0000000000000D+00  0.0000000000000D+00
288  2.8700000000000D+00  0.0000000000000D+00  0.0000000000000D+00
289  2.8800000000000D+00  0.0000000000000D+00  0.0000000000000D+00
290  2.8900000000000D+00  0.0000000000000D+00  0.0000000000000D+00
291  2.9000000000000D+00  0.0000000000000D+00  0.0000000000000D+00
292  2.9100000000000D+00  0.0000000000000D+00  0.0000000000000D+00
293  2.9200000000000D+00  0.0000000000000D+00  0.0000000000000D+00
294  2.9300000000000D+00  0.0000000000000D+00  0.0000000000000D+00
295  2.9400000000000D+00  0.0000000000000D+00  0.0000000000000D+00
296  2.9500000000000D+00  0.0000000000000D+00  0.0000000000000D+00
297  2.9600000000000D+00  0.0000000000000D+00  0.0000000000000D+00
298  2.9700000000000D+00  0.0000000000000D+00  0.0000000000000D+00
299  2.9800000000000D+00  0.0000000000000D+00  0.0000000000000D+00
300  2.9900000000000D+00  0.0000000000000D+00  0.0000000000000D+00
301  3.0000000000000D+00  0.0000000000000D+00  0.0000000000000D+00
302  3.0100000000000D+00  0.0000000000000D+00  0.0000000000000D+00
303  3.0200000000000D+00  0.0000000000000D+00  0.0000000000000D+00
304  3.0300000000000D+00  0.0000000000000D+00  0.0000000000000D+00
305  3.0400000000000D+00  0.0000000000000D+00  0.0000000000000D+00
306  3.0500000000000D+00  0.0000000000000D+00  0.0000000000000D+00
307  3.0600000000000D+00  0.0000000000000D+00  0.0000000000000D+00
308  3.0700000000000D+00  0.0000000000000D+00  0.0000000000000D+00
309  3.0800000000000D+00  0.0000000000000D+00  0.0000000000000D+00
310  3.0900000000000D+00  0.0000000000000D+00  0.0000000000000D+00
311  3.1000000000000D+00  0.0000000000000D+00  0.0000000000000D+00
312  3.1100000000000D+00  0.0000000000000D+00  0.0000000000000D+00
313  3.1200000000000D+00  0.0000000000000D+00  0.0000000000000D+00
314  3.1300000000000D+00  0.0000000000000D+00  0.0000000000000D+00
315  3.1400000000000D+00  0.0000000000000D+00  0.0000000000000D+00
316  3.1500000000000D+00  0.0000000000000D+00  0.0000000000000D+00
317  3.1600000000000D+00  0.0000000000000D+00  0.0000000000000D+00
318  3.1700000000000D+00  0.0000000000000D+00  0.0000000000000D+00
319  3.1800000000000D+00  0.0000000000000D+00  0.0000000000000D+00
320  3.1900000000000D+00  0.0000000000000D+00  0.0000000000000D+00
321  3.2000000000000D+00  0.0000000000000D+00  0.0000000000000D+00
322  3.2100000000000D+00  0.0000000000000D+00  0.0000000000000D+00
323  3.2200000000000D+00  0.0000000000000D+00  0.0000000000000D+00
324  3.2300000000000D+00  0.0000000000000D+00  0.0000000000000D+00
325  3.2400000000000D+00  0.0000000000000D+00  0.0000000000000D+00
326  3.2500000000000D+00  0.0000000000000D+00  0.0000000000000D+00
327  3.2600000000000D+00  0.0000000000000D+00  0.0000000000000D+00
328  3.2700000000000D+00  0.0000000000000D+00  0.0000000000000D+00
329  3.2800000000000D+00  0.0000000000000D+00  0.0000000000000D+00
330  3.2900000000000D+00  0.0000000000000D+00  0.0000000000000D+00
331  3.3000000000000D+00  0.0000000000000D+00  0.0000000000000D+00
332  3.3100000000000D+00  0.0000000000000D+00  0.0000000000000D+00
333  3.3200000000000D+00  0.0000000000000D+00  0.0000000000000D+00
334  3.3300000000000D+00  0.0000000000000D+00  0.0000000000000D+00
335  3.3400000000000D+00  0.0000000000000D+00  0.0000000000000D+00
336  3.3500000000000D+00  0.0000000000000D+00  0.0000000000000D+00
337  3.3600000000000D+00  0.0000000000000D+00  0.0000000000000D+00
338  3.3700000000000D+00  0.0000000000000D+00  0.0000000000000D+00
339  3.3800000000000D+00  0.0000000000000D+00  0.0000000000000D+00
340  3.3900000000000D+00  0.0000000000000D+00  0.0000000000000D+00
341  3.4000000000000D+00  0.0000000000000D+00  0.0000000000000D+00
342  3.4100000000000D+00  0.0000000000000D+00  0.0000000000000D+00
343  3.4200000000000D+00  0.0000000000000D+00  0.0000000000000D+00
344  3.4300000000000D+00  0.0000000000000D+00  0.0000000000000D+00
345  3.4400000000000D+00  0.0000000000000D+00  0.0000000000000D+00
346  3.4500000000000D+00  0.0000000000000D+00  0.0000000000000D+00
347  3.4600000000000D+00  0.0000000000000D+00  0.0000000000000D+00
348  3.4700000000000D+00  0.0000000000000D+00  0.0000000000000D+00
349  3.4800000000000D+00  0.0000000000000D+00  0.0000000000000D+00
350  3.4900000000000D+00  0.0000000000000D+00  0.0000000000000D+00
351  3.5000000000000D+00  0.0000000000000D+00  0.0000000000000D+00
352  3.5100000000000D+00  0.0000000000000D+00  0.0000000000000D+00
353  3.5200000000000D+00  0.0000000000000D+00  0.0000000000000D+00
354  3.5300000000000D+00  0.0000000000000D+00  0.0000000000000D+00
355  3.5400000000000D+00  0.0000000000000D+00  0.0000000000000D+00
356  3.5500000000000D+00  0.0000000000000D+00  0.0000000000000D+00
357  3.5600000000000D+00  0.0000000000000D+00  0.0000000000000D+00
358  3.5700000000000D+00  0.0000000000000D+00  0.0000000000000D+00
359  3.5800000000000D+00  0.0000000000000D+00  0.0000000000000D+00
360  3.5900000000000D+00  0.0000000000000D+00  0.0000000000000D+00
361  3.6000000000000D+00  0.0000000000000D+00  0.0000000000000D+00
362  3.6100000000000D+00  0.0000000000000D+00  0.0000000000000D+00
363  3.6200000000000D+00  0.0000000000000D+00  0.0000000000000D+00
364  3.6300000000000D+00  0.0000000000000D+00  0.0000000000000D+00
365  3.6400000000000D+00  0.0000000000000D+00  0.0000000000000D+00
366  3.6500000000000D+00  0.0000000000000D+00  0.0000000000000D+00
367  3.6600000000000D+00  0.0000000000000D+00  0.0000000000000D+00
368  3.6700000000000D+00  0.0000000000000D+00  0.0000000000000D+00
369  3.6800000000000D+00  0.0000000000000D+00  0.0000000000000D+00
370  3.6900000000000D+00  0.0000000000000D+00  0.0000000000000D+00
371  3.7000000000000D+00  0.0000000000000D+00  0.0000000000000D+00
372  3.7100000000000D+00  0.0000000000000D+00  0.0000000000000D+00
373  3.7200000000000D+00  0.0000000000000D+00  0.0000000000000D+00
374  3.7300000000000D+00  0.0000000000000D+00  0.0000000000000D+00
375  3.7400000000000D+00  0.0000000000000D+00  0.0000000000000D+00
376  3.7500000000000D+00  0.0000000000000D+00  0.0000000000000D+00
377  3.7600000000000D+00  0.0000000000000D+00  0.0000000000000D+00
378  3.7700000000000D+00  0.0000000000000D+00  0.0000000000000D+00
379  3.7800000000000D+00  0.0000000000000D+00  0.0000000000000D+00
380  3.7900000000000D+00  0.0000000000000D+00  0.0000000000000D+00
381  3.8000000000000D+00  0.0000000000000D+00  0.0000000000000D+00
382  3.8100000000000D+00  0.0000000000000D+00  0.0000000000000D+00
383  3.8200000000000D+00  0.0000000000000D+00  0.0000000000000D+00
384  3.8300000000000D+00  0.0000000000000D+00  0.0000000000000D+00
385  3.8400000000000D+00  0.0000000000000D+00  0.0000000000000D+00
386  3.8500000000000D+00  0.0000000000000D+00  0.0000000000000D+00
387  3.8600000000000D+00  0.0000000000000D+00  0.0000000000000D+00
388  3.8700000000000D+00  0.0000000000000D+00  0.0000000000000D+00
389  3.8800000000000D+00  0.0000000000000D+00  0.0000000000000D+00
390  3.8900000000000D+00  0.0000000000000D+00  0.0000000000000D+00
391  3.9000000000000D+00  0.0000000000000D+00  0.0000000000000D+00
392  3.9100000000000D+00  0.0000000000000D+00  0.0000000000000D+00
393  3.9200000000000D+00  0.0000000000000D+00  0.0000000000000D+00
394  3.9300000000000D+00  0.0000000000000D+00  0.0000000000000D+00
395  3.9400000000000D+00  0.0000000000000D+00  0.0000000000000D+00
396  3.9500000000000D+00  0.0000000000000D+00  0.0000000000000D+00
397  3.9600000000000D+00  0.0000000000000D+00  0.0000000000000D+00
398  3.9700000000000D+00  0.0000000000000D+00  0.0000000000000D+00
399  3.9800000000000D+00  0.0000000000000D+00  0.0000000000000D+00
400  3.9900000000000D+00  0.0000000000000D+00  0.0000000000000D+00
401  4.0000000000000D+00  0.0000000000000D+00  0.0000000000000D+00
402  4.0100000000000D+00  0.0000000000000D+00  0.0000000000000D+00
403  4.0200000000000D+00  0.0000000000000D+00  0.0000000000000D+00
404  4.0300000000000D+00  0.0000000000000D+00  0.0000000000000D+00
405  4.0400000000000D+00  0.0000000000000D+00  0.0000000000000D+00
406  4.0500000000000D+00  0.0000000000000D+00  0.0000000000000D+00
407  4.0600000000000D+00  0.0000000000000D+00  0.0000000000000D+00
408  4.0700000000000D+00  0.0000000000000D+00  0.0000000000000D+00
409  4.0800000000000D+00  0.0000000000000D+00  0.0000000000000D+00
410  4.0900000000000D+00  0.0000000000000D+00  0.0000000000000D+00
411  4.1000000000000D+00  0.0000000000000D+00  0.0000000000000D+00
412  4.1100000000000D+00  0.0000000000000D+00  0.0000000000000D+00
413  4.1200000000000D+00  0.0000000000000D+00  0.0000000000000D+00
414  4.1300000000000D+00  0.0000000000000D+00  0.0000000000000D+00
415  4.1400000000000D+00  0.0000000000000D+00  0.0000000000000D+00
416  4.1500000000000D+00  0.0000000000000D+00  0.0000000000000D+00
417  4.1600000000000D+00  0.0000000000000D+00  0.0000000000000D+00
418  4.1700000000000D+00  0.0000000000000D+00  0.0000000000000D+00
419  4.1800000000000D+00  0.0000000000000D+00  0.0000000000000D+00
420  4.1900000000000D+00  0.0000000000000D+00  0.0000000000000D+00
421  4.2000000000000D+00  0.0000000000000D+00  0.0000000000000D+00
422  4.2100000000000D+00  0.0000000000000D+00  0.0000000000000D+00
423  4.2200000000000D+00  0.0000000000000D+00  0.0000000000000D+00
424  4.2300000000000D+00  0.0000000000000D+00  0.0000000000000D+00
425  4.2400000000000D+00  0.0000000000000D+00  0.0000000000000D+00
426  4.2500000000000D+00  0.0000000000000D+00  0.0000000000000D+00
427  4.2600000000000D+00  0.0000000000000D+00  0.0000000000000D+00
428  4.2700000000000D+00  0.0000000000000D+00  0.0000000000000D+00
429  4.2800000000000D+00  0.0000000000000D+00  0.0000000000000D+00
430  4.2900000000000D+00  0.0000000000000D+00  0.0000000000000D+00
431  4.3000000000000D+00  0.0000000000000D+00  0.0000000000000D+00
432  4.3100000000000D+00  0.0000000000000D+00  0.0000000000000D+00
433  4.3200000000000D+00  0.0000000000000D+00  0.0000000000000D+00
434  4.3300000000000D+00  0.0000000000000D+00  0.0000000000000D+00
435  4.3400000000000D+00  0.0000000000000D+00  0.0000000000000D+00
436  4.3500000000000D+00  0.0000000000000D+00  0.0000000000000D+00
437  4.3600000000000D+00  0.0000000000000D+00  0.0000000000000D+00
438  4.3700000000000D+00  0.0000000000000D+00  0.0000000000000D+00
439  4.3800000000000D+00  0.0000000000000D+00  0.0000000000000D+00
440  4.3900000000000D+00  0.0000000000000D+00  0.0000000000000D+00
441  4.4000000000000D+00  0.0000000000000D+00  0.0000000000000D+00
442  4.4100000000000D+00  0.0000000000000D+00  0.0000000000000D+00
443  4.4200000000000D+00  0.0000000000000D+00  0.0000000000000D+00
444  4.4300000000000D+00  0.0000000000000D+00  0.0000000000000D+00