Os    ONCVPSP-3.3.0  r_core=   1.51352   1.55006   1.55006   2.27051
76.0000     16.0000      180112    zatom,zion,pspd
8 -116133   3     4   600     0    pspcod,pspxc,lmax,lloc,mmax,r2well
5.99000000  5.00000000  0.00000000    rchrg fchrg qchrg
2     2     2     2     0    nproj
1     1           extension_switch
0                         7.9949885143167D+00 -1.2460739081262D+00
1  0.0000000000000D+00  2.7976398975227D-10  2.4651907182260D-09
2  1.0000000000000D-02  5.7033267545234D-02 -6.6820118610087D-02
3  2.0000000000000D-02  1.1400002689308D-01 -1.3323219576618D-01
4  3.0000000000000D-02  1.7083356176760D-01 -1.9883198096142D-01
5  4.0000000000000D-02  2.2746674479561D-01 -2.6322275819605D-01
6  5.0000000000000D-02  2.8383184453529D-01 -3.2601899540004D-01
7  6.0000000000000D-02  3.3986034739618D-01 -3.8684985423465D-01
8  7.0000000000000D-02  3.9548279908123D-01 -4.4536251666692D-01
9  8.0000000000000D-02  4.5062866990203D-01 -5.0122528717637D-01
10  9.0000000000000D-02  5.0522624797552D-01 -5.5413043247300D-01
11  1.0000000000000D-01  5.5920256390929D-01 -6.0379672413916D-01
12  1.1000000000000D-01  6.1248335012794D-01 -6.4997165360973D-01
13  1.2000000000000D-01  6.6499303749151D-01 -6.9243329331957D-01
14  1.3000000000000D-01  7.1665479131436D-01 -7.3099178261872D-01
15  1.4000000000000D-01  7.6739058831733D-01 -7.6549042211703D-01
16  1.5000000000000D-01  8.1712133544418D-01 -7.9580636540654D-01
17  1.6000000000000D-01  8.6576703085407D-01 -8.2185090254817D-01
18  1.7000000000000D-01  9.1324696677229D-01 -8.4356933522857D-01
19  1.8000000000000D-01  9.5947997325188D-01 -8.6094044901642D-01
20  1.9000000000000D-01  1.0043847012750D+00 -8.7397559360274D-01
21  2.0000000000000D-01  1.0478799430162D+00 -8.8271738722089D-01
22  2.1000000000000D-01  1.0898849865059D+00 -8.8723806653759D-01
23  2.2000000000000D-01  1.1303200013806D+00 -8.8763750811597D-01
24  2.3000000000000D-01  1.1691064518956D+00 -8.8404095200962D-01
25  2.4000000000000D-01  1.2061675329070D+00 -8.7659646209024D-01
26  2.5000000000000D-01  1.2414286241224D+00 -8.6547216128450D-01
27  2.6000000000000D-01  1.2748177575600D+00 -8.5085328294741D-01
28  2.7000000000000D-01  1.3062660928723D+00 -8.3293908208581D-01
29  2.8000000000000D-01  1.3357083949636D+00 -8.1193965202948D-01
30  2.9000000000000D-01  1.3630835081871D+00 -7.8807269340109D-01
31  3.0000000000000D-01  1.3883348213279D+00 -7.6156028283846D-01
32  3.1000000000000D-01  1.4114107175818D+00 -7.3262568886124D-01
33  3.2000000000000D-01  1.4322650038171D+00 -7.0149028154809D-01
34  3.3000000000000D-01  1.4508573135616D+00 -6.6837058130290D-01
35  3.4000000000000D-01  1.4671534783835D+00 -6.3347548995722D-01
36  3.5000000000000D-01  1.4811258626393D+00 -5.9700374480302D-01
37  3.6000000000000D-01  1.4927536569311D+00 -5.5914163290782D-01
38  3.7000000000000D-01  1.5020231260495D+00 -5.2006099927477D-01
39  3.8000000000000D-01  1.5089278076761D+00 -4.7991757812012D-01
40  3.9000000000000D-01  1.5134686586661D+00 -4.3884967180682D-01
41  4.0000000000000D-01  1.5156541463282D+00 -3.9697719685727D-01
42  4.1000000000000D-01  1.5155002827541D+00 -3.5440111103762D-01
43  4.2000000000000D-01  1.5130306009145D+00 -3.1120322983581D-01
44  4.3000000000000D-01  1.5082760719332D+00 -2.6744643481808D-01
45  4.4000000000000D-01  1.5012749636471D+00 -2.2317527042923D-01
46  4.5000000000000D-01  1.4920726412779D+00 -1.7841691987771D-01
47  4.6000000000000D-01  1.4807213117381D+00 -1.3318254490219D-01
48  4.7000000000000D-01  1.4672797137903D+00 -8.7468968534980D-02
49  4.8000000000000D-01  1.4518127569467D+00 -4.1260674537862D-02
50  4.9000000000000D-01  1.4343911126307D+00  5.4679079306980D-03
51  5.0000000000000D-01  1.4150907617240D+00  5.2749870577253D-02
52  5.1000000000000D-01  1.3939925031657D+00  1.0062308357842D-01
53  5.2000000000000D-01  1.3711814287682D+00  1.4912728866132D-01
54  5.3000000000000D-01  1.3467463698409D+00  1.9830107492079D-01
55  5.4000000000000D-01  1.3207793215743D+00  2.4817878712024D-01
56  5.5000000000000D-01  1.2933748514244D+00  2.9878741802333D-01
57  5.6000000000000D-01  1.2646294979446D+00  3.5014353738423D-01
58  5.7000000000000D-01  1.2346411666363D+00  4.0225031056000D-01
59  5.8000000000000D-01  1.2035085294328D+00  4.5509465928742D-01
60  5.9000000000000D-01  1.1713304343846D+00  5.0864461597573D-01
61  6.0000000000000D-01  1.1382053319852D+00  5.6284692092850D-01
62  6.1000000000000D-01  1.1042307243596D+00  6.1762490920885D-01
63  6.2000000000000D-01  1.0695026432432D+00  6.7287673047894D-01
64  6.3000000000000D-01  1.0341151622979D+00  7.2847394103977D-01
65  6.4000000000000D-01  9.9815994886442D-01  7.8426050260527D-01
66  6.5000000000000D-01  9.6172585972807D-01  8.4005221704881D-01
67  6.6000000000000D-01  9.2489858488823D-01  8.9563662054992D-01
68  6.7000000000000D-01  8.8776034268744D-01  9.5077335434812D-01
69  6.8000000000000D-01  8.5038962896578D-01  1.0051950227040D+00
70  6.9000000000000D-01  8.1286102218124D-01  1.0586085417920D+00
71  7.0000000000000D-01  7.7524504568198D-01  1.1106969761966D+00
72  7.1000000000000D-01  7.3760808754428D-01  1.1611218525552D+00
73  7.2000000000000D-01  7.0001237760491D-01  1.2095259327424D+00
74  7.3000000000000D-01  6.6251602053609D-01  1.2555364219667D+00
75  7.4000000000000D-01  6.2517308304307D-01  1.2987685803411D+00
76  7.5000000000000D-01  5.8803373251705D-01  1.3388296999668D+00
77  7.6000000000000D-01  5.5114442376288D-01  1.3753234034510D+00
78  7.7000000000000D-01  5.1454812975277D-01  1.4078542141677D+00
79  7.8000000000000D-01  4.7828461173636D-01  1.4360323434925D+00
80  7.9000000000000D-01  4.4239072348393D-01  1.4594786358621D+00
81  8.0000000000000D-01  4.0690074395188D-01  1.4778296088274D+00
82  8.1000000000000D-01  3.7184673225030D-01  1.4907425223839D+00
83  8.2000000000000D-01  3.3725889846547D-01  1.4979004098116D+00
84  8.3000000000000D-01  3.0316598365257D-01  1.4990170010966D+00
85  8.4000000000000D-01  2.6959564216800D-01  1.4938414697530D+00
86  8.5000000000000D-01  2.3657481946042D-01  1.4821629345418D+00
87  8.6000000000000D-01  2.0413011848689D-01  1.4638146492102D+00
88  8.7000000000000D-01  1.7228814806414D-01  1.4386778159202D+00
89  8.8000000000000D-01  1.4107584670558D-01  1.4066849615110D+00
90  8.9000000000000D-01  1.1052077582905D-01  1.3678228200870D+00
91  9.0000000000000D-01  8.0651376644568D-02  1.3221346706170D+00
92  9.1000000000000D-01  5.1497185541368D-02  1.2697220842082D+00
93  9.2000000000000D-01  2.3089003382509D-02  1.2107460424112D+00
94  9.3000000000000D-01 -4.5409852239817D-03  1.1454273952493D+00
95  9.4000000000000D-01 -3.1359145884057D-02  1.0740466355514D+00
96  9.5000000000000D-01 -5.7330384035632D-02  9.9694297450512D-01
97  9.6000000000000D-01 -8.2418191829242D-02  9.1451271207612D-01
98  9.7000000000000D-01 -1.0658475302157D-01  8.2720690485635D-01
99  9.8000000000000D-01 -1.2979110576204D-01  7.3552834290378D-01
100  9.9000000000000D-01 -1.5199736224926D-01  6.4002785638385D-01
101  1.0000000000000D+00 -1.7316298336472D-01  5.4129998164121D-01
102  1.0100000000000D+00 -1.9324710551468D-01  4.3997802513716D-01
103  1.0200000000000D+00 -2.1220891607123D-01  3.3672857205268D-01
104  1.0300000000000D+00 -2.3000807299029D-01  2.3224549437296D-01
105  1.0400000000000D+00 -2.4660516344721D-01  1.2724352045466D-01
106  1.0500000000000D+00 -2.6196219563135D-01  2.2451434826824D-02
107  1.0600000000000D+00 -2.7604311720550D-01 -8.1395017000866D-02
108  1.0700000000000D+00 -2.8881435341780D-01 -1.8356043912399D-01
109  1.0800000000000D+00 -3.0024535738945D-01 -2.8331722741344D-01
110  1.0900000000000D+00 -3.1030916476122D-01 -3.7995305652437D-01
111  1.1000000000000D+00 -3.1898294462163D-01 -4.7277832286838D-01
112  1.1100000000000D+00 -3.2624853849045D-01 -5.6113345377532D-01
113  1.1200000000000D+00 -3.3209297910667D-01 -6.4439599333321D-01
114  1.1300000000000D+00 -3.3650898088717D-01 -7.2198737722124D-01
115  1.1400000000000D+00 -3.3949539402261D-01 -7.9337931028937D-01
116  1.1500000000000D+00 -3.4105761457926D-01 -8.5809966545625D-01
117  1.1600000000000D+00 -3.4120794333078D-01 -9.1573782650940D-01
118  1.1700000000000D+00 -3.3996588667064D-01 -9.6594940435808D-01
119  1.1800000000000D+00 -3.3735839331848D-01 -1.0084602603118D+00
120  1.1900000000000D+00 -3.3342002155172D-01 -1.0430697809589D+00
121  1.2000000000000D+00 -3.2819303237804D-01 -1.0696533564735D+00
122  1.2100000000000D+00 -3.2172740482150D-01 -1.0881640222401D+00
123  1.2200000000000D+00 -3.1408077048531D-01 -1.0986332341600D+00
124  1.2300000000000D+00 -3.0531826571060D-01 -1.1011707600798D+00
125  1.2400000000000D+00 -2.9551230055822D-01 -1.0959636792328D+00
126  1.2500000000000D+00 -2.8474224454762D-01 -1.0832744889856D+00
127  1.2600000000000D+00 -2.7309403084165D-01 -1.0634383363301D+00
128  1.2700000000000D+00 -2.6065968129396D-01 -1.0368593990248D+00
129  1.2800000000000D+00 -2.4753675526704D-01 -1.0040064464055D+00
130  1.2900000000000D+00 -2.3382772726156D-01 -9.6540763176948D-01
131  1.3000000000000D+00 -2.1963929868368D-01 -9.2164457110028D-01
132  1.3100000000000D+00 -2.0508164960671D-01 -8.7334576838887D-01
133  1.3200000000000D+00 -1.9026763841230D-01 -8.2117946845441D-01
134  1.3300000000000D+00 -1.7531195693141D-01 -7.6584601544102D-01
135  1.3400000000000D+00 -1.6033024958811D-01 -7.0806980418357D-01
136  1.3500000000000D+00 -1.4543820626563D-01 -6.4859092390895D-01
137  1.3600000000000D+00 -1.3075063811520D-01 -5.8815658868706D-01
138  1.3700000000000D+00 -1.1638054669600D-01 -5.2751246086430D-01
139  1.3800000000000D+00 -1.0243819662438D-01 -4.6739397146755D-01
140  1.3900000000000D+00 -8.9030202156183D-02 -4.0851774414896D-01
141  1.4000000000000D+00 -7.6258638220209D-02 -3.5157323000023D-01
142  1.4100000000000D+00 -6.4220185805961D-02 -2.9721465438616D-01
143  1.4200000000000D+00 -5.3005322441903D-02 -2.4605338534447D-01
144  1.4300000000000D+00 -4.2697566155007D-02 -1.9865080919178D-01
145  1.4400000000000D+00 -3.3372783404058D-02 -1.5551182039371D-01
146  1.4500000000000D+00 -2.5098568316240D-02 -1.1707900050893D-01
147  1.4600000000000D+00 -1.7933701115154D-02 -8.3727566771744D-02
148  1.4700000000000D+00 -1.1932188501830D-02 -5.5782372653507D-02
149  1.4800000000000D+00 -7.1112428153573D-03 -3.3363751320048D-02
150  1.4900000000000D+00 -3.5157075368397D-03 -1.6693991625748D-02
151  1.5000000000000D+00 -1.2671352188189D-03 -6.3519092019984D-03
152  1.5100000000000D+00 -2.2297769607596D-04 -1.5659742195617D-03
153  1.5200000000000D+00  5.9053180442102D-05 -7.0878740541252D-05
154  1.5300000000000D+00  1.4754653864292D-05  2.7435345043004D-05
155  1.5400000000000D+00 -2.4875678021581D-05 -5.9695415263640D-05
156  1.5500000000000D+00 -2.1647541188457D-07 -5.7633776682754D-07
157  1.5600000000000D+00  4.1701824767557D-06  7.2975024811321D-06
158  1.5700000000000D+00  4.6584627796198D-08  5.9083444388751D-07
159  1.5800000000000D+00  1.6498035555208D-07  2.0924515497134D-06
160  1.5900000000000D+00  0.0000000000000D+00  0.0000000000000D+00
161  1.6000000000000D+00  0.0000000000000D+00  0.0000000000000D+00
162  1.6100000000000D+00  0.0000000000000D+00  0.0000000000000D+00
163  1.6200000000000D+00  0.0000000000000D+00  0.0000000000000D+00
164  1.6300000000000D+00  0.0000000000000D+00  0.0000000000000D+00
165  1.6400000000000D+00  0.0000000000000D+00  0.0000000000000D+00
166  1.6500000000000D+00  0.0000000000000D+00  0.0000000000000D+00
167  1.6600000000000D+00  0.0000000000000D+00  0.0000000000000D+00
168  1.6700000000000D+00  0.0000000000000D+00  0.0000000000000D+00
169  1.6800000000000D+00  0.0000000000000D+00  0.0000000000000D+00
170  1.6900000000000D+00  0.0000000000000D+00  0.0000000000000D+00
171  1.7000000000000D+00  0.0000000000000D+00  0.0000000000000D+00
172  1.7100000000000D+00  0.0000000000000D+00  0.0000000000000D+00
173  1.7200000000000D+00  0.0000000000000D+00  0.0000000000000D+00
174  1.7300000000000D+00  0.0000000000000D+00  0.0000000000000D+00
175  1.7400000000000D+00  0.0000000000000D+00  0.0000000000000D+00
176  1.7500000000000D+00  0.0000000000000D+00  0.0000000000000D+00
177  1.7600000000000D+00  0.0000000000000D+00  0.0000000000000D+00
178  1.7700000000000D+00  0.0000000000000D+00  0.0000000000000D+00
179  1.7800000000000D+00  0.0000000000000D+00  0.0000000000000D+00
180  1.7900000000000D+00  0.0000000000000D+00  0.0000000000000D+00
181  1.8000000000000D+00  0.0000000000000D+00  0.0000000000000D+00
182  1.8100000000000D+00  0.0000000000000D+00  0.0000000000000D+00
183  1.8200000000000D+00  0.0000000000000D+00  0.0000000000000D+00
184  1.8300000000000D+00  0.0000000000000D+00  0.0000000000000D+00
185  1.8400000000000D+00  0.0000000000000D+00  0.0000000000000D+00
186  1.8500000000000D+00  0.0000000000000D+00  0.0000000000000D+00
187  1.8600000000000D+00  0.0000000000000D+00  0.0000000000000D+00
188  1.8700000000000D+00  0.0000000000000D+00  0.0000000000000D+00
189  1.8800000000000D+00  0.0000000000000D+00  0.0000000000000D+00
190  1.8900000000000D+00  0.0000000000000D+00  0.0000000000000D+00
191  1.9000000000000D+00  0.0000000000000D+00  0.0000000000000D+00
192  1.9100000000000D+00  0.0000000000000D+00  0.0000000000000D+00
193  1.9200000000000D+00  0.0000000000000D+00  0.0000000000000D+00
194  1.9300000000000D+00  0.0000000000000D+00  0.0000000000000D+00
195  1.9400000000000D+00  0.0000000000000D+00  0.0000000000000D+00
196  1.9500000000000D+00  0.0000000000000D+00  0.0000000000000D+00
197  1.9600000000000D+00  0.0000000000000D+00  0.0000000000000D+00
198  1.9700000000000D+00  0.0000000000000D+00  0.0000000000000D+00
199  1.9800000000000D+00  0.0000000000000D+00  0.0000000000000D+00
200  1.9900000000000D+00  0.0000000000000D+00  0.0000000000000D+00
201  2.0000000000000D+00  0.0000000000000D+00  0.0000000000000D+00
202  2.0100000000000D+00  0.0000000000000D+00  0.0000000000000D+00
203  2.0200000000000D+00  0.0000000000000D+00  0.0000000000000D+00
204  2.0300000000000D+00  0.0000000000000D+00  0.0000000000000D+00
205  2.0400000000000D+00  0.0000000000000D+00  0.0000000000000D+00
206  2.0500000000000D+00  0.0000000000000D+00  0.0000000000000D+00
207  2.0600000000000D+00  0.0000000000000D+00  0.0000000000000D+00
208  2.0700000000000D+00  0.0000000000000D+00  0.0000000000000D+00
209  2.0800000000000D+00  0.0000000000000D+00  0.0000000000000D+00
210  2.0900000000000D+00  0.0000000000000D+00  0.0000000000000D+00
211  2.1000000000000D+00  0.0000000000000D+00  0.0000000000000D+00
212  2.1100000000000D+00  0.0000000000000D+00  0.0000000000000D+00
213  2.1200000000000D+00  0.0000000000000D+00  0.0000000000000D+00
214  2.1300000000000D+00  0.0000000000000D+00  0.0000000000000D+00
215  2.1400000000000D+00  0.0000000000000D+00  0.0000000000000D+00
216  2.1500000000000D+00  0.0000000000000D+00  0.0000000000000D+00
217  2.1600000000000D+00  0.0000000000000D+00  0.0000000000000D+00
218  2.1700000000000D+00  0.0000000000000D+00  0.0000000000000D+00
219  2.1800000000000D+00  0.0000000000000D+00  0.0000000000000D+00
220  2.1900000000000D+00  0.0000000000000D+00  0.0000000000000D+00
221  2.2000000000000D+00  0.0000000000000D+00  0.0000000000000D+00
222  2.2100000000000D+00  0.0000000000000D+00  0.0000000000000D+00
223  2.2200000000000D+00  0.0000000000000D+00  0.0000000000000D+00
224  2.2300000000000D+00  0.0000000000000D+00  0.0000000000000D+00
225  2.2400000000000D+00  0.0000000000000D+00  0.0000000000000D+00
226  2.2500000000000D+00  0.0000000000000D+00  0.0000000000000D+00
227  2.2600000000000D+00  0.0000000000000D+00  0.0000000000000D+00
228  2.2700000000000D+00  0.0000000000000D+00  0.0000000000000D+00
229  2.2800000000000D+00  0.0000000000000D+00  0.0000000000000D+00
230  2.2900000000000D+00  0.0000000000000D+00  0.0000000000000D+00
231  2.3000000000000D+00  0.0000000000000D+00  0.0000000000000D+00
232  2.3100000000000D+00  0.0000000000000D+00  0.0000000000000D+00
233  2.3200000000000D+00  0.0000000000000D+00  0.0000000000000D+00
234  2.3300000000000D+00  0.0000000000000D+00  0.0000000000000D+00
235  2.3400000000000D+00  0.0000000000000D+00  0.0000000000000D+00
236  2.3500000000000D+00  0.0000000000000D+00  0.0000000000000D+00
237  2.3600000000000D+00  0.0000000000000D+00  0.0000000000000D+00
238  2.3700000000000D+00  0.0000000000000D+00  0.0000000000000D+00
239  2.3800000000000D+00  0.0000000000000D+00  0.0000000000000D+00
240  2.3900000000000D+00  0.0000000000000D+00  0.0000000000000D+00
241  2.4000000000000D+00  0.0000000000000D+00  0.0000000000000D+00
242  2.4100000000000D+00  0.0000000000000D+00  0.0000000000000D+00
243  2.4200000000000D+00  0.0000000000000D+00  0.0000000000000D+00
244  2.4300000000000D+00  0.0000000000000D+00  0.0000000000000D+00
245  2.4400000000000D+00  0.0000000000000D+00  0.0000000000000D+00
246  2.4500000000000D+00  0.0000000000000D+00  0.0000000000000D+00
247  2.4600000000000D+00  0.0000000000000D+00  0.0000000000000D+00
248  2.4700000000000D+00  0.0000000000000D+00  0.0000000000000D+00
249  2.4800000000000D+00  0.0000000000000D+00  0.0000000000000D+00
250  2.4900000000000D+00  0.0000000000000D+00  0.0000000000000D+00
251  2.5000000000000D+00  0.0000000000000D+00  0.0000000000000D+00
252  2.5100000000000D+00  0.0000000000000D+00  0.0000000000000D+00
253  2.5200000000000D+00  0.0000000000000D+00  0.0000000000000D+00
254  2.5300000000000D+00  0.0000000000000D+00  0.0000000000000D+00
255  2.5400000000000D+00  0.0000000000000D+00  0.0000000000000D+00
256  2.5500000000000D+00  0.0000000000000D+00  0.0000000000000D+00
257  2.5600000000000D+00  0.0000000000000D+00  0.0000000000000D+00
258  2.5700000000000D+00  0.0000000000000D+00  0.0000000000000D+00
259  2.5800000000000D+00  0.0000000000000D+00  0.0000000000000D+00
260  2.5900000000000D+00  0.0000000000000D+00  0.0000000000000D+00
261  2.6000000000000D+00  0.0000000000000D+00  0.0000000000000D+00
262  2.6100000000000D+00  0.0000000000000D+00  0.0000000000000D+00
263  2.6200000000000D+00  0.0000000000000D+00  0.0000000000000D+00
264  2.6300000000000D+00  0.0000000000000D+00  0.0000000000000D+00
265  2.6400000000000D+00  0.0000000000000D+00  0.0000000000000D+00
266  2.6500000000000D+00  0.0000000000000D+00  0.0000000000000D+00
267  2.6600000000000D+00  0.0000000000000D+00  0.0000000000000D+00
268  2.6700000000000D+00  0.0000000000000D+00  0.0000000000000D+00
269  2.6800000000000D+00  0.0000000000000D+00  0.0000000000000D+00
270  2.6900000000000D+00  0.0000000000000D+00  0.0000000000000D+00
271  2.7000000000000D+00  0.0000000000000D+00  0.0000000000000D+00
272  2.7100000000000D+00  0.0000000000000D+00  0.0000000000000D+00
273  2.7200000000000D+00  0.0000000000000D+00  0.0000000000000D+00
274  2.7300000000000D+00  0.0000000000000D+00  0.0000000000000D+00
275  2.7400000000000D+00  0.0000000000000D+00  0.0000000000000D+00
276  2.7500000000000D+00  0.0000000000000D+00  0.0000000000000D+00
277  2.7600000000000D+00  0.0000000000000D+00  0.0000000000000D+00
278  2.7700000000000D+00  0.0000000000000D+00  0.0000000000000D+00
279  2.7800000000000D+00  0.0000000000000D+00  0.0000000000000D+00
280  2.7900000000000D+00  0.0000000000000D+00  0.0000000000000D+00
281  2.8000000000000D+00  0.0000000000000D+00  0.0000000000000D+00
282  2.8100000000000D+00  0.0000000000000D+00  0.0000000000000D+00
283  2.8200000000000D+00  0.0000000000000D+00  0.0000000000000D+00
284  2.8300000000000D+00  0.0000000000000D+00  0.0000000000000D+00
285  2.8400000000000D+00  0.0000000000000D+00  0.0000000000000D+00
286  2.8500000000000D+00  0.0000000000000D+00  0.0000000000000D+00
287  2.8600000000000D+00  0.0000000000000D+00  0.0000000000000D+00
288  2.8700000000000D+00  0.0000000000000D+00  0.0000000000000D+00
289  2.8800000000000D+00  0.0000000000000D+00  0.0000000000000D+00
290  2.8900000000000D+00  0.0000000000000D+00  0.0000000000000D+00
291  2.9000000000000D+00  0.0000000000000D+00  0.0000000000000D+00
292  2.9100000000000D+00  0.0000000000000D+00  0.0000000000000D+00
293  2.9200000000000D+00  0.0000000000000D+00  0.0000000000000D+00
294  2.9300000000000D+00  0.0000000000000D+00  0.0000000000000D+00
295  2.9400000000000D+00  0.0000000000000D+00  0.0000000000000D+00
296  2.9500000000000D+00  0.0000000000000D+00  0.0000000000000D+00
297  2.9600000000000D+00  0.0000000000000D+00  0.0000000000000D+00
298  2.9700000000000D+00  0.0000000000000D+00  0.0000000000000D+00
299  2.9800000000000D+00  0.0000000000000D+00  0.0000000000000D+00
300  2.9900000000000D+00  0.0000000000000D+00  0.0000000000000D+00
301  3.0000000000000D+00  0.0000000000000D+00  0.0000000000000D+00
302  3.0100000000000D+00  0.0000000000000D+00  0.0000000000000D+00
303  3.0200000000000D+00  0.0000000000000D+00  0.0000000000000D+00
304  3.0300000000000D+00  0.0000000000000D+00  0.0000000000000D+00
305  3.0400000000000D+00  0.0000000000000D+00  0.0000000000000D+00
306  3.0500000000000D+00  0.0000000000000D+00  0.0000000000000D+00
307  3.0600000000000D+00  0.0000000000000D+00  0.0000000000000D+00
308  3.0700000000000D+00  0.0000000000000D+00  0.0000000000000D+00
309  3.0800000000000D+00  0.0000000000000D+00  0.0000000000000D+00
310  3.0900000000000D+00  0.0000000000000D+00  0.0000000000000D+00
311  3.1000000000000D+00  0.0000000000000D+00  0.0000000000000D+00
312  3.1100000000000D+00  0.0000000000000D+00  0.0000000000000D+00
313  3.1200000000000D+00  0.0000000000000D+00  0.0000000000000D+00
314  3.1300000000000D+00  0.0000000000000D+00  0.0000000000000D+00
315  3.1400000000000D+00  0.0000000000000D+00  0.0000000000000D+00
316  3.1500000000000D+00  0.0000000000000D+00  0.0000000000000D+00
317  3.1600000000000D+00  0.0000000000000D+00  0.0000000000000D+00
318  3.1700000000000D+00  0.0000000000000D+00  0.0000000000000D+00
319  3.1800000000000D+00  0.0000000000000D+00  0.0000000000000D+00
320  3.1900000000000D+00  0.0000000000000D+00  0.0000000000000D+00
321  3.2000000000000D+00  0.0000000000000D+00  0.0000000000000D+00
322  3.2100000000000D+00  0.0000000000000D+00  0.0000000000000D+00
323  3.2200000000000D+00  0.0000000000000D+00  0.0000000000000D+00
324  3.2300000000000D+00  0.0000000000000D+00  0.0000000000000D+00
325  3.2400000000000D+00  0.0000000000000D+00  0.0000000000000D+00
326  3.2500000000000D+00  0.0000000000000D+00  0.0000000000000D+00
327  3.2600000000000D+00  0.0000000000000D+00  0.0000000000000D+00
328  3.2700000000000D+00  0.0000000000000D+00  0.0000000000000D+00
329  3.2800000000000D+00  0.0000000000000D+00  0.0000000000000D+00
330  3.2900000000000D+00  0.0000000000000D+00  0.0000000000000D+00
331  3.3000000000000D+00  0.0000000000000D+00  0.0000000000000D+00
332  3.3100000000000D+00  0.0000000000000D+00  0.0000000000000D+00
333  3.3200000000000D+00  0.0000000000000D+00  0.0000000000000D+00
334  3.3300000000000D+00  0.0000000000000D+00  0.0000000000000D+00
335  3.3400000000000D+00  0.0000000000000D+00  0.0000000000000D+00
336  3.3500000000000D+00  0.0000000000000D+00  0.0000000000000D+00
337  3.3600000000000D+00  0.0000000000000D+00  0.0000000000000D+00
338  3.3700000000000D+00  0.0000000000000D+00  0.0000000000000D+00
339  3.3800000000000D+00  0.0000000000000D+00  0.0000000000000D+00
340  3.3900000000000D+00  0.0000000000000D+00  0.0000000000000D+00
341  3.4000000000000D+00  0.0000000000000D+00  0.0000000000000D+00
342  3.4100000000000D+00  0.0000000000000D+00  0.0000000000000D+00
343  3.4200000000000D+00  0.0000000000000D+00  0.0000000000000D+00
344  3.4300000000000D+00  0.0000000000000D+00  0.0000000000000D+00
345  3.4400000000000D+00  0.0000000000000D+00  0.0000000000000D+00
346  3.4500000000000D+00  0.0000000000000D+00  0.0000000000000D+00
347  3.4600000000000D+00  0.0000000000000D+00  0.0000000000000D+00
348  3.4700000000000D+00  0.0000000000000D+00  0.0000000000000D+00
349  3.4800000000000D+00  0.0000000000000D+00  0.0000000000000D+00
350  3.4900000000000D+00  0.0000000000000D+00  0.0000000000000D+00
351  3.5000000000000D+00  0.0000000000000D+00  0.0000000000000D+00
352  3.5100000000000D+00  0.0000000000000D+00  0.0000000000000D+00
353  3.5200000000000D+00  0.0000000000000D+00  0.0000000000000D+00
354  3.5300000000000D+00  0.0000000000000D+00  0.0000000000000D+00
355  3.5400000000000D+00  0.0000000000000D+00  0.0000000000000D+00
356  3.5500000000000D+00  0.0000000000000D+00  0.0000000000000D+00
357  3.5600000000000D+00  0.0000000000000D+00  0.0000000000000D+00
358  3.5700000000000D+00  0.0000000000000D+00  0.0000000000000D+00
359  3.5800000000000D+00  0.0000000000000D+00  0.0000000000000D+00
360  3.5900000000000D+00  0.0000000000000D+00  0.0000000000000D+00
361  3.6000000000000D+00  0.0000000000000D+00  0.0000000000000D+00
362  3.6100000000000D+00  0.0000000000000D+00  0.0000000000000D+00
363  3.6200000000000D+00  0.0000000000000D+00  0.0000000000000D+00
364  3.6300000000000D+00  0.0000000000000D+00  0.0000000000000D+00
365  3.6400000000000D+00  0.0000000000000D+00  0.0000000000000D+00
366  3.6500000000000D+00  0.0000000000000D+00  0.0000000000000D+00
367  3.6600000000000D+00  0.0000000000000D+00  0.0000000000000D+00
368  3.6700000000000D+00  0.0000000000000D+00  0.0000000000000D+00
369  3.6800000000000D+00  0.0000000000000D+00  0.0000000000000D+00
370  3.6900000000000D+00  0.0000000000000D+00  0.0000000000000D+00
371  3.7000000000000D+00  0.0000000000000D+00  0.0000000000000D+00
372  3.7100000000000D+00  0.0000000000000D+00  0.0000000000000D+00
373  3.7200000000000D+00  0.0000000000000D+00  0.0000000000000D+00
374  3.7300000000000D+00  0.0000000000000D+00  0.0000000000000D+00
375  3.7400000000000D+00  0.0000000000000D+00  0.0000000000000D+00
376  3.7500000000000D+00  0.0000000000000D+00  0.0000000000000D+00
377  3.7600000000000D+00  0.0000000000000D+00  0.0000000000000D+00
378  3.7700000000000D+00  0.0000000000000D+00  0.0000000000000D+00
379  3.7800000000000D+00  0.0000000000000D+00  0.0000000000000D+00
380  3.7900000000000D+00  0.0000000000000D+00  0.0000000000000D+00
381  3.8000000000000D+00  0.0000000000000D+00  0.0000000000000D+00
382  3.8100000000000D+00  0.0000000000000D+00  0.0000000000000D+00
383  3.8200000000000D+00  0.0000000000000D+00  0.0000000000000D+00
384  3.8300000000000D+00  0.0000000000000D+00  0.0000000000000D+00
385  3.8400000000000D+00  0.0000000000000D+00  0.0000000000000D+00
386  3.8500000000000D+00  0.0000000000000D+00  0.0000000000000D+00
387  3.8600000000000D+00  0.0000000000000D+00  0.0000000000000D+00
388  3.8700000000000D+00  0.0000000000000D+00  0.0000000000000D+00
389  3.8800000000000D+00  0.0000000000000D+00  0.0000000000000D+00
390  3.8900000000000D+00  0.0000000000000D+00  0.0000000000000D+00
391  3.9000000000000D+00  0.0000000000000D+00  0.0000000000000D+00
392  3.9100000000000D+00  0.0000000000000D+00  0.0000000000000D+00
393  3.9200000000000D+00  0.0000000000000D+00  0.0000000000000D+00
394  3.9300000000000D+00  0.0000000000000D+00  0.0000000000000D+00
395  3.9400000000000D+00  0.0000000000000D+00  0.0000000000000D+00
396  3.9500000000000D+00  0.0000000000000D+00  0.0000000000000D+00
397  3.9600000000000D+00  0.0000000000000D+00  0.0000000000000D+00
398  3.9700000000000D+00  0.0000000000000D+00  0.0000000000000D+00
399  3.9800000000000D+00  0.0000000000000D+00  0.0000000000000D+00
400  3.9900000000000D+00  0.0000000000000D+00  0.0000000000000D+00
401  4.0000000000000D+00  0.0000000000000D+00  0.0000000000000D+00
402  4.0100000000000D+00  0.0000000000000D+00  0.0000000000000D+00
403  4.0200000000000D+00  0.0000000000000D+00  0.0000000000000D+00
404  4.0300000000000D+00  0.0000000000000D+00  0.0000000000000D+00
405  4.0400000000000D+00  0.0000000000000D+00  0.0000000000000D+00
406  4.0500000000000D+00  0.0000000000000D+00  0.0000000000000D+00
407  4.0600000000000D+00  0.0000000000000D+00  0.0000000000000D+00
408  4.0700000000000D+00  0.0000000000000D+00  0.0000000000000D+00
409  4.0800000000000D+00  0.0000000000000D+00  0.0000000000000D+00
410  4.0900000000000D+00  0.0000000000000D+00  0.0000000000000D+00
411  4.1000000000000D+00  0.0000000000000D+00  0.0000000000000D+00
412  4.1100000000000D+00  0.0000000000000D+00  0.0000000000000D+00
413  4.1200000000000D+00  0.0000000000000D+00  0.0000000000000D+00
414  4.1300000000000D+00  0.0000000000000D+00  0.0000000000000D+00
415  4.1400000000000D+00  0.0000000000000D+00  0.0000000000000D+00
416  4.1500000000000D+00  0.0000000000000D+00  0.0000000000000D+00
417  4.1600000000000D+00  0.0000000000000D+00  0.0000000000000D+00
418  4.1700000000000D+00  0.0000000000000D+00  0.0000000000000D+00
419  4.1800000000000D+00  0.0000000000000D+00  0.0000000000000D+00
420  4.1900000000000D+00  0.0000000000000D+00  0.0000000000000D+00
421  4.2000000000000D+00  0.0000000000000D+00  0.0000000000000D+00
422  4.2100000000000D+00  0.0000000000000D+00  0.0000000000000D+00
423  4.2200000000000D+00  0.0000000000000D+00  0.0000000000000D+00
424  4.2300000000000D+00  0.0000000000000D+00  0.0000000000000D+00
425  4.2400000000000D+00  0.0000000000000D+00  0.0000000000000D+00
426  4.2500000000000D+00  0.0000000000000D+00  0.0000000000000D+00
427  4.2600000000000D+00  0.0000000000000D+00  0.0000000000000D+00
428  4.2700000000000D+00  0.0000000000000D+00  0.0000000000000D+00
429  4.2800000000000D+00  0.0000000000000D+00  0.0000000000000D+00
430  4.2900000000000D+00  0.0000000000000D+00  0.0000000000000D+00
431  4.3000000000000D+00  0.0000000000000D+00  0.0000000000000D+00
432  4.3100000000000D+00  0.0000000000000D+00  0.0000000000000D+00
433  4.3200000000000D+00  0.0000000000000D+00  0.0000000000000D+00
434  4.3300000000000D+00  0.0000000000000D+00  0.0000000000000D+00
435  4.3400000000000D+00  0.0000000000000D+00  0.0000000000000D+00
436  4.3500000000000D+00  0.0000000000000D+00  0.0000000000000D+00
437  4.3600000000000D+00  0.0000000000000D+00  0.0000000000000D+00
438  4.3700000000000D+00  0.0000000000000D+00  0.0000000000000D+00
439  4.3800000000000D+00  0.0000000000000D+00  0.0000000000000D+00
440  4.3900000000000D+00  0.0000000000000D+00  0.0000000000000D+00
441  4.4000000000000D+00  0.0000000000000D+00  0.0000000000000D+00
442  4.4100000000000D+00  0.0000000000000D+00  0.0000000000000D+00
443  4.4200000000000D+00  0.0000000000000D+00  0.0000000000000D+00