Tc    ONCVPSP-3.2.3.1  r_core=   1.40470   1.40470   1.35532
43.0000     15.0000      170510    zatom,zion,pspd
8      11   2     4   600     0    pspcod,pspxc,lmax,lloc,mmax,r2well
5.99000000  5.00000000  0.00000000    rchrg fchrg qchrg
2     2     2     0     0    nproj
1     1           extension_switch
0                         1.4512624761359D+01  1.4552829648563D+00
1  0.0000000000000D+00 -3.5112007745752D-10  1.7477755076545D-09
2  1.0000000000000D-02  6.0178680575833D-02 -3.1816397263500D-02
3  2.0000000000000D-02  1.2026705345594D-01 -6.3454025692042D-02
4  3.0000000000000D-02  1.8017508350847D-01 -9.4735830278903D-02
5  4.0000000000000D-02  2.3981327615330D-01 -1.2548815613778D-01
6  5.0000000000000D-02  2.9909293628917D-01 -1.5554238017690D-01
7  6.0000000000000D-02  3.5792641385731D-01 -1.8473646197417D-01
8  7.0000000000000D-02  4.1622733200720D-01 -2.1291638900727D-01
9  8.0000000000000D-02  4.7391079418117D-01 -2.3993749314042D-01
10  9.0000000000000D-02  5.3089356686253D-01 -2.6566561740379D-01
11  1.0000000000000D-01  5.8709423522909D-01 -2.8997811459062D-01
12  1.1000000000000D-01  6.4243332951222D-01 -3.1276466200077D-01
13  1.2000000000000D-01  6.9683342047174D-01 -3.3392787973762D-01
14  1.3000000000000D-01  7.5021918304791D-01 -3.5338374326715D-01
15  1.4000000000000D-01  8.0251742793297D-01 -3.7106178442559D-01
16  1.5000000000000D-01  8.5365710150384D-01 -3.8690507865855D-01
17  1.6000000000000D-01  9.0356925526269D-01 -4.0087001993468D-01
18  1.7000000000000D-01  9.5218698663006D-01 -4.1292588844327D-01
19  1.8000000000000D-01  9.9944535361423D-01 -4.2305421979720D-01
20  1.9000000000000D-01  1.0452812665270D+00 -4.3124798796456D-01
21  2.0000000000000D-01  1.0896333605184D+00 -4.3751061748469D-01
22  2.1000000000000D-01  1.1324418532504D+00 -4.4185484363315D-01
23  2.2000000000000D-01  1.1736483925064D+00 -4.4430144203266D-01
24  2.3000000000000D-01  1.2131958989399D+00 -4.4487785171366D-01
25  2.4000000000000D-01  1.2510284094761D+00 -4.4361671776574D-01
26  2.5000000000000D-01  1.2870909271080D+00 -4.4055438144846D-01
27  2.6000000000000D-01  1.3213292829440D+00 -4.3572934691509D-01
28  2.7000000000000D-01  1.3536900163829D+00 -4.2918075451711D-01
29  2.8000000000000D-01  1.3841202791974D+00 -4.2094689098078D-01
30  2.9000000000000D-01  1.4125677691010D+00 -4.1106376656682D-01
31  3.0000000000000D-01  1.4389806980598D+00 -3.9956378863385D-01
32  3.1000000000000D-01  1.4633078001840D+00 -3.8647455982913D-01
33  3.2000000000000D-01  1.4854983835051D+00 -3.7181782743515D-01
34  3.3000000000000D-01  1.5055024293143D+00 -3.5560860822743D-01
35  3.4000000000000D-01  1.5232707420148D+00 -3.3785451057152D-01
36  3.5000000000000D-01  1.5387551516353D+00 -3.1855527244083D-01
37  3.6000000000000D-01  1.5519087702716D+00 -2.9770253061168D-01
38  3.7000000000000D-01  1.5626863027830D+00 -2.7527983253424D-01
39  3.8000000000000D-01  1.5710444110827D+00 -2.5126289834336D-01
40  3.9000000000000D-01  1.5769421303380D+00 -2.2562013621881D-01
41  4.0000000000000D-01  1.5803413343599D+00 -1.9831340989498D-01
42  4.1000000000000D-01  1.5812072464186D+00 -1.6929905262251D-01
43  4.2000000000000D-01  1.5795089906976D+00 -1.3852911736913D-01
44  4.3000000000000D-01  1.5752201786071D+00 -1.0595284858664D-01
45  4.4000000000000D-01  1.5683195232328D+00 -7.1518356536768D-02
46  4.5000000000000D-01  1.5587914743214D+00 -3.5174471035385D-02
47  4.6000000000000D-01  1.5466268654090D+00  3.1272523889880D-03
48  4.7000000000000D-01  1.5318235640045D+00  4.3430404451239D-02
49  4.8000000000000D-01  1.5143871151550D+00  8.5771505830191D-02
50  4.9000000000000D-01  1.4943313682663D+00  1.3017773896230D-01
51  5.0000000000000D-01  1.4716790767293D+00  1.7666466635902D-01
52  5.1000000000000D-01  1.4464624597328D+00  2.2523397547717D-01
53  5.2000000000000D-01  1.4187237156265D+00  2.7587129114838D-01
54  5.3000000000000D-01  1.3885154763388D+00  3.2854409691637D-01
55  5.4000000000000D-01  1.3559011926669D+00  3.8319980632206D-01
56  5.5000000000000D-01  1.3209554407243D+00  4.3976402419906D-01
57  5.6000000000000D-01  1.2837641404713D+00  4.9813903640049D-01
58  5.7000000000000D-01  1.2444246780473D+00  5.5820256408011D-01
59  5.8000000000000D-01  1.2030459245734D+00  6.1980681570807D-01
60  5.9000000000000D-01  1.1597481451826D+00  6.8277786646633D-01
61  6.0000000000000D-01  1.1146627932613D+00  7.4691539054493D-01
62  6.1000000000000D-01  1.0679321862218D+00  8.1199276724517D-01
63  6.2000000000000D-01  1.0197090605699D+00  8.7775757670294D-01
64  6.3000000000000D-01  9.7015600555337D-01  9.4393249556860D-01
65  6.4000000000000D-01  9.1944477626377D-01  1.0102165972114D+00
66  6.5000000000000D-01  8.6775548869288D-01  1.0762870549731D+00
67  6.6000000000000D-01  8.1527570089060D-01  1.1418012408547D+00
68  6.7000000000000D-01  7.6219938600877D-01  1.2063992058109D+00
69  6.8000000000000D-01  7.0872580463145D-01  1.2697065216458D+00
70  6.9000000000000D-01  6.5505828534745D-01  1.3313374584856D+00
71  7.0000000000000D-01  6.0140292399660D-01  1.3908984660282D+00
72  7.1000000000000D-01  5.4796721340473D-01  1.4479919212884D+00
73  7.2000000000000D-01  4.9495861667261D-01  1.5022201005380D+00
74  7.3000000000000D-01  4.4258309819236D-01  1.5531893286098D+00
75  7.4000000000000D-01  3.9104362750889D-01  1.6005142547936D+00
76  7.5000000000000D-01  3.4053867190231D-01  1.6438222012903D+00
77  7.6000000000000D-01  2.9126069413269D-01  1.6827575276232D+00
78  7.7000000000000D-01  2.4339467213897D-01  1.7169859526540D+00
79  7.8000000000000D-01  1.9711665761662D-01  1.7461987748967D+00
80  7.9000000000000D-01  1.5259239030482D-01  1.7701169317350D+00
81  8.0000000000000D-01  1.0997598449007D-01  1.7884948389273D+00
82  8.1000000000000D-01  6.9408703679738D-02  1.8011239534399D+00
83  8.2000000000000D-01  3.1017838619724D-02  1.8078360051734D+00
84  8.3000000000000D-01 -5.0842971677015D-03  1.8085058465142D+00
85  8.4000000000000D-01 -3.8801241356686D-02  1.8030538728223D+00
86  8.5000000000000D-01 -7.0053114733004D-02  1.7914479718988D+00
87  8.6000000000000D-01 -9.8777201062537D-02  1.7737049661147D+00
88  8.7000000000000D-01 -1.2492836666006D-01  1.7498915171336D+00
89  8.8000000000000D-01 -1.4847931327700D-01  1.7201244699563D+00
90  8.9000000000000D-01 -1.6942065990773D-01  1.6845706202545D+00
91  9.0000000000000D-01 -1.8776085117843D-01  1.6434458965329D+00
92  9.1000000000000D-01 -2.0352589209991D-01  1.5970139564700D+00
93  9.2000000000000D-01 -2.1675891110821D-01  1.5455842047071D+00
94  9.3000000000000D-01 -2.2751955545153D-01  1.4895092472736D+00
95  9.4000000000000D-01 -2.3588322507921D-01  1.4291818056277D+00
96  9.5000000000000D-01 -2.4194015321667D-01  1.3650311208431D+00
97  9.6000000000000D-01 -2.4579434373899D-01  1.2975188856554D+00
98  9.7000000000000D-01 -2.4756237725561D-01  1.2271347487902D+00
99  9.8000000000000D-01 -2.4737209946745D-01  1.1543914421367D+00
100  9.9000000000000D-01 -2.4536120681608D-01  1.0798195867543D+00
101  1.0000000000000D+00 -2.4167574569338D-01  1.0039622383306D+00
102  1.0100000000000D+00 -2.3646854254285D-01  9.2736923663232D-01
103  1.0200000000000D+00 -2.2989758294761D-01  8.5059142627135D-01
104  1.0300000000000D+00 -2.2212435835040D-01  7.7417481808201D-01
105  1.0400000000000D+00 -2.1331219932664D-01  6.9865476131571D-01
106  1.0500000000000D+00 -2.0362461430184D-01  6.2455019660473D-01
107  1.0600000000000D+00 -1.9322365240301D-01  5.5235805874322D-01
108  1.0700000000000D+00 -1.8226830852469D-01  4.8254789583813D-01
109  1.0800000000000D+00 -1.7091298793068D-01  4.1555676833810D-01
110  1.0900000000000D+00 -1.5930604664725D-01  3.5178448721200D-01
111  1.1000000000000D+00 -1.4758842253636D-01  2.9158924515159D-01
112  1.1100000000000D+00 -1.3589237067526D-01  2.3528368970414D-01
113  1.1200000000000D+00 -1.2434031462819D-01  1.8313147923765D-01
114  1.1300000000000D+00 -1.1304382359107D-01  1.3534435636371D-01
115  1.1400000000000D+00 -1.0210272302809D-01  9.2079764222192D-02
116  1.1500000000000D+00 -9.1604344935061D-02  5.3439025240548D-02
117  1.1600000000000D+00 -8.1622920861829D-02  1.9466090291805D-02
118  1.1700000000000D+00 -7.2219117673221D-02 -9.8531480785341D-03
119  1.1800000000000D+00 -6.3439714749518D-02 -3.4590985381461D-02
120  1.1900000000000D+00 -5.5317470768661D-02 -5.4877237223241D-02
121  1.2000000000000D+00 -4.7870964786692D-02 -7.0898871331122D-02
122  1.2100000000000D+00 -4.1104736183506D-02 -8.2898279095330D-02
123  1.2200000000000D+00 -3.5011052662803D-02 -9.1163005601155D-02
124  1.2300000000000D+00 -2.9572123273422D-02 -9.6014033487241D-02
125  1.2400000000000D+00 -2.4762197992441D-02 -9.7795317601124D-02
126  1.2500000000000D+00 -2.0548467012601D-02 -9.6870130288142D-02
127  1.2600000000000D+00 -1.6892345528848D-02 -9.3615425221266D-02
128  1.2700000000000D+00 -1.3750757908953D-02 -8.8416316440912D-02
129  1.2800000000000D+00 -1.1077461016487D-02 -8.1660434266346D-02
130  1.2900000000000D+00 -8.8243729642471D-03 -7.3732305631181D-02
131  1.3000000000000D+00 -6.9428958666495D-03 -6.5007790935629D-02
132  1.3100000000000D+00 -5.3852119281315D-03 -5.5848660316208D-02
133  1.3200000000000D+00 -4.1055323973679D-03 -4.6597389545308D-02
134  1.3300000000000D+00 -3.0612826604209D-03 -3.7572239762830D-02
135  1.3400000000000D+00 -2.2142083387727D-03 -2.9062677478135D-02
136  1.3500000000000D+00 -1.5313796308564D-03 -2.1325228246655D-02
137  1.3600000000000D+00 -9.8622568946704D-04 -1.4583439592804D-02
138  1.3700000000000D+00 -5.5865904653300D-04 -9.0082941874033D-03
139  1.3800000000000D+00 -2.3653369248218D-04 -4.7101395906105D-03
140  1.3900000000000D+00 -1.5709535779268D-05 -1.9158454380305D-03
141  1.4000000000000D+00  9.8886673042871D-05 -5.9388909589706D-04
142  1.4100000000000D+00  8.7127697713993D-05 -1.2596247562302D-04
143  1.4200000000000D+00  1.0305477202668D-05 -4.9407373383945D-06
144  1.4300000000000D+00 -1.4101785548841D-05  1.5842952153874D-06
145  1.4400000000000D+00  9.5106115834226D-07 -6.6243641674791D-07
146  1.4500000000000D+00  2.5753618041686D-06 -1.3930787954040D-06
147  1.4600000000000D+00 -2.3062163225748D-07  6.5550541160750D-07
148  1.4700000000000D+00 -1.6836832936996D-07  4.7856027192673D-07
149  1.4800000000000D+00  0.0000000000000D+00  0.0000000000000D+00
150  1.4900000000000D+00  0.0000000000000D+00  0.0000000000000D+00
151  1.5000000000000D+00  0.0000000000000D+00  0.0000000000000D+00
152  1.5100000000000D+00  0.0000000000000D+00  0.0000000000000D+00
153  1.5200000000000D+00  0.0000000000000D+00  0.0000000000000D+00
154  1.5300000000000D+00  0.0000000000000D+00  0.0000000000000D+00
155  1.5400000000000D+00  0.0000000000000D+00  0.0000000000000D+00
156  1.5500000000000D+00  0.0000000000000D+00  0.0000000000000D+00
157  1.5600000000000D+00  0.0000000000000D+00  0.0000000000000D+00
158  1.5700000000000D+00  0.0000000000000D+00  0.0000000000000D+00
159  1.5800000000000D+00  0.0000000000000D+00  0.0000000000000D+00
160  1.5900000000000D+00  0.0000000000000D+00  0.0000000000000D+00
161  1.6000000000000D+00  0.0000000000000D+00  0.0000000000000D+00
162  1.6100000000000D+00  0.0000000000000D+00  0.0000000000000D+00
163  1.6200000000000D+00  0.0000000000000D+00  0.0000000000000D+00
164  1.6300000000000D+00  0.0000000000000D+00  0.0000000000000D+00
165  1.6400000000000D+00  0.0000000000000D+00  0.0000000000000D+00
166  1.6500000000000D+00  0.0000000000000D+00  0.0000000000000D+00
167  1.6600000000000D+00  0.0000000000000D+00  0.0000000000000D+00
168  1.6700000000000D+00  0.0000000000000D+00  0.0000000000000D+00
169  1.6800000000000D+00  0.0000000000000D+00  0.0000000000000D+00
170  1.6900000000000D+00  0.0000000000000D+00  0.0000000000000D+00
171  1.7000000000000D+00  0.0000000000000D+00  0.0000000000000D+00
172  1.7100000000000D+00  0.0000000000000D+00  0.0000000000000D+00
173  1.7200000000000D+00  0.0000000000000D+00  0.0000000000000D+00
174  1.7300000000000D+00  0.0000000000000D+00  0.0000000000000D+00
175  1.7400000000000D+00  0.0000000000000D+00  0.0000000000000D+00
176  1.7500000000000D+00  0.0000000000000D+00  0.0000000000000D+00
177  1.7600000000000D+00  0.0000000000000D+00  0.0000000000000D+00
178  1.7700000000000D+00  0.0000000000000D+00  0.0000000000000D+00
179  1.7800000000000D+00  0.0000000000000D+00  0.0000000000000D+00
180  1.7900000000000D+00  0.0000000000000D+00  0.0000000000000D+00
181  1.8000000000000D+00  0.0000000000000D+00  0.0000000000000D+00
182  1.8100000000000D+00  0.0000000000000D+00  0.0000000000000D+00
183  1.8200000000000D+00  0.0000000000000D+00  0.0000000000000D+00
184  1.8300000000000D+00  0.0000000000000D+00  0.0000000000000D+00
185  1.8400000000000D+00  0.0000000000000D+00  0.0000000000000D+00
186  1.8500000000000D+00  0.0000000000000D+00  0.0000000000000D+00
187  1.8600000000000D+00  0.0000000000000D+00  0.0000000000000D+00
188  1.8700000000000D+00  0.0000000000000D+00  0.0000000000000D+00
189  1.8800000000000D+00  0.0000000000000D+00  0.0000000000000D+00
190  1.8900000000000D+00  0.0000000000000D+00  0.0000000000000D+00
191  1.9000000000000D+00  0.0000000000000D+00  0.0000000000000D+00
192  1.9100000000000D+00  0.0000000000000D+00  0.0000000000000D+00
193  1.9200000000000D+00  0.0000000000000D+00  0.0000000000000D+00
194  1.9300000000000D+00  0.0000000000000D+00  0.0000000000000D+00
195  1.9400000000000D+00  0.0000000000000D+00  0.0000000000000D+00
196  1.9500000000000D+00  0.0000000000000D+00  0.0000000000000D+00
197  1.9600000000000D+00  0.0000000000000D+00  0.0000000000000D+00
198  1.9700000000000D+00  0.0000000000000D+00  0.0000000000000D+00
199  1.9800000000000D+00  0.0000000000000D+00  0.0000000000000D+00
200  1.9900000000000D+00  0.0000000000000D+00  0.0000000000000D+00
201  2.0000000000000D+00  0.0000000000000D+00  0.0000000000000D+00
202  2.0100000000000D+00  0.0000000000000D+00  0.0000000000000D+00
203  2.0200000000000D+00  0.0000000000000D+00  0.0000000000000D+00
204  2.0300000000000D+00  0.0000000000000D+00  0.0000000000000D+00
205  2.0400000000000D+00  0.0000000000000D+00  0.0000000000000D+00
206  2.0500000000000D+00  0.0000000000000D+00  0.0000000000000D+00
207  2.0600000000000D+00  0.0000000000000D+00  0.0000000000000D+00
208  2.0700000000000D+00  0.0000000000000D+00  0.0000000000000D+00
209  2.0800000000000D+00  0.0000000000000D+00  0.0000000000000D+00
210  2.0900000000000D+00  0.0000000000000D+00  0.0000000000000D+00
211  2.1000000000000D+00  0.0000000000000D+00  0.0000000000000D+00
212  2.1100000000000D+00  0.0000000000000D+00  0.0000000000000D+00
213  2.1200000000000D+00  0.0000000000000D+00  0.0000000000000D+00
214  2.1300000000000D+00  0.0000000000000D+00  0.0000000000000D+00
215  2.1400000000000D+00  0.0000000000000D+00  0.0000000000000D+00
216  2.1500000000000D+00  0.0000000000000D+00  0.0000000000000D+00
217  2.1600000000000D+00  0.0000000000000D+00  0.0000000000000D+00
218  2.1700000000000D+00  0.0000000000000D+00  0.0000000000000D+00
219  2.1800000000000D+00  0.0000000000000D+00  0.0000000000000D+00
220  2.1900000000000D+00  0.0000000000000D+00  0.0000000000000D+00
221  2.2000000000000D+00  0.0000000000000D+00  0.0000000000000D+00
222  2.2100000000000D+00  0.0000000000000D+00  0.0000000000000D+00
223  2.2200000000000D+00  0.0000000000000D+00  0.0000000000000D+00
224  2.2300000000000D+00  0.0000000000000D+00  0.0000000000000D+00
225  2.2400000000000D+00  0.0000000000000D+00  0.0000000000000D+00
226  2.2500000000000D+00  0.0000000000000D+00  0.0000000000000D+00
227  2.2600000000000D+00  0.0000000000000D+00  0.0000000000000D+00
228  2.2700000000000D+00  0.0000000000000D+00  0.0000000000000D+00
229  2.2800000000000D+00  0.0000000000000D+00  0.0000000000000D+00
230  2.2900000000000D+00  0.0000000000000D+00  0.0000000000000D+00
231  2.3000000000000D+00  0.0000000000000D+00  0.0000000000000D+00
232  2.3100000000000D+00  0.0000000000000D+00  0.0000000000000D+00
233  2.3200000000000D+00  0.0000000000000D+00  0.0000000000000D+00
234  2.3300000000000D+00  0.0000000000000D+00  0.0000000000000D+00
235  2.3400000000000D+00  0.0000000000000D+00  0.0000000000000D+00
236  2.3500000000000D+00  0.0000000000000D+00  0.0000000000000D+00
237  2.3600000000000D+00  0.0000000000000D+00  0.0000000000000D+00
238  2.3700000000000D+00  0.0000000000000D+00  0.0000000000000D+00
239  2.3800000000000D+00  0.0000000000000D+00  0.0000000000000D+00
240  2.3900000000000D+00  0.0000000000000D+00  0.0000000000000D+00
241  2.4000000000000D+00  0.0000000000000D+00  0.0000000000000D+00
242  2.4100000000000D+00  0.0000000000000D+00  0.0000000000000D+00
243  2.4200000000000D+00  0.0000000000000D+00  0.0000000000000D+00
244  2.4300000000000D+00  0.0000000000000D+00  0.0000000000000D+00
245  2.4400000000000D+00  0.0000000000000D+00  0.0000000000000D+00
246  2.4500000000000D+00  0.0000000000000D+00  0.0000000000000D+00
247  2.4600000000000D+00  0.0000000000000D+00  0.0000000000000D+00
248  2.4700000000000D+00  0.0000000000000D+00  0.0000000000000D+00
249  2.4800000000000D+00  0.0000000000000D+00  0.0000000000000D+00
250  2.4900000000000D+00  0.0000000000000D+00  0.0000000000000D+00
251  2.5000000000000D+00  0.0000000000000D+00  0.0000000000000D+00
252  2.5100000000000D+00  0.0000000000000D+00  0.0000000000000D+00
253  2.5200000000000D+00  0.0000000000000D+00  0.0000000000000D+00
254  2.5300000000000D+00  0.0000000000000D+00  0.0000000000000D+00
255  2.5400000000000D+00  0.0000000000000D+00  0.0000000000000D+00
256  2.5500000000000D+00  0.0000000000000D+00  0.0000000000000D+00
257  2.5600000000000D+00  0.0000000000000D+00  0.0000000000000D+00
258  2.5700000000000D+00  0.0000000000000D+00  0.0000000000000D+00
259  2.5800000000000D+00  0.0000000000000D+00  0.0000000000000D+00
260  2.5900000000000D+00  0.0000000000000D+00  0.0000000000000D+00
261  2.6000000000000D+00  0.0000000000000D+00  0.0000000000000D+00
262  2.6100000000000D+00  0.0000000000000D+00  0.0000000000000D+00
263  2.6200000000000D+00  0.0000000000000D+00  0.0000000000000D+00
264  2.6300000000000D+00  0.0000000000000D+00  0.0000000000000D+00
265  2.6400000000000D+00  0.0000000000000D+00  0.0000000000000D+00
266  2.6500000000000D+00  0.0000000000000D+00  0.0000000000000D+00
267  2.6600000000000D+00  0.0000000000000D+00  0.0000000000000D+00
268  2.6700000000000D+00  0.0000000000000D+00  0.0000000000000D+00
269  2.6800000000000D+00  0.0000000000000D+00  0.0000000000000D+00
270  2.6900000000000D+00  0.0000000000000D+00  0.0000000000000D+00
271  2.7000000000000D+00  0.0000000000000D+00  0.0000000000000D+00
272  2.7100000000000D+00  0.0000000000000D+00  0.0000000000000D+00
273  2.7200000000000D+00  0.0000000000000D+00  0.0000000000000D+00
274  2.7300000000000D+00  0.0000000000000D+00  0.0000000000000D+00
275  2.7400000000000D+00  0.0000000000000D+00  0.0000000000000D+00
276  2.7500000000000D+00  0.0000000000000D+00  0.0000000000000D+00
277  2.7600000000000D+00  0.0000000000000D+00  0.0000000000000D+00
278  2.7700000000000D+00  0.0000000000000D+00  0.0000000000000D+00
279  2.7800000000000D+00  0.0000000000000D+00  0.0000000000000D+00
280  2.7900000000000D+00  0.0000000000000D+00  0.0000000000000D+00
281  2.8000000000000D+00  0.0000000000000D+00  0.0000000000000D+00
282  2.8100000000000D+00  0.0000000000000D+00  0.0000000000000D+00
283  2.8200000000000D+00  0.0000000000000D+00  0.0000000000000D+00
284  2.8300000000000D+00  0.0000000000000D+00  0.0000000000000D+00
285  2.8400000000000D+00  0.0000000000000D+00  0.0000000000000D+00
286  2.8500000000000D+00  0.0000000000000D+00  0.0000000000000D+00
287  2.8600000000000D+00  0.0000000000000D+00  0.0000000000000D+00
288  2.8700000000000D+00  0.0000000000000D+00  0.0000000000000D+00
289  2.8800000000000D+00  0.0000000000000D+00  0.0000000000000D+00
290  2.8900000000000D+00  0.0000000000000D+00  0.0000000000000D+00
291  2.9000000000000D+00  0.0000000000000D+00  0.0000000000000D+00
292  2.9100000000000D+00  0.0000000000000D+00  0.0000000000000D+00
293  2.9200000000000D+00  0.0000000000000D+00  0.0000000000000D+00
294  2.9300000000000D+00  0.0000000000000D+00  0.0000000000000D+00
295  2.9400000000000D+00  0.0000000000000D+00  0.0000000000000D+00
296  2.9500000000000D+00  0.0000000000000D+00  0.0000000000000D+00
297  2.9600000000000D+00  0.0000000000000D+00  0.0000000000000D+00
298  2.9700000000000D+00  0.0000000000000D+00  0.0000000000000D+00
299  2.9800000000000D+00  0.0000000000000D+00  0.0000000000000D+00
300  2.9900000000000D+00  0.0000000000000D+00  0.0000000000000D+00
301  3.0000000000000D+00  0.0000000000000D+00  0.0000000000000D+00
302  3.0100000000000D+00  0.0000000000000D+00  0.0000000000000D+00
303  3.0200000000000D+00  0.0000000000000D+00  0.0000000000000D+00
304  3.0300000000000D+00  0.0000000000000D+00  0.0000000000000D+00
305  3.0400000000000D+00  0.0000000000000D+00  0.0000000000000D+00
306  3.0500000000000D+00  0.0000000000000D+00  0.0000000000000D+00
307  3.0600000000000D+00  0.0000000000000D+00  0.0000000000000D+00
308  3.0700000000000D+00  0.0000000000000D+00  0.0000000000000D+00
309  3.0800000000000D+00  0.0000000000000D+00  0.0000000000000D+00
310  3.0900000000000D+00  0.0000000000000D+00  0.0000000000000D+00
311  3.1000000000000D+00  0.0000000000000D+00  0.0000000000000D+00
312  3.1100000000000D+00  0.0000000000000D+00  0.0000000000000D+00
313  3.1200000000000D+00  0.0000000000000D+00  0.0000000000000D+00
314  3.1300000000000D+00  0.0000000000000D+00  0.0000000000000D+00
315  3.1400000000000D+00  0.0000000000000D+00  0.0000000000000D+00
316  3.1500000000000D+00  0.0000000000000D+00  0.0000000000000D+00
317  3.1600000000000D+00  0.0000000000000D+00  0.0000000000000D+00
318  3.1700000000000D+00  0.0000000000000D+00  0.0000000000000D+00
319  3.1800000000000D+00  0.0000000000000D+00  0.0000000000000D+00
320  3.1900000000000D+00  0.0000000000000D+00  0.0000000000000D+00
321  3.2000000000000D+00  0.0000000000000D+00  0.0000000000000D+00
322  3.2100000000000D+00  0.0000000000000D+00  0.0000000000000D+00
323  3.2200000000000D+00  0.0000000000000D+00  0.0000000000000D+00
324  3.2300000000000D+00  0.0000000000000D+00  0.0000000000000D+00
325  3.2400000000000D+00  0.0000000000000D+00  0.0000000000000D+00
326  3.2500000000000D+00  0.0000000000000D+00  0.0000000000000D+00
327  3.2600000000000D+00  0.0000000000000D+00  0.0000000000000D+00
328  3.2700000000000D+00  0.0000000000000D+00  0.0000000000000D+00
329  3.2800000000000D+00  0.0000000000000D+00  0.0000000000000D+00
330  3.2900000000000D+00  0.0000000000000D+00  0.0000000000000D+00
331  3.3000000000000D+00  0.0000000000000D+00  0.0000000000000D+00
332  3.3100000000000D+00  0.0000000000000D+00  0.0000000000000D+00
333  3.3200000000000D+00  0.0000000000000D+00  0.0000000000000D+00
334  3.3300000000000D+00  0.0000000000000D+00  0.0000000000000D+00
335  3.3400000000000D+00  0.0000000000000D+00  0.0000000000000D+00
336  3.3500000000000D+00  0.0000000000000D+00  0.0000000000000D+00
337  3.3600000000000D+00  0.0000000000000D+00  0.0000000000000D+00
338  3.3700000000000D+00  0.0000000000000D+00  0.0000000000000D+00
339  3.3800000000000D+00  0.0000000000000D+00  0.0000000000000D+00
340  3.3900000000000D+00  0.0000000000000D+00  0.0000000000000D+00
341  3.4000000000000D+00  0.0000000000000D+00  0.0000000000000D+00
342  3.4100000000000D+00  0.0000000000000D+00  0.0000000000000D+00
343  3.4200000000000D+00  0.0000000000000D+00  0.0000000000000D+00
344  3.4300000000000D+00  0.0000000000000D+00  0.0000000000000D+00
345  3.4400000000000D+00  0.0000000000000D+00  0.0000000000000D+00
346  3.4500000000000D+00  0.0000000000000D+00  0.0000000000000D+00
347  3.4600000000000D+00  0.0000000000000D+00  0.0000000000000D+00
348  3.4700000000000D+00  0.0000000000000D+00  0.0000000000000D+00
349  3.4800000000000D+00  0.0000000000000D+00  0.0000000000000D+00
350  3.4900000000000D+00  0.0000000000000D+00  0.0000000000000D+00
351  3.5000000000000D+00  0.0000000000000D+00  0.0000000000000D+00
352  3.5100000000000D+00  0.0000000000000D+00  0.0000000000000D+00
353  3.5200000000000D+00  0.0000000000000D+00  0.0000000000000D+00
354  3.5300000000000D+00  0.0000000000000D+00  0.0000000000000D+00
355  3.5400000000000D+00  0.0000000000000D+00  0.0000000000000D+00
356  3.5500000000000D+00  0.0000000000000D+00  0.0000000000000D+00
357  3.5600000000000D+00  0.0000000000000D+00  0.0000000000000D+00
358  3.5700000000000D+00  0.0000000000000D+00  0.0000000000000D+00
359  3.5800000000000D+00  0.0000000000000D+00  0.0000000000000D+00
360  3.5900000000000D+00  0.0000000000000D+00  0.0000000000000D+00
361  3.6000000000000D+00  0.0000000000000D+00  0.0000000000000D+00
362  3.6100000000000D+00  0.0000000000000D+00  0.0000000000000D+00
363  3.6200000000000D+00  0.0000000000000D+00  0.0000000000000D+00
364  3.6300000000000D+00  0.0000000000000D+00  0.0000000000000D+00
365  3.6400000000000D+00  0.0000000000000D+00  0.0000000000000D+00
366  3.6500000000000D+00  0.0000000000000D+00  0.0000000000000D+00
367  3.6600000000000D+00  0.0000000000000D+00  0.0000000000000D+00
368  3.6700000000000D+00  0.0000000000000D+00  0.0000000000000D+00
369  3.6800000000000D+00  0.0000000000000D+00  0.0000000000000D+00
370  3.6900000000000D+00  0.0000000000000D+00  0.0000000000000D+00
371  3.7000000000000D+00  0.0000000000000D+00  0.0000000000000D+00
372  3.7100000000000D+00  0.0000000000000D+00  0.0000000000000D+00
373  3.7200000000000D+00  0.0000000000000D+00  0.0000000000000D+00
374  3.7300000000000D+00  0.0000000000000D+00  0.0000000000000D+00
375  3.7400000000000D+00  0.0000000000000D+00  0.0000000000000D+00
376  3.7500000000000D+00  0.0000000000000D+00  0.0000000000000D+00
377  3.7600000000000D+00  0.0000000000000D+00  0.0000000000000D+00
378  3.7700000000000D+00  0.0000000000000D+00  0.0000000000000D+00
379  3.7800000000000D+00  0.0000000000000D+00  0.0000000000000D+00
380  3.7900000000000D+00  0.0000000000000D+00  0.0000000000000D+00
381  3.8000000000000D+00  0.0000000000000D+00  0.0000000000000D+00
382  3.8100000000000D+00  0.0000000000000D+00  0.0000000000000D+00
383  3.8200000000000D+00  0.0000000000000D+00  0.0000000000000D+00
384  3.8300000000000D+00  0.0000000000000D+00  0.0000000000000D+00
385  3.8400000000000D+00  0.0000000000000D+00  0.0000000000000D+00
386  3.8500000000000D+00  0.0000000000000D+00  0.0000000000000D+00
387  3.8600000000000D+00  0.0000000000000D+00  0.0000000000000D+00
388  3.8700000000000D+00  0.0000000000000D+00  0.0000000000000D+00
389  3.8800000000000D+00  0.0000000000000D+00  0.0000000000000D+00
390  3.8900000000000D+00  0.0000000000000D+00  0.0000000000000D+00
391  3.9000000000000D+00  0.0000000000000D+00  0.0000000000000D+00
392  3.9100000000000D+00  0.0000000000000D+00  0.0000000000000D+00
393  3.9200000000000D+00  0.0000000000000D+00  0.0000000000000D+00
394  3.9300000000000D+00  0.0000000000000D+00  0.0000000000000D+00
395  3.9400000000000D+00  0.0000000000000D+00  0.0000000000000D+00
396  3.9500000000000D+00  0.0000000000000D+00  0.0000000000000D+00
397  3.9600000000000D+00  0.0000000000000D+00  0.0000000000000D+00
398  3.9700000000000D+00  0.0000000000000D+00  0.0000000000000D+00
399  3.9800000000000D+00  0.0000000000000D+00  0.0000000000000D+00
400  3.9900000000000D+00  0.0000000000000D+00  0.0000000000000D+00
401  4.0000000000000D+00  0.0000000000000D+00  0.0000000000000D+00
402  4.0100000000000D+00  0.0000000000000D+00  0.0000000000000D+00
403  4.0200000000000D+00  0.0000000000000D+00  0.0000000000000D+00
404  4.0300000000000D+00  0.0000000000000D+00  0.0000000000000D+00
405  4.0400000000000D+00  0.0000000000000D+00  0.0000000000000D+00
406  4.0500000000000D+00  0.0000000000000D+00  0.0000000000000D+00
407  4.0600000000000D+00  0.0000000000000D+00  0.0000000000000D+00
408  4.0700000000000D+00  0.0000000000000D+00  0.0000000000000D+00
409  4.0800000000000D+00  0.0000000000000D+00  0.0000000000000D+00
410  4.0900000000000D+00  0.0000000000000D+00  0.0000000000000D+00
411  4.1000000000000D+00  0.0000000000000D+00  0.0000000000000D+00
412  4.1100000000000D+00  0.0000000000000D+00  0.0000000000000D+00
413  4.1200000000000D+00  0.0000000000000D+00  0.0000000000000D+00
414  4.1300000000000D+00  0.0000000000000D+00  0.0000000000000D+00
415  4.1400000000000D+00  0.0000000000000D+00  0.0000000000000D+00
416  4.1500000000000D+00  0.0000000000000D+00  0.0000000000000D+00
417  4.1600000000000D+00  0.0000000000000D+00  0.0000000000000D+00
418  4.1700000000000D+00  0.0000000000000D+00  0.0000000000000D+00
419  4.1800000000000D+00  0.0000000000000D+00  0.0000000000000D+00
420  4.1900000000000D+00  0.0000000000000D+00  0.0000000000000D+00
421  4.2000000000000D+00  0.0000000000000D+00  0.0000000000000D+00
422  4.2100000000000D+00  0.0000000000000D+00  0.0000000000000D+00
423  4.2200000000000D+00  0.0000000000000D+00  0.0000000000000D+00
424  4.2300000000000D+00  0.0000000000000D+00  0.0000000000000D+00
425  4.2400000000000D+00  0.0000000000000D+00  0.0000000000000D+00
426  4.2500000000000D+00  0.0000000000000D+00  0.0000000000000D+00
427  4.2600000000000D+00  0.0000000000000D+00  0.0000000000000D+00
428  4.2700000000000D+00  0.0000000000000D+00  0.0000000000000D+00
429  4.2800000000000D+00  0.0000000000000D+00  0.0000000000000D+00
430  4.2900000000000D+00  0.0000000000000D+00  0.0000000000000D+00
431  4.3000000000000D+00  0.0000000000000D+00  0.0000000000000D+00
432  4.3100000000000D+00  0.0000000000000D+00  0.0000000000000D+00
433  4.3200000000000D+00  0.0000000000000D+00  0.0000000000000D+00
434  4.3300000000000D+00  0.0000000000000D+00  0.0000000000000D+00
435  4.3400000000000D+00  0.0000000000000D+00  0.0000000000000D+00
436  4.3500000000000D+00  0.0000000000000D+00  0.0000000000000D+00
437  4.3600000000000D+00  0.0000000000000D+00  0.0000000000000D+00
438  4.3700000000000D+00  0.0000000000000D+00  0.0000000000000D+00
439  4.3800000000000D+00  0.0000000000000D+00  0.0000000000000D+00
440  4.3900000000000D+00  0.0000000000000D+00  0.0000000000000D+00
441  4.4000000000000D+00  0.0000000000000D+00  0.0000000000000D+00
442  4.4100000000000D+00  0.0000000000000D+00  0.0000000000000D+00
443  4.4200000000000D+00  0.0000000000000D+00  0.0000000000000D+00