Rn    ONCVPSP-3.2.3  r_core=   2.20741   2.00650   1.80225
86.0000     18.0000      161219    zatom,zion,pspd
8   -1012   2     4   600     0    pspcod,pspxc,lmax,lloc,mmax,r2well
5.99000000  6.00000000  0.00000000    rchrg fchrg qchrg
2     2     2     0     0    nproj
1     1           extension_switch
0                         7.5658921255524D+00  1.4409368128315D+00
1  0.0000000000000D+00  3.6652625379219D-12 -1.0126094407426D-11
2  1.0000000000000D-02  1.4609714369188D-02  1.3683423341385D-02
3  2.0000000000000D-02  2.9244441851406D-02  2.7292837533545D-02
4  3.0000000000000D-02  4.3929077735300D-02  4.0754538599733D-02
5  4.0000000000000D-02  5.8688282032323D-02  5.3995431890499D-02
6  5.0000000000000D-02  7.3546362766176D-02  6.6943334205732D-02
7  6.0000000000000D-02  8.8527160373318D-02  7.9527272873858D-02
8  7.0000000000000D-02  1.0365393358063D-01  9.1677780785726D-02
9  8.0000000000000D-02  1.1894924712265D-01  1.0332718639082D-01
10  9.0000000000000D-02  1.3443486165625D-01  1.1440989767612D-01
11  1.0000000000000D-01  1.5013162622504D-01  1.2486267916306D-01
12  1.1000000000000D-01  1.6605937361965D-01  1.3462492097575D-01
13  1.2000000000000D-01  1.8223681897241D-01  1.4363889905388D-01
14  1.3000000000000D-01  1.9868146191714D-01  1.5185002560635D-01
15  1.4000000000000D-01  2.1540949263550D-01  1.5920708892704D-01
16  1.5000000000000D-01  2.3243570210145D-01  1.6566248172166D-01
17  1.6000000000000D-01  2.4977339682474D-01  1.7117241712501D-01
18  1.7000000000000D-01  2.6743431838249D-01  1.7569713162047D-01
19  1.8000000000000D-01  2.8542856801570D-01  1.7920107410869D-01
20  1.9000000000000D-01  3.0376453655417D-01  1.8165308040986D-01
21  2.0000000000000D-01  3.2244883991900D-01  1.8302653252395D-01
22  2.1000000000000D-01  3.4148626043745D-01  1.8329950201523D-01
23  2.2000000000000D-01  3.6087969418880D-01  1.8245487693205D-01
24  2.3000000000000D-01  3.8063010458397D-01  1.8048047171950D-01
25  2.4000000000000D-01  4.0073648236407D-01  1.7736911963121D-01
26  2.5000000000000D-01  4.2119581218589D-01  1.7311874719799D-01
27  2.6000000000000D-01  4.4200304594332D-01  1.6773243036322D-01
28  2.7000000000000D-01  4.6315108295523D-01  1.6121843195058D-01
29  2.8000000000000D-01  4.8463075713030D-01  1.5359022018572D-01
30  2.9000000000000D-01  5.0643083119941D-01  1.4486646805242D-01
31  3.0000000000000D-01  5.2853799808548D-01  1.3507103332342D-01
32  3.1000000000000D-01  5.5093688945951D-01  1.2423291916775D-01
33  3.2000000000000D-01  5.7361009151016D-01  1.1238621529923D-01
34  3.3000000000000D-01  5.9653816793235D-01  9.9570019694615D-02
35  3.4000000000000D-01  6.1969969011811D-01  8.5828340974994D-02
36  3.5000000000000D-01  6.4307127451059D-01  7.1209981609697D-02
37  3.6000000000000D-01  6.6662762705969D-01  5.5768402168515D-02
38  3.7000000000000D-01  6.9034159469479D-01  3.9561566914960D-02
39  3.8000000000000D-01  7.1418422370754D-01  2.2651771100280D-02
40  3.9000000000000D-01  7.3812482491493D-01  5.1054503852124D-03
41  4.0000000000000D-01  7.6213104544999D-01 -1.3007027116602D-02
42  4.1000000000000D-01  7.8616894700528D-01 -3.1611585613137D-02
43  4.2000000000000D-01  8.1020309033170D-01 -5.0630682600062D-02
44  4.3000000000000D-01  8.3419662577348D-01 -6.9983565327357D-02
45  4.4000000000000D-01  8.5811138959856D-01 -8.9586542011375D-02
46  4.5000000000000D-01  8.8190800586208D-01 -1.0935326697517D-01
47  4.6000000000000D-01  9.0554599352074D-01 -1.2919503883933D-01
48  4.7000000000000D-01  9.2898387849507D-01 -1.4902111082676D-01
49  4.8000000000000D-01  9.5217931035807D-01 -1.6873901218874D-01
50  4.9000000000000D-01  9.7508918330945D-01 -1.8825487970553D-01
51  5.0000000000000D-01  9.9766976107765D-01 -2.0747379816371D-01
52  5.1000000000000D-01  1.0198768053746D+00 -2.2630014866461D-01
53  5.2000000000000D-01  1.0416657075129D+00 -2.4463796357318D-01
54  5.3000000000000D-01  1.0629916227797D+00 -2.6239128687577D-01
55  5.4000000000000D-01  1.0838096071491D+00 -2.7946453867763D-01
56  5.5000000000000D-01  1.1040747559019D+00 -2.9576288253807D-01
57  5.6000000000000D-01  1.1237423437103D+00 -3.1119259431172D-01
58  5.7000000000000D-01  1.1427679657361D+00 -3.2566143114018D-01
59  5.8000000000000D-01  1.1611076792835D+00 -3.3907899921868D-01
60  5.9000000000000D-01  1.1787181455381D+00 -3.5135711894694D-01
61  6.0000000000000D-01  1.1955567709219D+00 -3.6241018606429D-01
62  6.1000000000000D-01  1.2115818475882D+00 -3.7215552736404D-01
63  6.2000000000000D-01  1.2267526925787D+00 -3.8051374958337D-01
64  6.3000000000000D-01  1.2410297851660D+00 -3.8740908007077D-01
65  6.4000000000000D-01  1.2543749019038D+00 -3.9276969784573D-01
66  6.5000000000000D-01  1.2667512489122D+00 -3.9652805368214D-01
67  6.6000000000000D-01  1.2781235909293D+00 -3.9862117787093D-01
68  6.7000000000000D-01  1.2884583766659D+00 -3.9899097434594D-01
69  6.8000000000000D-01  1.2977238600115D+00 -3.9758449989232D-01
70  6.9000000000000D-01  1.3058902166453D+00 -3.9435422719689D-01
71  7.0000000000000D-01  1.3129296556216D+00 -3.8925829054632D-01
72  7.1000000000000D-01  1.3188165255095D+00 -3.8226071303075D-01
73  7.2000000000000D-01  1.3235274146851D+00 -3.7333161416767D-01
74  7.3000000000000D-01  1.3270412453868D+00 -3.6244739692352D-01
75  7.4000000000000D-01  1.3293393611672D+00 -3.4959091317841D-01
76  7.5000000000000D-01  1.3304056073929D+00 -3.3475160675176D-01
77  7.6000000000000D-01  1.3302264044635D+00 -3.1792563318467D-01
78  7.7000000000000D-01  1.3287908134478D+00 -2.9911595555667D-01
79  7.8000000000000D-01  1.3260905938566D+00 -2.7833241570063D-01
80  7.9000000000000D-01  1.3221202532971D+00 -2.5559178027028D-01
81  8.0000000000000D-01  1.3168770887836D+00 -2.3091776120836D-01
82  8.1000000000000D-01  1.3103612195036D+00 -2.0434101026057D-01
83  8.2000000000000D-01  1.3025756108691D+00 -1.7589908728083D-01
84  8.3000000000000D-01  1.2935260897145D+00 -1.4563640217551D-01
85  8.4000000000000D-01  1.2832213505295D+00 -1.1360413043940D-01
86  8.5000000000000D-01  1.2716729526505D+00 -7.9860102342014D-02
87  8.6000000000000D-01  1.2588953083636D+00 -4.4468665930909D-02
88  8.7000000000000D-01  1.2449056619072D+00 -7.5005241266910D-03
89  8.8000000000000D-01  1.2297240593918D+00  3.0967453707112D-02
90  8.9000000000000D-01  1.2133733096916D+00  7.0852445227256D-02
91  9.0000000000000D-01  1.1958789363928D+00  1.1206591300779D-01
92  9.1000000000000D-01  1.1772691209177D+00  1.5451386616464D-01
93  9.2000000000000D-01  1.1575746369763D+00  1.9809714489695D-01
94  9.3000000000000D-01  1.1368287765309D+00  2.4271172703130D-01
95  9.4000000000000D-01  1.1150672674891D+00  2.8824905555521D-01
96  9.5000000000000D-01  1.0923281833749D+00  3.3459638602919D-01
97  9.6000000000000D-01  1.0686518452553D+00  3.8163715267342D-01
98  9.7000000000000D-01  1.0440807162331D+00  4.2925135183604D-01
99  9.8000000000000D-01  1.0186592888424D+00  4.7731594146528D-01
100  9.9000000000000D-01  9.9243396571367D-01  5.2570525512797D-01
101  1.0000000000000D+00  9.6545293389959D-01  5.7429142904359D-01
102  1.0100000000000D+00  9.3776603327975D-01  6.2294484053403D-01
103  1.0200000000000D+00  9.0942461948504D-01  6.7153455622702D-01
104  1.0300000000000D+00  8.8048142180480D-01  7.1992878829641D-01
105  1.0400000000000D+00  8.5099039656015D-01  7.6799535697358D-01
106  1.0500000000000D+00  8.2100657644576D-01  8.1560215752260D-01
107  1.0600000000000D+00  7.9058591635825D-01  8.6261762983927D-01
108  1.0700000000000D+00  7.5978513624460D-01  9.0891122880666D-01
109  1.0800000000000D+00  7.2866156151675D-01  9.5435389352198D-01
110  1.0900000000000D+00  6.9727296158844D-01  9.9881851349990D-01
111  1.1000000000000D+00  6.6567738709934D-01  1.0421803899565D+00
112  1.1100000000000D+00  6.3393300639669D-01  1.0843176902829D+00
113  1.1200000000000D+00  6.0209794184974D-01  1.1251118938330D+00
114  1.1300000000000D+00  5.7023010657296D-01  1.1644482271734D+00
115  1.1400000000000D+00  5.3838704213345D-01  1.2022160869778D+00
116  1.1500000000000D+00  5.0662575781477D-01  1.2383094487836D+00
117  1.1600000000000D+00  4.7500257200521D-01  1.2726272598765D+00
118  1.1700000000000D+00  4.4357295626959D-01  1.3050738146290D+00
119  1.1800000000000D+00  4.1239138265271D-01  1.3355591106895D+00
120  1.1900000000000D+00  3.8151117475488D-01  1.3639991844651D+00
121  1.2000000000000D+00  3.5098436310152D-01  1.3903164244458D+00
122  1.2100000000000D+00  3.2086154531285D-01  1.4144398609989D+00
123  1.2200000000000D+00  2.9119175156166D-01  1.4363054313510D+00
124  1.2300000000000D+00  2.6202231579208D-01  1.4558562185534D+00
125  1.2400000000000D+00  2.3339875314035D-01  1.4730426633729D+00
126  1.2500000000000D+00  2.0536464397571D-01  1.4878227481543D+00
127  1.2600000000000D+00  1.7796152497057D-01  1.5001621517415D+00
128  1.2700000000000D+00  1.5122878755757D-01  1.5100343747730D+00
129  1.2800000000000D+00  1.2520358410777D-01  1.5174208347584D+00
130  1.2900000000000D+00  9.9920742161652D-02  1.5223109303621D+00
131  1.3000000000000D+00  7.5412686971465D-02  1.5247020746192D+00
132  1.3100000000000D+00  5.1709372597957D-02  1.5245996968676D+00
133  1.3200000000000D+00  2.8838221801065D-02  1.5220172131983D+00
134  1.3300000000000D+00  6.8240748728507D-03  1.5169759655852D+00
135  1.3400000000000D+00 -1.4310852434789D-02  1.5095051298323D+00
136  1.3500000000000D+00 -3.4547001757658D-02  1.4996415925681D+00
137  1.3600000000000D+00 -5.3867495707760D-02  1.4874297978752D+00
138  1.3700000000000D+00 -7.2258152132619D-02  1.4729215640000D+00
139  1.3800000000000D+00 -8.9707489046830D-02  1.4561758708662D+00
140  1.3900000000000D+00 -1.0620672030708D-01  1.4372586193378D+00
141  1.4000000000000D+00 -1.2174974203108D-01  1.4162423629513D+00
142  1.4100000000000D+00 -1.3633310993155D-01  1.3932060134126D+00
143  1.4200000000000D+00 -1.4995600766793D-01  1.3682345209132D+00
144  1.4300000000000D+00 -1.6262020637270D-01  1.3414185305204D+00
145  1.4400000000000D+00 -1.7433001561578D-01  1.3128540162074D+00
146  1.4500000000000D+00 -1.8509222595197D-01  1.2826418937415D+00
147  1.4600000000000D+00 -1.9491604340457D-01  1.2508876142690D+00
148  1.4700000000000D+00 -2.0381301611907D-01  1.2177007400687D+00
149  1.4800000000000D+00 -2.1179695352382D-01  1.1831945042710D+00
150  1.4900000000000D+00 -2.1888383837170D-01  1.1474853563805D+00
151  1.5000000000000D+00 -2.2509173196919D-01  1.1106924953307D+00
152  1.5100000000000D+00 -2.3044067307323D-01  1.0729373921436D+00
153  1.5200000000000D+00 -2.3495257077602D-01  1.0343433039648D+00
154  1.5300000000000D+00 -2.3865109189258D-01  9.9503478159503D-01
155  1.5400000000000D+00 -2.4156154323912D-01  9.5513717241017D-01
156  1.5500000000000D+00 -2.4371074930189D-01  9.1477612075607D-01
157  1.5600000000000D+00 -2.4512692575747D-01  8.7407706776509D-01
158  1.5700000000000D+00 -2.4583954933032D-01  8.3316475269271D-01
159  1.5800000000000D+00 -2.4587922449185D-01  7.9216271763124D-01
160  1.5900000000000D+00 -2.4527754748999D-01  7.5119281778681D-01
161  1.6000000000000D+00 -2.4406696822099D-01  7.1037473894082D-01
162  1.6100000000000D+00 -2.4228065045368D-01  6.6982552442783D-01
163  1.6200000000000D+00 -2.3995233089276D-01  6.2965911292159D-01
164  1.6300000000000D+00 -2.3711617762253D-01  5.8998588947608D-01
165  1.6400000000000D+00 -2.3380664837422D-01  5.5091225080659D-01
166  1.6500000000000D+00 -2.3005834918187D-01  5.1254018724590D-01
167  1.6600000000000D+00 -2.2590589382325D-01  4.7496688211473D-01
168  1.6700000000000D+00 -2.2138376462137D-01  4.3828433084773D-01
169  1.6800000000000D+00 -2.1652617495140D-01  4.0257898035215D-01
170  1.6900000000000D+00 -2.1136693403279D-01  3.6793139083963D-01
171  1.7000000000000D+00 -2.0593931428819D-01  3.3441592028440D-01
172  1.7100000000000D+00 -2.0027592185540D-01  3.0210043368427D-01
173  1.7200000000000D+00 -1.9440857045153D-01  2.7104603685792D-01
174  1.7300000000000D+00 -1.8836815919428D-01  2.4130683697083D-01
175  1.7400000000000D+00 -1.8218455429040D-01  2.1292972829868D-01
176  1.7500000000000D+00 -1.7588647530934D-01  1.8595420582423D-01
177  1.7600000000000D+00 -1.6950139019575D-01  1.6041222119440D-01
178  1.7700000000000D+00 -1.6305539505528D-01  1.3632799143808D-01
179  1.7800000000000D+00 -1.5657316362841D-01  1.1371806965632D-01
180  1.7900000000000D+00 -1.5007780859475D-01  9.2591114131089D-02
181  1.8000000000000D+00 -1.4359071408090D-01  7.2947519119689D-02
182  1.8100000000000D+00 -1.3713166706693D-01  5.4780210079727D-02
183  1.8200000000000D+00 -1.3071892921724D-01  3.8075231716631D-02
184  1.8300000000000D+00 -1.2436935408489D-01  2.2812393917169D-02
185  1.8400000000000D+00 -1.1809859733199D-01  8.9662609969258D-03
186  1.8500000000000D+00 -1.1192116358290D-01 -3.4934881015244D-03
187  1.8600000000000D+00 -1.0585036489378D-01 -1.4602060590417D-02
188  1.8700000000000D+00 -9.9898339490495D-02 -2.4399317416602D-02
189  1.8800000000000D+00 -9.4076103735785D-02 -3.2929393106975D-02
190  1.8900000000000D+00 -8.8393571328148D-02 -4.0240455338816D-02
191  1.9000000000000D+00 -8.2859594308005D-02 -4.6384375931659D-02
192  1.9100000000000D+00 -7.7482001195721D-02 -5.1416414206721D-02
193  1.9200000000000D+00 -7.2267639752592D-02 -5.5394883016608D-02
194  1.9300000000000D+00 -6.7222422529387D-02 -5.8380805133468D-02
195  1.9400000000000D+00 -6.2351375133471D-02 -6.0437560644534D-02
196  1.9500000000000D+00 -5.7658686771578D-02 -6.1630527424634D-02
197  1.9600000000000D+00 -5.3147762752010D-02 -6.2026716310537D-02
198  1.9700000000000D+00 -4.8821278665681D-02 -6.1694402468965D-02
199  1.9800000000000D+00 -4.4681235832959D-02 -6.0702754812511D-02
200  1.9900000000000D+00 -4.0729017721985D-02 -5.9121465194904D-02
201  2.0000000000000D+00 -3.6965447010457D-02 -5.7020378718483D-02
202  2.0100000000000D+00 -3.3390842877814D-02 -5.4469127413853D-02
203  2.0200000000000D+00 -3.0005078277234D-02 -5.1536768385536D-02
204  2.0300000000000D+00 -2.6807636827072D-02 -4.8291428201291D-02
205  2.0400000000000D+00 -2.3797668873852D-02 -4.4799955794319D-02
206  2.0500000000000D+00 -2.0974046728966D-02 -4.1127583691868D-02
207  2.0600000000000D+00 -1.8335418267441D-02 -3.7337601712361D-02
208  2.0700000000000D+00 -1.5880259112210D-02 -3.3491041861518D-02
209  2.0800000000000D+00 -1.3606922764225D-02 -2.9646377613641D-02
210  2.0900000000000D+00 -1.1513688379203D-02 -2.5859239014803D-02
211  2.1000000000000D+00 -9.5988064290783D-03 -2.2182142362735D-02
212  2.1100000000000D+00 -7.8605410780901D-03 -1.8664240227695D-02
213  2.1200000000000D+00 -6.2972100653388D-03 -1.5351087857409D-02
214  2.1300000000000D+00 -4.9072418129067D-03 -1.2284506119266D-02
215  2.1400000000000D+00 -3.6900210000596D-03 -9.5053646724192D-03
216  2.1500000000000D+00 -2.6422289088278D-03 -7.0399065540430D-03
217  2.1600000000000D+00 -1.7609097304722D-03 -4.9084689280437D-03
218  2.1700000000000D+00 -1.0483034502407D-03 -3.1497129577752D-03
219  2.1800000000000D+00 -5.1074087143613D-04 -1.8157650376018D-03
220  2.1900000000000D+00 -1.4810462423638D-04 -9.4167360762358D-04
221  2.2000000000000D+00  5.4346165238973D-05 -4.3560996277273D-04
222  2.2100000000000D+00  1.2104612209643D-04 -1.7786968218620D-04
223  2.2200000000000D+00  8.9786928345035D-05 -5.2252718950521D-05
224  2.2300000000000D+00  2.3902840821386D-05 -6.5047534387208D-06
225  2.2400000000000D+00 -1.6648068078931D-05  2.5112169068768D-06
226  2.2500000000000D+00 -1.8766686631016D-05  7.0808184777676D-07
227  2.2600000000000D+00 -1.4333098981955D-06 -5.2648039515154D-08
228  2.2700000000000D+00  4.0978714449569D-06 -1.3901648166508D-06
229  2.2800000000000D+00  3.2589328506019D-06 -9.4640005663609D-07
230  2.2900000000000D+00 -9.4582536133293D-08  1.8766735467607D-07
231  2.3000000000000D+00 -3.2867028687235D-07  6.5213606887252D-07
232  2.3100000000000D+00 -1.7770858851909D-07  3.5260315565651D-07
233  2.3200000000000D+00  0.0000000000000D+00  0.0000000000000D+00
234  2.3300000000000D+00  0.0000000000000D+00  0.0000000000000D+00
235  2.3400000000000D+00  0.0000000000000D+00  0.0000000000000D+00
236  2.3500000000000D+00  0.0000000000000D+00  0.0000000000000D+00
237  2.3600000000000D+00  0.0000000000000D+00  0.0000000000000D+00
238  2.3700000000000D+00  0.0000000000000D+00  0.0000000000000D+00
239  2.3800000000000D+00  0.0000000000000D+00  0.0000000000000D+00
240  2.3900000000000D+00  0.0000000000000D+00  0.0000000000000D+00
241  2.4000000000000D+00  0.0000000000000D+00  0.0000000000000D+00
242  2.4100000000000D+00  0.0000000000000D+00  0.0000000000000D+00
243  2.4200000000000D+00  0.0000000000000D+00  0.0000000000000D+00
244  2.4300000000000D+00  0.0000000000000D+00  0.0000000000000D+00
245  2.4400000000000D+00  0.0000000000000D+00  0.0000000000000D+00
246  2.4500000000000D+00  0.0000000000000D+00  0.0000000000000D+00
247  2.4600000000000D+00  0.0000000000000D+00  0.0000000000000D+00
248  2.4700000000000D+00  0.0000000000000D+00  0.0000000000000D+00
249  2.4800000000000D+00  0.0000000000000D+00  0.0000000000000D+00
250  2.4900000000000D+00  0.0000000000000D+00  0.0000000000000D+00
251  2.5000000000000D+00  0.0000000000000D+00  0.0000000000000D+00
252  2.5100000000000D+00  0.0000000000000D+00  0.0000000000000D+00
253  2.5200000000000D+00  0.0000000000000D+00  0.0000000000000D+00
254  2.5300000000000D+00  0.0000000000000D+00  0.0000000000000D+00
255  2.5400000000000D+00  0.0000000000000D+00  0.0000000000000D+00
256  2.5500000000000D+00  0.0000000000000D+00  0.0000000000000D+00
257  2.5600000000000D+00  0.0000000000000D+00  0.0000000000000D+00
258  2.5700000000000D+00  0.0000000000000D+00  0.0000000000000D+00
259  2.5800000000000D+00  0.0000000000000D+00  0.0000000000000D+00
260  2.5900000000000D+00  0.0000000000000D+00  0.0000000000000D+00
261  2.6000000000000D+00  0.0000000000000D+00  0.0000000000000D+00
262  2.6100000000000D+00  0.0000000000000D+00  0.0000000000000D+00
263  2.6200000000000D+00  0.0000000000000D+00  0.0000000000000D+00
264  2.6300000000000D+00  0.0000000000000D+00  0.0000000000000D+00
265  2.6400000000000D+00  0.0000000000000D+00  0.0000000000000D+00
266  2.6500000000000D+00  0.0000000000000D+00  0.0000000000000D+00
267  2.6600000000000D+00  0.0000000000000D+00  0.0000000000000D+00
268  2.6700000000000D+00  0.0000000000000D+00  0.0000000000000D+00
269  2.6800000000000D+00  0.0000000000000D+00  0.0000000000000D+00
270  2.6900000000000D+00  0.0000000000000D+00  0.0000000000000D+00
271  2.7000000000000D+00  0.0000000000000D+00  0.0000000000000D+00
272  2.7100000000000D+00  0.0000000000000D+00  0.0000000000000D+00
273  2.7200000000000D+00  0.0000000000000D+00  0.0000000000000D+00
274  2.7300000000000D+00  0.0000000000000D+00  0.0000000000000D+00
275  2.7400000000000D+00  0.0000000000000D+00  0.0000000000000D+00
276  2.7500000000000D+00  0.0000000000000D+00  0.0000000000000D+00
277  2.7600000000000D+00  0.0000000000000D+00  0.0000000000000D+00
278  2.7700000000000D+00  0.0000000000000D+00  0.0000000000000D+00
279  2.7800000000000D+00  0.0000000000000D+00  0.0000000000000D+00
280  2.7900000000000D+00  0.0000000000000D+00  0.0000000000000D+00
281  2.8000000000000D+00  0.0000000000000D+00  0.0000000000000D+00
282  2.8100000000000D+00  0.0000000000000D+00  0.0000000000000D+00
283  2.8200000000000D+00  0.0000000000000D+00  0.0000000000000D+00
284  2.8300000000000D+00  0.0000000000000D+00  0.0000000000000D+00
285  2.8400000000000D+00  0.0000000000000D+00  0.0000000000000D+00
286  2.8500000000000D+00  0.0000000000000D+00  0.0000000000000D+00
287  2.8600000000000D+00  0.0000000000000D+00  0.0000000000000D+00
288  2.8700000000000D+00  0.0000000000000D+00  0.0000000000000D+00
289  2.8800000000000D+00  0.0000000000000D+00  0.0000000000000D+00
290  2.8900000000000D+00  0.0000000000000D+00  0.0000000000000D+00
291  2.9000000000000D+00  0.0000000000000D+00  0.0000000000000D+00
292  2.9100000000000D+00  0.0000000000000D+00  0.0000000000000D+00
293  2.9200000000000D+00  0.0000000000000D+00  0.0000000000000D+00
294  2.9300000000000D+00  0.0000000000000D+00  0.0000000000000D+00
295  2.9400000000000D+00  0.0000000000000D+00  0.0000000000000D+00
296  2.9500000000000D+00  0.0000000000000D+00  0.0000000000000D+00
297  2.9600000000000D+00  0.0000000000000D+00  0.0000000000000D+00
298  2.9700000000000D+00  0.0000000000000D+00  0.0000000000000D+00
299  2.9800000000000D+00  0.0000000000000D+00  0.0000000000000D+00
300  2.9900000000000D+00  0.0000000000000D+00  0.0000000000000D+00
301  3.0000000000000D+00  0.0000000000000D+00  0.0000000000000D+00
302  3.0100000000000D+00  0.0000000000000D+00  0.0000000000000D+00
303  3.0200000000000D+00  0.0000000000000D+00  0.0000000000000D+00
304  3.0300000000000D+00  0.0000000000000D+00  0.0000000000000D+00
305  3.0400000000000D+00  0.0000000000000D+00  0.0000000000000D+00
306  3.0500000000000D+00  0.0000000000000D+00  0.0000000000000D+00
307  3.0600000000000D+00  0.0000000000000D+00  0.0000000000000D+00
308  3.0700000000000D+00  0.0000000000000D+00  0.0000000000000D+00
309  3.0800000000000D+00  0.0000000000000D+00  0.0000000000000D+00
310  3.0900000000000D+00  0.0000000000000D+00  0.0000000000000D+00
311  3.1000000000000D+00  0.0000000000000D+00  0.0000000000000D+00
312  3.1100000000000D+00  0.0000000000000D+00  0.0000000000000D+00
313  3.1200000000000D+00  0.0000000000000D+00  0.0000000000000D+00
314  3.1300000000000D+00  0.0000000000000D+00  0.0000000000000D+00
315  3.1400000000000D+00  0.0000000000000D+00  0.0000000000000D+00
316  3.1500000000000D+00  0.0000000000000D+00  0.0000000000000D+00
317  3.1600000000000D+00  0.0000000000000D+00  0.0000000000000D+00
318  3.1700000000000D+00  0.0000000000000D+00  0.0000000000000D+00
319  3.1800000000000D+00  0.0000000000000D+00  0.0000000000000D+00
320  3.1900000000000D+00  0.0000000000000D+00  0.0000000000000D+00
321  3.2000000000000D+00  0.0000000000000D+00  0.0000000000000D+00
322  3.2100000000000D+00  0.0000000000000D+00  0.0000000000000D+00
323  3.2200000000000D+00  0.0000000000000D+00  0.0000000000000D+00
324  3.2300000000000D+00  0.0000000000000D+00  0.0000000000000D+00
325  3.2400000000000D+00  0.0000000000000D+00  0.0000000000000D+00
326  3.2500000000000D+00  0.0000000000000D+00  0.0000000000000D+00
327  3.2600000000000D+00  0.0000000000000D+00  0.0000000000000D+00
328  3.2700000000000D+00  0.0000000000000D+00  0.0000000000000D+00
329  3.2800000000000D+00  0.0000000000000D+00  0.0000000000000D+00
330  3.2900000000000D+00  0.0000000000000D+00  0.0000000000000D+00
331  3.3000000000000D+00  0.0000000000000D+00  0.0000000000000D+00
332  3.3100000000000D+00  0.0000000000000D+00  0.0000000000000D+00
333  3.3200000000000D+00  0.0000000000000D+00  0.0000000000000D+00
334  3.3300000000000D+00  0.0000000000000D+00  0.0000000000000D+00
335  3.3400000000000D+00  0.0000000000000D+00  0.0000000000000D+00
336  3.3500000000000D+00  0.0000000000000D+00  0.0000000000000D+00
337  3.3600000000000D+00  0.0000000000000D+00  0.0000000000000D+00
338  3.3700000000000D+00  0.0000000000000D+00  0.0000000000000D+00
339  3.3800000000000D+00  0.0000000000000D+00  0.0000000000000D+00
340  3.3900000000000D+00  0.0000000000000D+00  0.0000000000000D+00
341  3.4000000000000D+00  0.0000000000000D+00  0.0000000000000D+00
342  3.4100000000000D+00  0.0000000000000D+00  0.0000000000000D+00
343  3.4200000000000D+00  0.0000000000000D+00  0.0000000000000D+00
344  3.4300000000000D+00  0.0000000000000D+00  0.0000000000000D+00
345  3.4400000000000D+00  0.0000000000000D+00  0.0000000000000D+00
346  3.4500000000000D+00  0.0000000000000D+00  0.0000000000000D+00
347  3.4600000000000D+00  0.0000000000000D+00  0.0000000000000D+00
348  3.4700000000000D+00  0.0000000000000D+00  0.0000000000000D+00
349  3.4800000000000D+00  0.0000000000000D+00  0.0000000000000D+00
350  3.4900000000000D+00  0.0000000000000D+00  0.0000000000000D+00
351  3.5000000000000D+00  0.0000000000000D+00  0.0000000000000D+00
352  3.5100000000000D+00  0.0000000000000D+00  0.0000000000000D+00
353  3.5200000000000D+00  0.0000000000000D+00  0.0000000000000D+00
354  3.5300000000000D+00  0.0000000000000D+00  0.0000000000000D+00
355  3.5400000000000D+00  0.0000000000000D+00  0.0000000000000D+00
356  3.5500000000000D+00  0.0000000000000D+00  0.0000000000000D+00
357  3.5600000000000D+00  0.0000000000000D+00  0.0000000000000D+00
358  3.5700000000000D+00  0.0000000000000D+00  0.0000000000000D+00
359  3.5800000000000D+00  0.0000000000000D+00  0.0000000000000D+00
360  3.5900000000000D+00  0.0000000000000D+00  0.0000000000000D+00
361  3.6000000000000D+00  0.0000000000000D+00  0.0000000000000D+00
362  3.6100000000000D+00  0.0000000000000D+00  0.0000000000000D+00
363  3.6200000000000D+00  0.0000000000000D+00  0.0000000000000D+00
364  3.6300000000000D+00  0.0000000000000D+00  0.0000000000000D+00
365  3.6400000000000D+00  0.0000000000000D+00  0.0000000000000D+00
366  3.6500000000000D+00  0.0000000000000D+00  0.0000000000000D+00
367  3.6600000000000D+00  0.0000000000000D+00  0.0000000000000D+00
368  3.6700000000000D+00  0.0000000000000D+00  0.0000000000000D+00
369  3.6800000000000D+00  0.0000000000000D+00  0.0000000000000D+00
370  3.6900000000000D+00  0.0000000000000D+00  0.0000000000000D+00
371  3.7000000000000D+00  0.0000000000000D+00  0.0000000000000D+00
372  3.7100000000000D+00  0.0000000000000D+00  0.0000000000000D+00
373  3.7200000000000D+00  0.0000000000000D+00  0.0000000000000D+00
374  3.7300000000000D+00  0.0000000000000D+00  0.0000000000000D+00
375  3.7400000000000D+00  0.0000000000000D+00  0.0000000000000D+00
376  3.7500000000000D+00  0.0000000000000D+00  0.0000000000000D+00
377  3.7600000000000D+00  0.0000000000000D+00  0.0000000000000D+00
378  3.7700000000000D+00  0.0000000000000D+00  0.0000000000000D+00
379  3.7800000000000D+00  0.0000000000000D+00  0.0000000000000D+00
380  3.7900000000000D+00  0.0000000000000D+00  0.0000000000000D+00
381  3.8000000000000D+00  0.0000000000000D+00  0.0000000000000D+00
382  3.8100000000000D+00  0.0000000000000D+00  0.0000000000000D+00
383  3.8200000000000D+00  0.0000000000000D+00  0.0000000000000D+00
384  3.8300000000000D+00  0.0000000000000D+00  0.0000000000000D+00
385  3.8400000000000D+00  0.0000000000000D+00  0.0000000000000D+00
386  3.8500000000000D+00  0.0000000000000D+00  0.0000000000000D+00
387  3.8600000000000D+00  0.0000000000000D+00  0.0000000000000D+00
388  3.8700000000000D+00  0.0000000000000D+00  0.0000000000000D+00
389  3.8800000000000D+00  0.0000000000000D+00  0.0000000000000D+00
390  3.8900000000000D+00  0.0000000000000D+00  0.0000000000000D+00
391  3.9000000000000D+00  0.0000000000000D+00  0.0000000000000D+00
392  3.9100000000000D+00  0.0000000000000D+00  0.0000000000000D+00
393  3.9200000000000D+00  0.0000000000000D+00  0.0000000000000D+00
394  3.9300000000000D+00  0.0000000000000D+00  0.0000000000000D+00
395  3.9400000000000D+00  0.0000000000000D+00  0.0000000000000D+00
396  3.9500000000000D+00  0.0000000000000D+00  0.0000000000000D+00
397  3.9600000000000D+00  0.0000000000000D+00  0.0000000000000D+00
398  3.9700000000000D+00  0.0000000000000D+00  0.0000000000000D+00
399  3.9800000000000D+00  0.0000000000000D+00  0.0000000000000D+00
400  3.9900000000000D+00  0.0000000000000D+00  0.0000000000000D+00
401  4.0000000000000D+00  0.0000000000000D+00  0.0000000000000D+00
402  4.0100000000000D+00  0.0000000000000D+00  0.0000000000000D+00
403  4.0200000000000D+00  0.0000000000000D+00  0.0000000000000D+00
404  4.0300000000000D+00  0.0000000000000D+00  0.0000000000000D+00
405  4.0400000000000D+00  0.0000000000000D+00  0.0000000000000D+00
406  4.0500000000000D+00  0.0000000000000D+00  0.0000000000000D+00
407  4.0600000000000D+00  0.0000000000000D+00  0.0000000000000D+00
408  4.0700000000000D+00  0.0000000000000D+00  0.0000000000000D+00
409  4.0800000000000D+00  0.0000000000000D+00  0.0000000000000D+00
410  4.0900000000000D+00  0.0000000000000D+00  0.0000000000000D+00
411  4.1000000000000D+00  0.0000000000000D+00  0.0000000000000D+00
412  4.1100000000000D+00  0.0000000000000D+00  0.0000000000000D+00
413  4.1200000000000D+00  0.0000000000000D+00  0.0000000000000D+00
414  4.1300000000000D+00  0.0000000000000D+00  0.0000000000000D+00
415  4.1400000000000D+00  0.0000000000000D+00  0.0000000000000D+00
416  4.1500000000000D+00  0.0000000000000D+00  0.0000000000000D+00
417  4.1600000000000D+00  0.0000000000000D+00  0.0000000000000D+00
418  4.1700000000000D+00  0.0000000000000D+00  0.0000000000000D+00
419  4.1800000000000D+00  0.0000000000000D+00  0.0000000000000D+00
420  4.1900000000000D+00  0.0000000000000D+00  0.0000000000000D+00
421  4.2000000000000D+00  0.0000000000000D+00  0.0000000000000D+00
422  4.2100000000000D+00  0.0000000000000D+00  0.0000000000000D+00
423  4.2200000000000D+00  0.0000000000000D+00  0.0000000000000D+00
424  4.2300000000000D+00  0.0000000000000D+00  0.0000000000000D+00
425  4.2400000000000D+00  0.0000000000000D+00  0.0000000000000D+00
426  4.2500000000000D+00  0.0000000000000D+00  0.0000000000000D+00
427  4.2600000000000D+00  0.0000000000000D+00  0.0000000000000D+00
428  4.2700000000000D+00  0.0000000000000D+00  0.0000000000000D+00
429  4.2800000000000D+00  0.0000000000000D+00  0.0000000000000D+00
430  4.2900000000000D+00  0.0000000000000D+00  0.0000000000000D+00
431  4.3000000000000D+00  0.0000000000000D+00  0.0000000000000D+00
432  4.3100000000000D+00  0.0000000000000D+00  0.0000000000000D+00
433  4.3200000000000D+00  0.0000000000000D+00  0.0000000000000D+00
434  4.3300000000000D+00  0.0000000000000D+00  0.0000000000000D+00
435  4.3400000000000D+00  0.0000000000000D+00  0.0000000000000D+00
436  4.3500000000000D+00  0.0000000000000D+00  0.0000000000000D+00
437  4.3600000000000D+00  0.0000000000000D+00  0.0000000000000D+00
438  4.3700000000000D+00  0.0000000000000D+00  0.0000000000000D+00
439  4.3800000000000D+00  0.0000000000000D+00  0.0000000000000D+00
440  4.3900000000000D+00  0.0000000000000D+00  0.0000000000000D+00
441  4.4000000000000D+00  0.0000000000000D+00  0.0000000000000D+00
442  4.4100000000000D+00  0.0000000000000D+00  0.0000000000000D+00
443  4.4200000000000D+00  0.0000000000000D+00  0.0000000000000D+00