Rn    ONCVPSP-3.2.3  r_core=   2.42844   2.10456   2.86982
86.0000      8.0000      161007    zatom,zion,pspd
8   -1012   2     4   600     0    pspcod,pspxc,lmax,lloc,mmax,r2well
5.99000000  8.00000000  0.00000000    rchrg fchrg qchrg
2     2     2     0     0    nproj
1     1           extension_switch
0                         5.7930302756819D+00  6.6084277736564D-01
1  0.0000000000000D+00  2.2305490787744D-12 -5.5606075299863D-12
2  1.0000000000000D-02  1.9215012640619D-02  6.6711153620784D-03
3  2.0000000000000D-02  3.8439202504238D-02  1.3301689155028D-02
4  3.0000000000000D-02  5.7681683052652D-02  1.9851342084241D-02
5  4.0000000000000D-02  7.6951440431475D-02  2.6280018889640D-02
6  5.0000000000000D-02  9.6257270327076D-02  3.2548149078058D-02
7  6.0000000000000D-02  1.1560771544000D-01  3.8616806117636D-02
8  7.0000000000000D-02  1.3501100377773D-01  4.4447864588043D-02
9  8.0000000000000D-02  1.5447498796755D-01  5.0004154785851D-02
10  9.0000000000000D-02  1.7400708578732D-01  5.5249614291275D-02
11  1.0000000000000D-01  1.9361422210886D-01  6.0149436010736D-02
12  1.1000000000000D-01  2.1330277244472D-01  6.4670212219244D-02
13  1.2000000000000D-01  2.3307850828463D-01  6.8780074137505D-02
14  1.3000000000000D-01  2.5294654440342D-01  7.2448826590796D-02
15  1.4000000000000D-01  2.7291128831630D-01  7.5648077310086D-02
16  1.5000000000000D-01  2.9297639205199D-01  7.8351360450575D-02
17  1.6000000000000D-01  3.1314470640757D-01  8.0534253918664D-02
18  1.7000000000000D-01  3.3341823784211D-01  8.2174490115442D-02
19  1.8000000000000D-01  3.5379810815909D-01  8.3252059722974D-02
20  1.9000000000000D-01  3.7428451711957D-01  8.3749308178929D-02
21  2.0000000000000D-01  3.9487670812029D-01  8.3651024505510D-02
22  2.1000000000000D-01  4.1557293706202D-01  8.2944522179920D-02
23  2.2000000000000D-01  4.3637044452501D-01  8.1619711756041D-02
24  2.3000000000000D-01  4.5726543135857D-01  7.9669164970164D-02
25  2.4000000000000D-01  4.7825303778271D-01  7.7088170087838D-02
26  2.5000000000000D-01  4.9932732608962D-01  7.3874778273725D-02
27  2.6000000000000D-01  5.2048126702253D-01  7.0029840792179D-02
28  2.7000000000000D-01  5.4170672989904D-01  6.5557036872546D-02
29  2.8000000000000D-01  5.6299447653546D-01  6.0462892100326D-02
30  2.9000000000000D-01  5.8433415901746D-01  5.4756787222796D-02
31  3.0000000000000D-01  6.0571432135136D-01  4.8450957286006D-02
32  3.1000000000000D-01  6.2712240501931D-01  4.1560481048324D-02
33  3.2000000000000D-01  6.4854475844957D-01  3.4103260644945D-02
34  3.3000000000000D-01  6.6996665040233D-01  2.6099991506635D-02
35  3.4000000000000D-01  6.9137228725939D-01  1.7574122565683D-02
36  3.5000000000000D-01  7.1274483419439D-01  8.5518068113702D-03
37  3.6000000000000D-01  7.3406644018903D-01 -9.3815771297792D-04
38  3.7000000000000D-01  7.5531826684844D-01 -1.0864396349835D-02
39  3.8000000000000D-01  7.7648052095792D-01 -2.1193035553025D-02
40  3.9000000000000D-01  7.9753249071124D-01 -3.1887789718730D-02
41  4.0000000000000D-01  8.1845258552948D-01 -4.2910056912402D-02
42  4.1000000000000D-01  8.3921837937832D-01 -5.4219023253610D-02
43  4.2000000000000D-01  8.5980665748021D-01 -6.5771775692366D-02
44  4.3000000000000D-01  8.8019346630739D-01 -7.7523422882933D-02
45  4.4000000000000D-01  9.0035416673079D-01 -8.9427223833941D-02
46  4.5000000000000D-01  9.2026349018971D-01 -1.0143472398715D-01
47  4.6000000000000D-01  9.3989559773705D-01 -1.1349589835169D-01
48  4.7000000000000D-01  9.5922414180514D-01 -1.2555930129570D-01
49  4.8000000000000D-01  9.7822233052799D-01 -1.3757222257359D-01
50  4.9000000000000D-01  9.9686299444672D-01 -1.4948084914414D-01
51  5.0000000000000D-01  1.0151186554166D+00 -1.6123043231326D-01
52  5.1000000000000D-01  1.0329615975259D+00 -1.7276545971433D-01
53  5.2000000000000D-01  1.0503639398295D+00 -1.8402983162017D-01
54  5.3000000000000D-01  1.0672977106926D+00 -1.9496704106260D-01
55  5.4000000000000D-01  1.0837349235346D+00 -2.0552035721897D-01
56  5.5000000000000D-01  1.0996476537552D+00 -2.1563301151020D-01
57  5.6000000000000D-01  1.1150081166223D+00 -2.2524838584136D-01
58  5.7000000000000D-01  1.1297887458934D+00 -2.3431020240389D-01
59  5.8000000000000D-01  1.1439622729413D+00 -2.4276271444818D-01
60  5.9000000000000D-01  1.1575018061486D+00 -2.5055089742743D-01
61  6.0000000000000D-01  1.1703809103345D+00 -2.5762063990598D-01
62  6.1000000000000D-01  1.1825736859756D+00 -2.6391893362134D-01
63  6.2000000000000D-01  1.1940548479789D+00 -2.6939406208550D-01
64  6.3000000000000D-01  1.2047998037676D+00 -2.7399578711032D-01
65  6.4000000000000D-01  1.2147847304369D+00 -2.7767553264217D-01
66  6.5000000000000D-01  1.2239866507419D+00 -2.8038656529429D-01
67  6.6000000000000D-01  1.2323835076769D+00 -2.8208417096922D-01
68  6.7000000000000D-01  1.2399542374109D+00 -2.8272582697117D-01
69  6.8000000000000D-01  1.2466788403459D+00 -2.8227136901602D-01
70  6.9000000000000D-01  1.2525384500687D+00 -2.8068315255780D-01
71  7.0000000000000D-01  1.2575153999701D+00 -2.7792620786280D-01
72  7.1000000000000D-01  1.2615932873132D+00 -2.7396838827710D-01
73  7.2000000000000D-01  1.2647570345357D+00 -2.6878051114964D-01
74  7.3000000000000D-01  1.2669929475805D+00 -2.6233649089150D-01
75  7.4000000000000D-01  1.2682887710528D+00 -2.5461346367216D-01
76  7.5000000000000D-01  1.2686337400143D+00 -2.4559190327564D-01
77  7.6000000000000D-01  1.2680186282295D+00 -2.3525572766330D-01
78  7.7000000000000D-01  1.2664357926917D+00 -2.2359239581562D-01
79  7.8000000000000D-01  1.2638792142647D+00 -2.1059299445257D-01
80  7.9000000000000D-01  1.2603445342874D+00 -1.9625231426110D-01
81  8.0000000000000D-01  1.2558290869982D+00 -1.8056891528848D-01
82  8.1000000000000D-01  1.2503319276515D+00 -1.6354518119216D-01
83  8.2000000000000D-01  1.2438538562052D+00 -1.4518736207015D-01
84  8.3000000000000D-01  1.2363974364765D+00 -1.2550560562989D-01
85  8.4000000000000D-01  1.2279670106724D+00 -1.0451397648974D-01
86  8.5000000000000D-01  1.2185687092166D+00 -8.2230463443474D-02
87  8.6000000000000D-01  1.2082104558079D+00 -5.8676974555783D-02
88  8.7000000000000D-01  1.1969019676599D+00 -3.3879319995483D-02
89  8.8000000000000D-01  1.1846547508848D+00 -7.8671825518328D-03
90  8.9000000000000D-01  1.1714820910012D+00  1.9325924180541D-02
91  9.0000000000000D-01  1.1573990385582D+00  4.7662709922760D-02
92  9.1000000000000D-01  1.1424223898852D+00  7.7102174072815D-02
93  9.2000000000000D-01  1.1265706629897D+00  1.0759968420016D-01
94  9.3000000000000D-01  1.1098640686428D+00  1.3910706652639D-01
95  9.4000000000000D-01  1.0923244767063D+00  1.7157270820417D-01
96  9.5000000000000D-01  1.0739753777691D+00  2.0494167116598D-01
97  9.6000000000000D-01  1.0548418401779D+00  2.3915581727453D-01
98  9.7000000000000D-01  1.0349504625603D+00  2.7415394446691D-01
99  9.8000000000000D-01  1.0143293219538D+00  3.0987193354592D-01
100  9.9000000000000D-01  9.9300791766714D-01  3.4624290523399D-01
101  1.0000000000000D+00  9.7101711101764D-01  3.8319738706782D-01
102  1.0100000000000D+00  9.4838906109700D-01  4.2066348967651D-01
103  1.0200000000000D+00  9.2515715673604D-01  4.5856709195034D-01
104  1.0300000000000D+00  9.0135594484835D-01  4.9683203457445D-01
105  1.0400000000000D+00  8.7702105534655D-01  5.3538032137007D-01
106  1.0500000000000D+00  8.5218912283621D-01  5.7413232785460D-01
107  1.0600000000000D+00  8.2689770530338D-01  6.1300701640475D-01
108  1.0700000000000D+00  8.0118520002229D-01  6.5192215737954D-01
109  1.0800000000000D+00  7.7509075691975D-01  6.9079455553471D-01
110  1.0900000000000D+00  7.4865418964136D-01  7.2954028103859D-01
111  1.1000000000000D+00  7.2191588457358D-01  7.6807490437779D-01
112  1.1100000000000D+00  6.9491670808229D-01  8.0631373442486D-01
113  1.1200000000000D+00  6.6769791223591D-01  8.4417205892226D-01
114  1.1300000000000D+00  6.4030103928690D-01  8.8156538662431D-01
115  1.1400000000000D+00  6.1276782519014D-01  9.1840969032840D-01
116  1.1500000000000D+00  5.8514010244061D-01  9.5462165001855D-01
117  1.1600000000000D+00  5.5745970251641D-01  9.9011889533784D-01
118  1.1700000000000D+00  5.2976835821513D-01  1.0248202466038D+00
119  1.1800000000000D+00  5.0210760617256D-01  1.0586459535816D+00
120  1.1900000000000D+00  4.7451868985343D-01  1.0915179312304D+00
121  1.2000000000000D+00  4.4704246330311D-01  1.1233599916444D+00
122  1.2100000000000D+00  4.1971929594730D-01  1.1540980714189D+00
123  1.2200000000000D+00  3.9258897872393D-01  1.1836604536825D+00
124  1.2300000000000D+00  3.6569063182941D-01  1.2119779840452D+00
125  1.2400000000000D+00  3.3906261435502D-01  1.2389842797358D+00
126  1.2500000000000D+00  3.1274243608287D-01  1.2646159312200D+00
127  1.2600000000000D+00  2.8676667170982D-01  1.2888126955993D+00
128  1.2700000000000D+00  2.6117087775401D-01  1.3115176811314D+00
129  1.2800000000000D+00  2.3598951239066D-01  1.3326775222407D+00
130  1.2900000000000D+00  2.1125585846435D-01  1.3522425443858D+00
131  1.3000000000000D+00  1.8700194990192D-01  1.3701669182212D+00
132  1.3100000000000D+00  1.6325850174352D-01  1.3864088025155D+00
133  1.3200000000000D+00  1.4005484400981D-01  1.4009304752805D+00
134  1.3300000000000D+00  1.1741885959027D-01  1.4136984526737D+00
135  1.3400000000000D+00  9.5376926337768D-02  1.4246835952309D+00
136  1.3500000000000D+00  7.3953863548029D-02  1.4338612010082D+00
137  1.3600000000000D+00  5.3172882963116D-02  1.4412110853307D+00
138  1.3700000000000D+00  3.3055544452347D-02  1.4467176468024D+00
139  1.3800000000000D+00  1.3621716496009D-02  1.4503699193166D+00
140  1.3900000000000D+00 -5.1104584369670D-03  1.4521616099051D+00
141  1.4000000000000D+00 -2.3124593491433D-02  1.4520911221651D+00
142  1.4100000000000D+00 -4.0406081962858D-02  1.4501615652369D+00
143  1.4200000000000D+00 -5.6942116692843D-02  1.4463807482175D+00
144  1.4300000000000D+00 -7.2721704269655D-02  1.4407611599602D+00
145  1.4400000000000D+00 -8.7735674041740D-02  1.4333199343910D+00
146  1.4500000000000D+00 -1.0197668188366D-01  1.4240788012702D+00
147  1.4600000000000D+00 -1.1543920877206D-01  1.4130640226743D+00
148  1.4700000000000D+00 -1.2811955416349D-01  1.4003063152785D+00
149  1.4800000000000D+00 -1.4001582422121D-01  1.3858407586834D+00
150  1.4900000000000D+00 -1.5112791497297D-01  1.3697066901250D+00
151  1.5000000000000D+00 -1.6145749042450D-01  1.3519475857478D+00
152  1.5100000000000D+00 -1.7100795578875D-01  1.3326109290006D+00
153  1.5200000000000D+00 -1.7978442586287D-01  1.3117480663559D+00
154  1.5300000000000D+00 -1.8779368874380D-01  1.2894140509989D+00
155  1.5400000000000D+00 -1.9504416497032D-01  1.2656674748418D+00
156  1.5500000000000D+00 -2.0154586227140D-01  1.2405702894795D+00
157  1.5600000000000D+00 -2.0731032608352D-01  1.2141876166481D+00
158  1.5700000000000D+00 -2.1235058599871D-01  1.1865875487524D+00
159  1.5800000000000D+00 -2.1668109837475D-01  1.1578409402090D+00
160  1.5900000000000D+00 -2.2031768525578D-01  1.1280211901378D+00
161  1.6000000000000D+00 -2.2327746989074D-01  1.0972040172912D+00
162  1.6100000000000D+00 -2.2557880899432D-01  1.0654672277502D+00
163  1.6200000000000D+00 -2.2724122207353D-01  1.0328904763617D+00
164  1.6300000000000D+00 -2.2828531797889D-01  9.9955502248973D-01
165  1.6400000000000D+00 -2.2873271901260D-01  9.6554348106672D-01
166  1.6500000000000D+00 -2.2860598278359D-01  9.3093956960318D-01
167  1.6600000000000D+00 -2.2792852213393D-01  8.9582785210934D-01
168  1.6700000000000D+00 -2.2672452335892D-01  8.6029348067147D-01
169  1.6800000000000D+00 -2.2501886303377D-01  8.2442193559428D-01
170  1.6900000000000D+00 -2.2283702369543D-01  7.8829876491951D-01
171  1.7000000000000D+00 -2.2020500867872D-01  7.5200932417889D-01
172  1.7100000000000D+00 -2.1714925637709D-01  7.1563851725050D-01
173  1.7200000000000D+00 -2.1369655420756D-01  6.7927053910097D-01
174  1.7300000000000D+00 -2.0987395257230D-01  6.4298862134663D-01
175  1.7400000000000D+00 -2.0570867906527D-01  6.0687478130154D-01
176  1.7500000000000D+00 -2.0122805324508D-01  5.7100957553428D-01
177  1.7600000000000D+00 -1.9645940217340D-01  5.3547185842681D-01
178  1.7700000000000D+00 -1.9142997708256D-01  5.0033854689425D-01
179  1.7800000000000D+00 -1.8616687129821D-01  4.6568439150548D-01
180  1.7900000000000D+00 -1.8069693983672D-01  4.3158175534276D-01
181  1.8000000000000D+00 -1.7504672072331D-01  3.9810040057549D-01
182  1.8100000000000D+00 -1.6924235848357D-01  3.6530728417779D-01
183  1.8200000000000D+00 -1.6330952981011D-01  3.3326636263330D-01
184  1.8300000000000D+00 -1.5727337183661D-01  3.0203840696261D-01
185  1.8400000000000D+00 -1.5115841302950D-01  2.7168082796548D-01
186  1.8500000000000D+00 -1.4498850704594D-01  2.4224751271299D-01
187  1.8600000000000D+00 -1.3878676964001D-01  2.1378867243398D-01
188  1.8700000000000D+00 -1.3257551880748D-01  1.8635070229520D-01
189  1.8800000000000D+00 -1.2637621839814D-01  1.5997605370878D-01
190  1.8900000000000D+00 -1.2020942514638D-01  1.3470311888028D-01
191  1.9000000000000D+00 -1.1409473956568D-01  1.1056612893107D-01
192  1.9100000000000D+00 -1.0805076037482D-01  8.7595064401094D-02
193  1.9200000000000D+00 -1.0209504308129D-01  6.5815580031546D-02
194  1.9300000000000D+00 -9.6244062277370D-02  4.5248942288077D-02
195  1.9400000000000D+00 -9.0513178147558D-02  2.5911981101672D-02
196  1.9500000000000D+00 -8.4916606968873D-02  7.8170550231158D-03
197  1.9600000000000D+00 -7.9467395710210D-02 -9.0279699871909D-03
198  1.9700000000000D+00 -7.4177400910200D-02 -2.4619727679770D-02
199  1.9800000000000D+00 -6.9057271447440D-02 -3.8959345865136D-02
200  1.9900000000000D+00 -6.4116435769812D-02 -5.2052426340021D-02
201  2.0000000000000D+00 -5.9363092923859D-02 -6.3909012540634D-02
202  2.0100000000000D+00 -5.4804207890617D-02 -7.4543543477087D-02
203  2.0200000000000D+00 -5.0445510841756D-02 -8.3974795241558D-02
204  2.0300000000000D+00 -4.6291500303148D-02 -9.2225810244214D-02
205  2.0400000000000D+00 -4.2345449059641D-02 -9.9323819806122D-02
206  2.0500000000000D+00 -3.8609420542473D-02 -1.0530012435949D-01
207  2.0600000000000D+00 -3.5084269443103D-02 -1.1019004986909D-01
208  2.0700000000000D+00 -3.1769682502810D-02 -1.1403273162293D-01
209  2.0800000000000D+00 -2.8664194616855D-02 -1.1687101069479D-01
210  2.0900000000000D+00 -2.5765205144808D-02 -1.1875132916260D-01
211  2.1000000000000D+00 -2.3068913270992D-02 -1.1972401494622D-01
212  2.1100000000000D+00 -2.0570538712845D-02 -1.1984226381635D-01
213  2.1200000000000D+00 -1.8264420383304D-02 -1.1916167347176D-01
214  2.1300000000000D+00 -1.6144156931045D-02 -1.1773962838208D-01
215  2.1400000000000D+00 -1.4202724082649D-02 -1.1563482121002D-01
216  2.1500000000000D+00 -1.2432728563415D-02 -1.1290615050793D-01
217  2.1600000000000D+00 -1.0826363698410D-02 -1.0961297527653D-01
218  2.1700000000000D+00 -9.3754759772345D-03 -1.0581488395341D-01
219  2.1800000000000D+00 -8.0716174049344D-03 -1.0157152353268D-01
220  2.1900000000000D+00 -6.9061354131460D-03 -9.6942247995668D-02
221  2.2000000000000D+00 -5.8702207745273D-03 -9.1985968973925D-02
222  2.2100000000000D+00 -4.9549751907423D-03 -8.6760913452035D-02
223  2.2200000000000D+00 -4.1514727427088D-03 -8.1324410122961D-02
224  2.2300000000000D+00 -3.4508205529248D-03 -7.5732679044871D-02
225  2.2400000000000D+00 -2.8442182478083D-03 -7.0040625857147D-02
226  2.2500000000000D+00 -2.3230161769475D-03 -6.4301641018308D-02
227  2.2600000000000D+00 -1.8787717614631D-03 -5.8567406084341D-02
228  2.2700000000000D+00 -1.5033038612063D-03 -5.2887707362523D-02
229  2.2800000000000D+00 -1.1887453824115D-03 -4.7310256210754D-02
230  2.2900000000000D+00 -9.2759309491422D-04 -4.1880519282600D-02
231  2.3000000000000D+00 -7.1275523515935D-04 -3.6641556851024D-02
232  2.3100000000000D+00 -5.3759658159670D-04 -3.1633870206320D-02
233  2.3200000000000D+00 -3.9598022062702D-04 -2.6895260607774D-02
234  2.3300000000000D+00 -2.8230682191161D-04 -2.2460697170549D-02
235  2.3400000000000D+00 -1.9155060567341D-04 -1.8362196280683D-02
236  2.3500000000000D+00 -1.1921961127188D-04 -1.4631894702721D-02
237  2.3600000000000D+00 -6.1638225229057D-05 -1.1290801213308D-02
238  2.3700000000000D+00 -1.5772867171015D-05 -8.3575285736939D-03
239  2.3800000000000D+00  1.9873660876201D-05 -5.8355512283384D-03
240  2.3900000000000D+00  4.9019525748212D-05 -3.7810964752902D-03
241  2.4000000000000D+00  7.3650403122908D-05 -2.2276244461452D-03
242  2.4100000000000D+00  9.6937587306494D-05 -1.2011585612153D-03
243  2.4200000000000D+00  1.0804750110395D-04 -5.8284090370296D-04
244  2.4300000000000D+00  9.9629994099595D-05 -2.5374721953850D-04
245  2.4400000000000D+00  6.5962224918608D-05 -8.3095310560936D-05
246  2.4500000000000D+00  2.5952543984143D-05 -1.5750957490835D-05
247  2.4600000000000D+00 -4.1794133454909D-06  1.3812137343087D-06
248  2.4700000000000D+00 -1.1497880053429D-05  4.3619109639636D-07
249  2.4800000000000D+00 -6.6199860958433D-06 -1.1217312620075D-06
250  2.4900000000000D+00  9.4843832550522D-07 -6.4197209152145D-07
251  2.5000000000000D+00  2.5518769300182D-06 -1.4488095992058D-06
252  2.5100000000000D+00  1.5627957292545D-06 -7.4671834059471D-07
253  2.5200000000000D+00 -1.0676271071822D-07  3.0368095414029D-07
254  2.5300000000000D+00 -2.9091939877602D-07  8.2750503433171D-07
255  2.5400000000000D+00 -1.8785391887880D-07  5.3434066014563D-07
256  2.5500000000000D+00  0.0000000000000D+00  0.0000000000000D+00
257  2.5600000000000D+00  0.0000000000000D+00  0.0000000000000D+00
258  2.5700000000000D+00  0.0000000000000D+00  0.0000000000000D+00
259  2.5800000000000D+00  0.0000000000000D+00  0.0000000000000D+00
260  2.5900000000000D+00  0.0000000000000D+00  0.0000000000000D+00
261  2.6000000000000D+00  0.0000000000000D+00  0.0000000000000D+00
262  2.6100000000000D+00  0.0000000000000D+00  0.0000000000000D+00
263  2.6200000000000D+00  0.0000000000000D+00  0.0000000000000D+00
264  2.6300000000000D+00  0.0000000000000D+00  0.0000000000000D+00
265  2.6400000000000D+00  0.0000000000000D+00  0.0000000000000D+00
266  2.6500000000000D+00  0.0000000000000D+00  0.0000000000000D+00
267  2.6600000000000D+00  0.0000000000000D+00  0.0000000000000D+00
268  2.6700000000000D+00  0.0000000000000D+00  0.0000000000000D+00
269  2.6800000000000D+00  0.0000000000000D+00  0.0000000000000D+00
270  2.6900000000000D+00  0.0000000000000D+00  0.0000000000000D+00
271  2.7000000000000D+00  0.0000000000000D+00  0.0000000000000D+00
272  2.7100000000000D+00  0.0000000000000D+00  0.0000000000000D+00
273  2.7200000000000D+00  0.0000000000000D+00  0.0000000000000D+00
274  2.7300000000000D+00  0.0000000000000D+00  0.0000000000000D+00
275  2.7400000000000D+00  0.0000000000000D+00  0.0000000000000D+00
276  2.7500000000000D+00  0.0000000000000D+00  0.0000000000000D+00
277  2.7600000000000D+00  0.0000000000000D+00  0.0000000000000D+00
278  2.7700000000000D+00  0.0000000000000D+00  0.0000000000000D+00
279  2.7800000000000D+00  0.0000000000000D+00  0.0000000000000D+00
280  2.7900000000000D+00  0.0000000000000D+00  0.0000000000000D+00
281  2.8000000000000D+00  0.0000000000000D+00  0.0000000000000D+00
282  2.8100000000000D+00  0.0000000000000D+00  0.0000000000000D+00
283  2.8200000000000D+00  0.0000000000000D+00  0.0000000000000D+00
284  2.8300000000000D+00  0.0000000000000D+00  0.0000000000000D+00
285  2.8400000000000D+00  0.0000000000000D+00  0.0000000000000D+00
286  2.8500000000000D+00  0.0000000000000D+00  0.0000000000000D+00
287  2.8600000000000D+00  0.0000000000000D+00  0.0000000000000D+00
288  2.8700000000000D+00  0.0000000000000D+00  0.0000000000000D+00
289  2.8800000000000D+00  0.0000000000000D+00  0.0000000000000D+00
290  2.8900000000000D+00  0.0000000000000D+00  0.0000000000000D+00
291  2.9000000000000D+00  0.0000000000000D+00  0.0000000000000D+00
292  2.9100000000000D+00  0.0000000000000D+00  0.0000000000000D+00
293  2.9200000000000D+00  0.0000000000000D+00  0.0000000000000D+00
294  2.9300000000000D+00  0.0000000000000D+00  0.0000000000000D+00
295  2.9400000000000D+00  0.0000000000000D+00  0.0000000000000D+00
296  2.9500000000000D+00  0.0000000000000D+00  0.0000000000000D+00
297  2.9600000000000D+00  0.0000000000000D+00  0.0000000000000D+00
298  2.9700000000000D+00  0.0000000000000D+00  0.0000000000000D+00
299  2.9800000000000D+00  0.0000000000000D+00  0.0000000000000D+00
300  2.9900000000000D+00  0.0000000000000D+00  0.0000000000000D+00
301  3.0000000000000D+00  0.0000000000000D+00  0.0000000000000D+00
302  3.0100000000000D+00  0.0000000000000D+00  0.0000000000000D+00
303  3.0200000000000D+00  0.0000000000000D+00  0.0000000000000D+00
304  3.0300000000000D+00  0.0000000000000D+00  0.0000000000000D+00
305  3.0400000000000D+00  0.0000000000000D+00  0.0000000000000D+00
306  3.0500000000000D+00  0.0000000000000D+00  0.0000000000000D+00
307  3.0600000000000D+00  0.0000000000000D+00  0.0000000000000D+00
308  3.0700000000000D+00  0.0000000000000D+00  0.0000000000000D+00
309  3.0800000000000D+00  0.0000000000000D+00  0.0000000000000D+00
310  3.0900000000000D+00  0.0000000000000D+00  0.0000000000000D+00
311  3.1000000000000D+00  0.0000000000000D+00  0.0000000000000D+00
312  3.1100000000000D+00  0.0000000000000D+00  0.0000000000000D+00
313  3.1200000000000D+00  0.0000000000000D+00  0.0000000000000D+00
314  3.1300000000000D+00  0.0000000000000D+00  0.0000000000000D+00
315  3.1400000000000D+00  0.0000000000000D+00  0.0000000000000D+00
316  3.1500000000000D+00  0.0000000000000D+00  0.0000000000000D+00
317  3.1600000000000D+00  0.0000000000000D+00  0.0000000000000D+00
318  3.1700000000000D+00  0.0000000000000D+00  0.0000000000000D+00
319  3.1800000000000D+00  0.0000000000000D+00  0.0000000000000D+00
320  3.1900000000000D+00  0.0000000000000D+00  0.0000000000000D+00
321  3.2000000000000D+00  0.0000000000000D+00  0.0000000000000D+00
322  3.2100000000000D+00  0.0000000000000D+00  0.0000000000000D+00
323  3.2200000000000D+00  0.0000000000000D+00  0.0000000000000D+00
324  3.2300000000000D+00  0.0000000000000D+00  0.0000000000000D+00
325  3.2400000000000D+00  0.0000000000000D+00  0.0000000000000D+00
326  3.2500000000000D+00  0.0000000000000D+00  0.0000000000000D+00
327  3.2600000000000D+00  0.0000000000000D+00  0.0000000000000D+00
328  3.2700000000000D+00  0.0000000000000D+00  0.0000000000000D+00
329  3.2800000000000D+00  0.0000000000000D+00  0.0000000000000D+00
330  3.2900000000000D+00  0.0000000000000D+00  0.0000000000000D+00
331  3.3000000000000D+00  0.0000000000000D+00  0.0000000000000D+00
332  3.3100000000000D+00  0.0000000000000D+00  0.0000000000000D+00
333  3.3200000000000D+00  0.0000000000000D+00  0.0000000000000D+00
334  3.3300000000000D+00  0.0000000000000D+00  0.0000000000000D+00
335  3.3400000000000D+00  0.0000000000000D+00  0.0000000000000D+00
336  3.3500000000000D+00  0.0000000000000D+00  0.0000000000000D+00
337  3.3600000000000D+00  0.0000000000000D+00  0.0000000000000D+00
338  3.3700000000000D+00  0.0000000000000D+00  0.0000000000000D+00
339  3.3800000000000D+00  0.0000000000000D+00  0.0000000000000D+00
340  3.3900000000000D+00  0.0000000000000D+00  0.0000000000000D+00
341  3.4000000000000D+00  0.0000000000000D+00  0.0000000000000D+00
342  3.4100000000000D+00  0.0000000000000D+00  0.0000000000000D+00
343  3.4200000000000D+00  0.0000000000000D+00  0.0000000000000D+00
344  3.4300000000000D+00  0.0000000000000D+00  0.0000000000000D+00
345  3.4400000000000D+00  0.0000000000000D+00  0.0000000000000D+00
346  3.4500000000000D+00  0.0000000000000D+00  0.0000000000000D+00
347  3.4600000000000D+00  0.0000000000000D+00  0.0000000000000D+00
348  3.4700000000000D+00  0.0000000000000D+00  0.0000000000000D+00
349  3.4800000000000D+00  0.0000000000000D+00  0.0000000000000D+00
350  3.4900000000000D+00  0.0000000000000D+00  0.0000000000000D+00
351  3.5000000000000D+00  0.0000000000000D+00  0.0000000000000D+00
352  3.5100000000000D+00  0.0000000000000D+00  0.0000000000000D+00
353  3.5200000000000D+00  0.0000000000000D+00  0.0000000000000D+00
354  3.5300000000000D+00  0.0000000000000D+00  0.0000000000000D+00
355  3.5400000000000D+00  0.0000000000000D+00  0.0000000000000D+00
356  3.5500000000000D+00  0.0000000000000D+00  0.0000000000000D+00
357  3.5600000000000D+00  0.0000000000000D+00  0.0000000000000D+00
358  3.5700000000000D+00  0.0000000000000D+00  0.0000000000000D+00
359  3.5800000000000D+00  0.0000000000000D+00  0.0000000000000D+00
360  3.5900000000000D+00  0.0000000000000D+00  0.0000000000000D+00
361  3.6000000000000D+00  0.0000000000000D+00  0.0000000000000D+00
362  3.6100000000000D+00  0.0000000000000D+00  0.0000000000000D+00
363  3.6200000000000D+00  0.0000000000000D+00  0.0000000000000D+00
364  3.6300000000000D+00  0.0000000000000D+00  0.0000000000000D+00
365  3.6400000000000D+00  0.0000000000000D+00  0.0000000000000D+00
366  3.6500000000000D+00  0.0000000000000D+00  0.0000000000000D+00
367  3.6600000000000D+00  0.0000000000000D+00  0.0000000000000D+00
368  3.6700000000000D+00  0.0000000000000D+00  0.0000000000000D+00
369  3.6800000000000D+00  0.0000000000000D+00  0.0000000000000D+00
370  3.6900000000000D+00  0.0000000000000D+00  0.0000000000000D+00
371  3.7000000000000D+00  0.0000000000000D+00  0.0000000000000D+00
372  3.7100000000000D+00  0.0000000000000D+00  0.0000000000000D+00
373  3.7200000000000D+00  0.0000000000000D+00  0.0000000000000D+00
374  3.7300000000000D+00  0.0000000000000D+00  0.0000000000000D+00
375  3.7400000000000D+00  0.0000000000000D+00  0.0000000000000D+00
376  3.7500000000000D+00  0.0000000000000D+00  0.0000000000000D+00
377  3.7600000000000D+00  0.0000000000000D+00  0.0000000000000D+00
378  3.7700000000000D+00  0.0000000000000D+00  0.0000000000000D+00
379  3.7800000000000D+00  0.0000000000000D+00  0.0000000000000D+00
380  3.7900000000000D+00  0.0000000000000D+00  0.0000000000000D+00
381  3.8000000000000D+00  0.0000000000000D+00  0.0000000000000D+00
382  3.8100000000000D+00  0.0000000000000D+00  0.0000000000000D+00
383  3.8200000000000D+00  0.0000000000000D+00  0.0000000000000D+00
384  3.8300000000000D+00  0.0000000000000D+00  0.0000000000000D+00
385  3.8400000000000D+00  0.0000000000000D+00  0.0000000000000D+00
386  3.8500000000000D+00  0.0000000000000D+00  0.0000000000000D+00
387  3.8600000000000D+00  0.0000000000000D+00  0.0000000000000D+00
388  3.8700000000000D+00  0.0000000000000D+00  0.0000000000000D+00
389  3.8800000000000D+00  0.0000000000000D+00  0.0000000000000D+00
390  3.8900000000000D+00  0.0000000000000D+00  0.0000000000000D+00
391  3.9000000000000D+00  0.0000000000000D+00  0.0000000000000D+00
392  3.9100000000000D+00  0.0000000000000D+00  0.0000000000000D+00
393  3.9200000000000D+00  0.0000000000000D+00  0.0000000000000D+00
394  3.9300000000000D+00  0.0000000000000D+00  0.0000000000000D+00
395  3.9400000000000D+00  0.0000000000000D+00  0.0000000000000D+00
396  3.9500000000000D+00  0.0000000000000D+00  0.0000000000000D+00
397  3.9600000000000D+00  0.0000000000000D+00  0.0000000000000D+00
398  3.9700000000000D+00  0.0000000000000D+00  0.0000000000000D+00
399  3.9800000000000D+00  0.0000000000000D+00  0.0000000000000D+00
400  3.9900000000000D+00  0.0000000000000D+00  0.0000000000000D+00
401  4.0000000000000D+00  0.0000000000000D+00  0.0000000000000D+00
402  4.0100000000000D+00  0.0000000000000D+00  0.0000000000000D+00
403  4.0200000000000D+00  0.0000000000000D+00  0.0000000000000D+00
404  4.0300000000000D+00  0.0000000000000D+00  0.0000000000000D+00
405  4.0400000000000D+00  0.0000000000000D+00  0.0000000000000D+00
406  4.0500000000000D+00  0.0000000000000D+00  0.0000000000000D+00
407  4.0600000000000D+00  0.0000000000000D+00  0.0000000000000D+00
408  4.0700000000000D+00  0.0000000000000D+00  0.0000000000000D+00
409  4.0800000000000D+00  0.0000000000000D+00  0.0000000000000D+00
410  4.0900000000000D+00  0.0000000000000D+00  0.0000000000000D+00
411  4.1000000000000D+00  0.0000000000000D+00  0.0000000000000D+00
412  4.1100000000000D+00  0.0000000000000D+00  0.0000000000000D+00
413  4.1200000000000D+00  0.0000000000000D+00  0.0000000000000D+00
414  4.1300000000000D+00  0.0000000000000D+00  0.0000000000000D+00
415  4.1400000000000D+00  0.0000000000000D+00  0.0000000000000D+00
416  4.1500000000000D+00  0.0000000000000D+00  0.0000000000000D+00
417  4.1600000000000D+00  0.0000000000000D+00  0.0000000000000D+00
418  4.1700000000000D+00  0.0000000000000D+00  0.0000000000000D+00
419  4.1800000000000D+00  0.0000000000000D+00  0.0000000000000D+00
420  4.1900000000000D+00  0.0000000000000D+00  0.0000000000000D+00
421  4.2000000000000D+00  0.0000000000000D+00  0.0000000000000D+00
422  4.2100000000000D+00  0.0000000000000D+00  0.0000000000000D+00
423  4.2200000000000D+00  0.0000000000000D+00  0.0000000000000D+00
424  4.2300000000000D+00  0.0000000000000D+00  0.0000000000000D+00
425  4.2400000000000D+00  0.0000000000000D+00  0.0000000000000D+00
426  4.2500000000000D+00  0.0000000000000D+00  0.0000000000000D+00
427  4.2600000000000D+00  0.0000000000000D+00  0.0000000000000D+00
428  4.2700000000000D+00  0.0000000000000D+00  0.0000000000000D+00
429  4.2800000000000D+00  0.0000000000000D+00  0.0000000000000D+00
430  4.2900000000000D+00  0.0000000000000D+00  0.0000000000000D+00
431  4.3000000000000D+00  0.0000000000000D+00  0.0000000000000D+00
432  4.3100000000000D+00  0.0000000000000D+00  0.0000000000000D+00
433  4.3200000000000D+00  0.0000000000000D+00  0.0000000000000D+00
434  4.3300000000000D+00  0.0000000000000D+00  0.0000000000000D+00
435  4.3400000000000D+00  0.0000000000000D+00  0.0000000000000D+00
436  4.3500000000000D+00  0.0000000000000D+00  0.0000000000000D+00
437  4.3600000000000D+00  0.0000000000000D+00  0.0000000000000D+00
438  4.3700000000000D+00  0.0000000000000D+00  0.0000000000000D+00
439  4.3800000000000D+00  0.0000000000000D+00  0.0000000000000D+00
440  4.3900000000000D+00  0.0000000000000D+00  0.0000000000000D+00
441  4.4000000000000D+00  0.0000000000000D+00  0.0000000000000D+00
442  4.4100000000000D+00  0.0000000000000D+00  0.0000000000000D+00
443  4.4200000000000D+00  0.0000000000000D+00  0.0000000000000D+00