Se    ONCVPSP  r_core=  1.82  1.50  1.91
34.0000     16.0000      150729    zatom,zion,pspd
8      11   2     4   600     0    pspcod,pspxc,lmax,lloc,mmax,r2well
5.99000000  5.00000000  0.00000000    rchrg fchrg qchrg
2     2     2     0     0    nproj
1                 extension_switch
0                         8.6122605576007D+00  9.3991882933662D-01
1  0.0000000000000D+00 -2.3316293340514D-11  1.4199968978446D-10
2  1.0000000000000D-02  3.8053516716894D-02 -2.4013962674883D-02
3  2.0000000000000D-02  7.6077377048686D-02 -4.7952202163218D-02
4  3.0000000000000D-02  1.1404196838368D-01 -7.1739408284751D-02
5  4.0000000000000D-02  1.5191776517376D-01 -9.5301093098529D-02
6  5.0000000000000D-02  1.8967537126395D-01 -1.1856399262565D-01
7  6.0000000000000D-02  2.2728556079617D-01 -1.4145645739704D-01
8  7.0000000000000D-02  2.6471931723924D-01 -1.6390882826924D-01
9  8.0000000000000D-02  3.0194787012079D-01 -1.8585379409287D-01
10  9.0000000000000D-02  3.3894272906542D-01 -2.0722672799394D-01
11  1.0000000000000D-01  3.7567571477698D-01 -2.2796599923402D-01
12  1.1000000000000D-01  4.1211898664160D-01 -2.4801325785195D-01
13  1.2000000000000D-01  4.4824506667084D-01 -2.6731368955287D-01
14  1.3000000000000D-01  4.8402685955126D-01 -2.8581623859913D-01
15  1.4000000000000D-01  5.1943766861687D-01 -3.0347379676852D-01
16  1.5000000000000D-01  5.5445120761421D-01 -3.2024335677568D-01
17  1.6000000000000D-01  5.8904160818527D-01 -3.3608612889979D-01
18  1.7000000000000D-01  6.2318342305106D-01 -3.5096761992180D-01
19  1.8000000000000D-01  6.5685162493700D-01 -3.6485767384465D-01
20  1.9000000000000D-01  6.9002160134077D-01 -3.7773047424721D-01
21  2.0000000000000D-01  7.2266914530215D-01 -3.8956450850207D-01
22  2.1000000000000D-01  7.5477044239316D-01 -4.0034249446690D-01
23  2.2000000000000D-01  7.8630205420363D-01 -4.1005127063430D-01
24  2.3000000000000D-01  8.1724089865297D-01 -4.1868165109249D-01
25  2.4000000000000D-01  8.4756422751137D-01 -4.2622824700580D-01
26  2.5000000000000D-01  8.7724960156294D-01 -4.3268925666522D-01
27  2.6000000000000D-01  9.0627486388969D-01 -4.3806622648366D-01
28  2.7000000000000D-01  9.3461811179599D-01 -4.4236378561268D-01
29  2.8000000000000D-01  9.6225766793025D-01 -4.4558935713631D-01
30  2.9000000000000D-01  9.8917205119174D-01 -4.4775284904930D-01
31  3.0000000000000D-01  1.0153399480361D+00 -4.4886632844866D-01
32  3.1000000000000D-01  1.0407401848124D+00 -4.4894368255820D-01
33  3.2000000000000D-01  1.0653517017783D+00 -4.4800027036157D-01
34  3.3000000000000D-01  1.0891535294444D+00 -4.4605256873983D-01
35  3.4000000000000D-01  1.1121247679010D+00 -4.4311781709310D-01
36  3.5000000000000D-01  1.1342445697701D+00 -4.3921366447071D-01
37  3.6000000000000D-01  1.1554921274114D+00 -4.3435782323990D-01
38  3.7000000000000D-01  1.1758466649899D+00 -4.2856773328994D-01
39  3.8000000000000D-01  1.1952874359809D+00 -4.2186024069443D-01
40  3.9000000000000D-01  1.2137937266552D+00 -4.1425129464248D-01
41  4.0000000000000D-01  1.2313448660403D+00 -4.0575566629734D-01
42  4.1000000000000D-01  1.2479202428061D+00 -3.9638669305229D-01
43  4.2000000000000D-01  1.2634993294670D+00 -3.8615605142750D-01
44  4.3000000000000D-01  1.2780617142278D+00 -3.7507356159165D-01
45  4.4000000000000D-01  1.2915871407383D+00 -3.6314702619888D-01
46  4.5000000000000D-01  1.3040555559420D+00 -3.5038210590857D-01
47  4.6000000000000D-01  1.3154471661352D+00 -3.3678223360471D-01
48  4.7000000000000D-01  1.3257425012643D+00 -3.2234856895626D-01
49  4.8000000000000D-01  1.3349224874123D+00 -3.0707999456314D-01
50  4.9000000000000D-01  1.3429685273349D+00 -2.9097315451800D-01
51  5.0000000000000D-01  1.3498625888196D+00 -2.7402253578504D-01
52  5.1000000000000D-01  1.3555873005551D+00 -2.5622059235774D-01
53  5.2000000000000D-01  1.3601260551066D+00 -2.3755791171241D-01
54  5.3000000000000D-01  1.3634631185054D+00 -2.1802342262586D-01
55  5.4000000000000D-01  1.3655837458781D+00 -1.9760464298027D-01
56  5.5000000000000D-01  1.3664743024512D+00 -1.7628796573858D-01
57  5.6000000000000D-01  1.3661223891924D+00 -1.5405898084364D-01
58  5.7000000000000D-01  1.3645169722694D+00 -1.3090283038107D-01
59  5.8000000000000D-01  1.3616485154370D+00 -1.0680459394828D-01
60  5.9000000000000D-01  1.3575091143985D+00 -8.1749700799793D-02
61  6.0000000000000D-01  1.3520926321261D+00 -5.5724364991554D-02
62  6.1000000000000D-01  1.3453948340740D+00 -2.8716039431121D-02
63  6.2000000000000D-01  1.3374135221739D+00 -7.1388445640601D-04
64  6.3000000000000D-01  1.3281486664651D+00  2.8290753678875D-02
65  6.4000000000000D-01  1.3176025331858D+00  5.8303859243060D-02
66  6.5000000000000D-01  1.3057798081326D+00  8.9328263380791D-02
67  6.6000000000000D-01  1.2926877140904D+00  1.2136316549709D-01
68  6.7000000000000D-01  1.2783361211313D+00  1.5440366485833D-01
69  6.8000000000000D-01  1.2627376486005D+00  1.8844030762283D-01
70  6.9000000000000D-01  1.2459077576242D+00  2.2345865449143D-01
71  7.0000000000000D-01  1.2278648330097D+00  2.5943887409601D-01
72  7.1000000000000D-01  1.2086302534531D+00  2.9635536712285D-01
73  7.2000000000000D-01  1.1882284490212D+00  3.3417642599690D-01
74  7.3000000000000D-01  1.1666869449406D+00  3.7286393473475D-01
75  7.4000000000000D-01  1.1440363907995D+00  4.1237311330819D-01
76  7.5000000000000D-01  1.1203105743509D+00  4.5265231054863D-01
77  7.6000000000000D-01  1.0955464191994D+00  4.9364284926880D-01
78  7.7000000000000D-01  1.0697839657521D+00  5.3527892688292D-01
79  7.8000000000000D-01  1.0430663349234D+00  5.7748757437332D-01
80  7.9000000000000D-01  1.0154396741984D+00  6.2018867598506D-01
81  8.0000000000000D-01  9.8695308577904D-01  6.6329505153058D-01
82  8.1000000000000D-01  9.5765853666440D-01  7.0671260266477D-01
83  8.2000000000000D-01  9.2761075064679D-01  7.5034052394061D-01
84  8.3000000000000D-01  8.9686708233729D-01  7.9407157889351D-01
85  8.4000000000000D-01  8.6548737347129D-01  8.3779244082420D-01
86  8.5000000000000D-01  8.3353379188031D-01  8.8138409736531D-01
87  8.6000000000000D-01  8.0107065365319D-01  9.2472231732890D-01
88  8.7000000000000D-01  7.6816422914477D-01  9.6767817774702D-01
89  8.8000000000000D-01  7.3488253362331D-01  1.0101186484412D+00
90  8.9000000000000D-01  7.0129510347745D-01  1.0519072308916D+00
91  9.0000000000000D-01  6.6747275902797D-01  1.0929046476325D+00
92  9.1000000000000D-01  6.3348735510940D-01  1.1329695778797D+00
93  9.2000000000000D-01  5.9941152069852D-01  1.1719594345994D+00
94  9.3000000000000D-01  5.6531838897117D-01  1.2097311777762D+00
95  9.4000000000000D-01  5.3128131926533D-01  1.2461421582077D+00
96  9.5000000000000D-01  4.9737361251399D-01  1.2810509857827D+00
97  9.6000000000000D-01  4.6366822178685D-01  1.3143184158630D+00
98  9.7000000000000D-01  4.3023745964460D-01  1.3458082471096D+00
99  9.8000000000000D-01  3.9715270406118D-01  1.3753882238646D+00
100  9.9000000000000D-01  3.6448410470949D-01  1.4029309360277D+00
101  1.0000000000000D+00  3.3230029143258D-01  1.4283147092506D+00
102  1.0100000000000D+00  3.0066808673456D-01  1.4514244782229D+00
103  1.0200000000000D+00  2.6965222412643D-01  1.4721526358234D+00
104  1.0300000000000D+00  2.3931507414592D-01  1.4903998509853D+00
105  1.0400000000000D+00  2.0971637984269D-01  1.5060758482537D+00
106  1.0500000000000D+00  1.8091300347792D-01  1.5191001422037D+00
107  1.0600000000000D+00  1.5295868612980D-01  1.5294027201522D+00
108  1.0700000000000D+00  1.2590382182802D-01  1.5369246669000D+00
109  1.0800000000000D+00  9.9795247760786D-02  1.5416187256028D+00
110  1.0900000000000D+00  7.4676051996511D-02  1.5434497893218D+00
111  1.1000000000000D+00  5.0585400062658D-02  1.5423953182518D+00
112  1.1100000000000D+00  2.7558381594816D-02  1.5384456782012D+00
113  1.1200000000000D+00  5.6258781632379D-03  1.5316043963697D+00
114  1.1300000000000D+00 -1.5185546775850D-02  1.5218883311793D+00
115  1.1400000000000D+00 -3.4853734988815D-02  1.5093277534981D+00
116  1.1500000000000D+00 -5.3360996985796D-02  1.4939663373376D+00
117  1.1600000000000D+00 -7.0694151432112D-02  1.4758610586531D+00
118  1.1700000000000D+00 -8.6844540124912D-02  1.4550820017419D+00
119  1.1800000000000D+00 -1.0180801836013D-01  1.4317120733892D+00
120  1.1900000000000D+00 -1.1558492070587D-01  1.4058466257358D+00
121  1.2000000000000D+00 -1.2818000229740D-01  1.3775929892754D+00
122  1.2100000000000D+00 -1.3960235603257D-01  1.3470699185209D+00
123  1.2200000000000D+00 -1.4986530616543D-01  1.3144069533774D+00
124  1.2300000000000D+00 -1.5898627893011D-01  1.2797436998354D+00
125  1.2400000000000D+00 -1.6698665103008D-01  1.2432290344494D+00
126  1.2500000000000D+00 -1.7389157698726D-01  1.2050202377213D+00
127  1.2600000000000D+00 -1.7972979644249D-01  1.1652820619039D+00
128  1.2700000000000D+00 -1.8453342265289D-01  1.1241857393736D+00
129  1.2800000000000D+00 -1.8833771361072D-01  1.0819079384171D+00
130  1.2900000000000D+00 -1.9118082724645D-01  1.0386296734158D+00
131  1.3000000000000D+00 -1.9310356231326D-01  9.9453517694714D-01
132  1.3100000000000D+00 -1.9414908669355D-01  9.4981074180631D-01
133  1.3200000000000D+00 -1.9436265485644D-01  9.0464354090264D-01
134  1.3300000000000D+00 -1.9379131632885D-01  8.5922043346737D-01
135  1.3400000000000D+00 -1.9248361708876D-01  8.1372676602744D-01
136  1.3500000000000D+00 -1.9048929577884D-01  7.6834517662395D-01
137  1.3600000000000D+00 -1.8785897673535D-01  7.2325441094701D-01
138  1.3700000000000D+00 -1.8464386175219D-01  6.7862815857904D-01
139  1.3800000000000D+00 -1.8089542258165D-01  6.3463391804656D-01
140  1.3900000000000D+00 -1.7666509607019D-01  5.9143189843475D-01
141  1.4000000000000D+00 -1.7200398382329D-01  5.4917396547806D-01
142  1.4100000000000D+00 -1.6696255831919D-01  5.0800263998514D-01
143  1.4200000000000D+00 -1.6159037709717D-01  4.6805015477868D-01
144  1.4300000000000D+00 -1.5593580693918D-01  4.2943757800672D-01
145  1.4400000000000D+00 -1.5004575946934D-01  3.9227400780414D-01
146  1.4500000000000D+00 -1.4396543976520D-01  3.5665584433271D-01
147  1.4600000000000D+00 -1.3773810864918D-01  3.2266613982939D-01
148  1.4700000000000D+00 -1.3140486331061D-01  2.9037405106134D-01
149  1.4800000000000D+00 -1.2500443042688D-01  2.5983435448067D-01
150  1.4900000000000D+00 -1.1857300956417D-01  2.3108723983385D-01
151  1.5000000000000D+00 -1.1214399935095D-01  2.0415743199638D-01
152  1.5100000000000D+00 -1.0574796575742D-01  1.7905465894623D-01
153  1.5200000000000D+00 -9.9412860178005D-02  1.5577557648307D-01
154  1.5300000000000D+00 -9.3164210136056D-02  1.3430528815461D-01
155  1.5400000000000D+00 -8.7025433893696D-02  1.1461944240691D-01
156  1.5500000000000D+00 -8.1017831212248D-02  9.6684450711993D-02
157  1.5600000000000D+00 -7.5160544945298D-02  8.0457462292578D-02
158  1.5700000000000D+00 -6.9470642230961D-02  6.5887094254580D-02
159  1.5800000000000D+00 -6.3963151893445D-02  5.2913871356281D-02
160  1.5900000000000D+00 -5.8651136369824D-02  4.1470865095857D-02
161  1.6000000000000D+00 -5.3545769722965D-02  3.1484358092637D-02
162  1.6100000000000D+00 -4.8656428669839D-02  2.2874573397788D-02
163  1.6200000000000D+00 -4.3990793883799D-02  1.5556452841818D-02
164  1.6300000000000D+00 -3.9554960672765D-02  9.4404781280323D-03
165  1.6400000000000D+00 -3.5353557430189D-02  4.4335255482609D-03
166  1.6500000000000D+00 -3.1389870571195D-02  4.3974670128090D-04
167  1.6600000000000D+00 -2.7665974346671D-02 -2.6385339074245D-03
168  1.6700000000000D+00 -2.4182864112338D-02 -4.8999122241582D-03
169  1.6800000000000D+00 -2.0940591364909D-02 -6.4429984038552D-03
170  1.6900000000000D+00 -1.7938399184025D-02 -7.3655182096653D-03
171  1.7000000000000D+00 -1.5174856282431D-02 -7.7634319074593D-03
172  1.7100000000000D+00 -1.2647988489435D-02 -7.7300768131936D-03
173  1.7200000000000D+00 -1.0355405798610D-02 -7.3553435402392D-03
174  1.7300000000000D+00 -8.2944240301542D-03 -6.7248909096267D-03
175  1.7400000000000D+00 -6.4621792809183D-03 -5.9194091903709D-03
176  1.7500000000000D+00 -4.8557343794518D-03 -5.0139357832463D-03
177  1.7600000000000D+00 -3.4724205730594D-03 -4.0788740899495D-03
178  1.7700000000000D+00 -2.3090712579203D-03 -3.1737130406547D-03
179  1.7800000000000D+00 -1.3624429208512D-03 -2.3408680066674D-03
180  1.7900000000000D+00 -6.3104777689223D-04 -1.6402146324125D-03
181  1.8000000000000D+00 -1.1199436379731D-04 -1.1671251766540D-03
182  1.8100000000000D+00  1.9784669457131D-04 -9.2725461951456D-04
183  1.8200000000000D+00  2.8744991023054D-04 -7.1600598891261D-04
184  1.8300000000000D+00  1.7546727168446D-04 -3.5908609489816D-04
185  1.8400000000000D+00  1.6664536237878D-05 -3.1468702905787D-05
186  1.8500000000000D+00 -3.8315191758019D-05  6.9784814639592D-05
187  1.8600000000000D+00 -1.4566088606127D-05  2.5692586414665D-05
188  1.8700000000000D+00  7.2520655350566D-06 -1.4124734498916D-05
189  1.8800000000000D+00  5.5498340398048D-06 -1.0651938323427D-05
190  1.8900000000000D+00 -5.1023936272604D-07  1.2941712556304D-06
191  1.9000000000000D+00 -7.2754956236099D-07  1.8453569039118D-06
192  1.9100000000000D+00  0.0000000000000D+00  0.0000000000000D+00
193  1.9200000000000D+00  0.0000000000000D+00  0.0000000000000D+00
194  1.9300000000000D+00  0.0000000000000D+00  0.0000000000000D+00
195  1.9400000000000D+00  0.0000000000000D+00  0.0000000000000D+00
196  1.9500000000000D+00  0.0000000000000D+00  0.0000000000000D+00
197  1.9600000000000D+00  0.0000000000000D+00  0.0000000000000D+00
198  1.9700000000000D+00  0.0000000000000D+00  0.0000000000000D+00
199  1.9800000000000D+00  0.0000000000000D+00  0.0000000000000D+00
200  1.9900000000000D+00  0.0000000000000D+00  0.0000000000000D+00
201  2.0000000000000D+00  0.0000000000000D+00  0.0000000000000D+00
202  2.0100000000000D+00  0.0000000000000D+00  0.0000000000000D+00
203  2.0200000000000D+00  0.0000000000000D+00  0.0000000000000D+00
204  2.0300000000000D+00  0.0000000000000D+00  0.0000000000000D+00
205  2.0400000000000D+00  0.0000000000000D+00  0.0000000000000D+00
206  2.0500000000000D+00  0.0000000000000D+00  0.0000000000000D+00
207  2.0600000000000D+00  0.0000000000000D+00  0.0000000000000D+00
208  2.0700000000000D+00  0.0000000000000D+00  0.0000000000000D+00
209  2.0800000000000D+00  0.0000000000000D+00  0.0000000000000D+00
210  2.0900000000000D+00  0.0000000000000D+00  0.0000000000000D+00
211  2.1000000000000D+00  0.0000000000000D+00  0.0000000000000D+00
212  2.1100000000000D+00  0.0000000000000D+00  0.0000000000000D+00
213  2.1200000000000D+00  0.0000000000000D+00  0.0000000000000D+00
214  2.1300000000000D+00  0.0000000000000D+00  0.0000000000000D+00
215  2.1400000000000D+00  0.0000000000000D+00  0.0000000000000D+00
216  2.1500000000000D+00  0.0000000000000D+00  0.0000000000000D+00
217  2.1600000000000D+00  0.0000000000000D+00  0.0000000000000D+00
218  2.1700000000000D+00  0.0000000000000D+00  0.0000000000000D+00
219  2.1800000000000D+00  0.0000000000000D+00  0.0000000000000D+00
220  2.1900000000000D+00  0.0000000000000D+00  0.0000000000000D+00
221  2.2000000000000D+00  0.0000000000000D+00  0.0000000000000D+00
222  2.2100000000000D+00  0.0000000000000D+00  0.0000000000000D+00
223  2.2200000000000D+00  0.0000000000000D+00  0.0000000000000D+00
224  2.2300000000000D+00  0.0000000000000D+00  0.0000000000000D+00
225  2.2400000000000D+00  0.0000000000000D+00  0.0000000000000D+00
226  2.2500000000000D+00  0.0000000000000D+00  0.0000000000000D+00
227  2.2600000000000D+00  0.0000000000000D+00  0.0000000000000D+00
228  2.2700000000000D+00  0.0000000000000D+00  0.0000000000000D+00
229  2.2800000000000D+00  0.0000000000000D+00  0.0000000000000D+00
230  2.2900000000000D+00  0.0000000000000D+00  0.0000000000000D+00
231  2.3000000000000D+00  0.0000000000000D+00  0.0000000000000D+00
232  2.3100000000000D+00  0.0000000000000D+00  0.0000000000000D+00
233  2.3200000000000D+00  0.0000000000000D+00  0.0000000000000D+00
234  2.3300000000000D+00  0.0000000000000D+00  0.0000000000000D+00
235  2.3400000000000D+00  0.0000000000000D+00  0.0000000000000D+00
236  2.3500000000000D+00  0.0000000000000D+00  0.0000000000000D+00
237  2.3600000000000D+00  0.0000000000000D+00  0.0000000000000D+00
238  2.3700000000000D+00  0.0000000000000D+00  0.0000000000000D+00
239  2.3800000000000D+00  0.0000000000000D+00  0.0000000000000D+00
240  2.3900000000000D+00  0.0000000000000D+00  0.0000000000000D+00
241  2.4000000000000D+00  0.0000000000000D+00  0.0000000000000D+00
242  2.4100000000000D+00  0.0000000000000D+00  0.0000000000000D+00
243  2.4200000000000D+00  0.0000000000000D+00  0.0000000000000D+00
244  2.4300000000000D+00  0.0000000000000D+00  0.0000000000000D+00
245  2.4400000000000D+00  0.0000000000000D+00  0.0000000000000D+00
246  2.4500000000000D+00  0.0000000000000D+00  0.0000000000000D+00
247  2.4600000000000D+00  0.0000000000000D+00  0.0000000000000D+00
248  2.4700000000000D+00  0.0000000000000D+00  0.0000000000000D+00
249  2.4800000000000D+00  0.0000000000000D+00  0.0000000000000D+00
250  2.4900000000000D+00  0.0000000000000D+00  0.0000000000000D+00
251  2.5000000000000D+00  0.0000000000000D+00  0.0000000000000D+00
252  2.5100000000000D+00  0.0000000000000D+00  0.0000000000000D+00
253  2.5200000000000D+00  0.0000000000000D+00  0.0000000000000D+00
254  2.5300000000000D+00  0.0000000000000D+00  0.0000000000000D+00
255  2.5400000000000D+00  0.0000000000000D+00  0.0000000000000D+00
256  2.5500000000000D+00  0.0000000000000D+00  0.0000000000000D+00
257  2.5600000000000D+00  0.0000000000000D+00  0.0000000000000D+00
258  2.5700000000000D+00  0.0000000000000D+00  0.0000000000000D+00
259  2.5800000000000D+00  0.0000000000000D+00  0.0000000000000D+00
260  2.5900000000000D+00  0.0000000000000D+00  0.0000000000000D+00
261  2.6000000000000D+00  0.0000000000000D+00  0.0000000000000D+00
262  2.6100000000000D+00  0.0000000000000D+00  0.0000000000000D+00
263  2.6200000000000D+00  0.0000000000000D+00  0.0000000000000D+00
264  2.6300000000000D+00  0.0000000000000D+00  0.0000000000000D+00
265  2.6400000000000D+00  0.0000000000000D+00  0.0000000000000D+00
266  2.6500000000000D+00  0.0000000000000D+00  0.0000000000000D+00
267  2.6600000000000D+00  0.0000000000000D+00  0.0000000000000D+00
268  2.6700000000000D+00  0.0000000000000D+00  0.0000000000000D+00
269  2.6800000000000D+00  0.0000000000000D+00  0.0000000000000D+00
270  2.6900000000000D+00  0.0000000000000D+00  0.0000000000000D+00
271  2.7000000000000D+00  0.0000000000000D+00  0.0000000000000D+00
272  2.7100000000000D+00  0.0000000000000D+00  0.0000000000000D+00
273  2.7200000000000D+00  0.0000000000000D+00  0.0000000000000D+00
274  2.7300000000000D+00  0.0000000000000D+00  0.0000000000000D+00
275  2.7400000000000D+00  0.0000000000000D+00  0.0000000000000D+00
276  2.7500000000000D+00  0.0000000000000D+00  0.0000000000000D+00
277  2.7600000000000D+00  0.0000000000000D+00  0.0000000000000D+00
278  2.7700000000000D+00  0.0000000000000D+00  0.0000000000000D+00
279  2.7800000000000D+00  0.0000000000000D+00  0.0000000000000D+00
280  2.7900000000000D+00  0.0000000000000D+00  0.0000000000000D+00
281  2.8000000000000D+00  0.0000000000000D+00  0.0000000000000D+00
282  2.8100000000000D+00  0.0000000000000D+00  0.0000000000000D+00
283  2.8200000000000D+00  0.0000000000000D+00  0.0000000000000D+00
284  2.8300000000000D+00  0.0000000000000D+00  0.0000000000000D+00
285  2.8400000000000D+00  0.0000000000000D+00  0.0000000000000D+00
286  2.8500000000000D+00  0.0000000000000D+00  0.0000000000000D+00
287  2.8600000000000D+00  0.0000000000000D+00  0.0000000000000D+00
288  2.8700000000000D+00  0.0000000000000D+00  0.0000000000000D+00
289  2.8800000000000D+00  0.0000000000000D+00  0.0000000000000D+00
290  2.8900000000000D+00  0.0000000000000D+00  0.0000000000000D+00
291  2.9000000000000D+00  0.0000000000000D+00  0.0000000000000D+00
292  2.9100000000000D+00  0.0000000000000D+00  0.0000000000000D+00
293  2.9200000000000D+00  0.0000000000000D+00  0.0000000000000D+00
294  2.9300000000000D+00  0.0000000000000D+00  0.0000000000000D+00
295  2.9400000000000D+00  0.0000000000000D+00  0.0000000000000D+00
296  2.9500000000000D+00  0.0000000000000D+00  0.0000000000000D+00
297  2.9600000000000D+00  0.0000000000000D+00  0.0000000000000D+00
298  2.9700000000000D+00  0.0000000000000D+00  0.0000000000000D+00
299  2.9800000000000D+00  0.0000000000000D+00  0.0000000000000D+00
300  2.9900000000000D+00  0.0000000000000D+00  0.0000000000000D+00
301  3.0000000000000D+00  0.0000000000000D+00  0.0000000000000D+00
302  3.0100000000000D+00  0.0000000000000D+00  0.0000000000000D+00
303  3.0200000000000D+00  0.0000000000000D+00  0.0000000000000D+00
304  3.0300000000000D+00  0.0000000000000D+00  0.0000000000000D+00
305  3.0400000000000D+00  0.0000000000000D+00  0.0000000000000D+00
306  3.0500000000000D+00  0.0000000000000D+00  0.0000000000000D+00
307  3.0600000000000D+00  0.0000000000000D+00  0.0000000000000D+00
308  3.0700000000000D+00  0.0000000000000D+00  0.0000000000000D+00
309  3.0800000000000D+00  0.0000000000000D+00  0.0000000000000D+00
310  3.0900000000000D+00  0.0000000000000D+00  0.0000000000000D+00
311  3.1000000000000D+00  0.0000000000000D+00  0.0000000000000D+00
312  3.1100000000000D+00  0.0000000000000D+00  0.0000000000000D+00
313  3.1200000000000D+00  0.0000000000000D+00  0.0000000000000D+00
314  3.1300000000000D+00  0.0000000000000D+00  0.0000000000000D+00
315  3.1400000000000D+00  0.0000000000000D+00  0.0000000000000D+00
316  3.1500000000000D+00  0.0000000000000D+00  0.0000000000000D+00
317  3.1600000000000D+00  0.0000000000000D+00  0.0000000000000D+00
318  3.1700000000000D+00  0.0000000000000D+00  0.0000000000000D+00
319  3.1800000000000D+00  0.0000000000000D+00  0.0000000000000D+00
320  3.1900000000000D+00  0.0000000000000D+00  0.0000000000000D+00
321  3.2000000000000D+00  0.0000000000000D+00  0.0000000000000D+00
322  3.2100000000000D+00  0.0000000000000D+00  0.0000000000000D+00
323  3.2200000000000D+00  0.0000000000000D+00  0.0000000000000D+00
324  3.2300000000000D+00  0.0000000000000D+00  0.0000000000000D+00
325  3.2400000000000D+00  0.0000000000000D+00  0.0000000000000D+00
326  3.2500000000000D+00  0.0000000000000D+00  0.0000000000000D+00
327  3.2600000000000D+00  0.0000000000000D+00  0.0000000000000D+00
328  3.2700000000000D+00  0.0000000000000D+00  0.0000000000000D+00
329  3.2800000000000D+00  0.0000000000000D+00  0.0000000000000D+00
330  3.2900000000000D+00  0.0000000000000D+00  0.0000000000000D+00
331  3.3000000000000D+00  0.0000000000000D+00  0.0000000000000D+00
332  3.3100000000000D+00  0.0000000000000D+00  0.0000000000000D+00
333  3.3200000000000D+00  0.0000000000000D+00  0.0000000000000D+00
334  3.3300000000000D+00  0.0000000000000D+00  0.0000000000000D+00
335  3.3400000000000D+00  0.0000000000000D+00  0.0000000000000D+00
336  3.3500000000000D+00  0.0000000000000D+00  0.0000000000000D+00
337  3.3600000000000D+00  0.0000000000000D+00  0.0000000000000D+00
338  3.3700000000000D+00  0.0000000000000D+00  0.0000000000000D+00
339  3.3800000000000D+00  0.0000000000000D+00  0.0000000000000D+00
340  3.3900000000000D+00  0.0000000000000D+00  0.0000000000000D+00
341  3.4000000000000D+00  0.0000000000000D+00  0.0000000000000D+00
342  3.4100000000000D+00  0.0000000000000D+00  0.0000000000000D+00
343  3.4200000000000D+00  0.0000000000000D+00  0.0000000000000D+00
344  3.4300000000000D+00  0.0000000000000D+00  0.0000000000000D+00
345  3.4400000000000D+00  0.0000000000000D+00  0.0000000000000D+00
346  3.4500000000000D+00  0.0000000000000D+00  0.0000000000000D+00
347  3.4600000000000D+00  0.0000000000000D+00  0.0000000000000D+00
348  3.4700000000000D+00  0.0000000000000D+00  0.0000000000000D+00
349  3.4800000000000D+00  0.0000000000000D+00  0.0000000000000D+00
350  3.4900000000000D+00  0.0000000000000D+00  0.0000000000000D+00
351  3.5000000000000D+00  0.0000000000000D+00  0.0000000000000D+00
352  3.5100000000000D+00  0.0000000000000D+00  0.0000000000000D+00
353  3.5200000000000D+00  0.0000000000000D+00  0.0000000000000D+00
354  3.5300000000000D+00  0.0000000000000D+00  0.0000000000000D+00
355  3.5400000000000D+00  0.0000000000000D+00  0.0000000000000D+00
356  3.5500000000000D+00  0.0000000000000D+00  0.0000000000000D+00
357  3.5600000000000D+00  0.0000000000000D+00  0.0000000000000D+00
358  3.5700000000000D+00  0.0000000000000D+00  0.0000000000000D+00
359  3.5800000000000D+00  0.0000000000000D+00  0.0000000000000D+00
360  3.5900000000000D+00  0.0000000000000D+00  0.0000000000000D+00
361  3.6000000000000D+00  0.0000000000000D+00  0.0000000000000D+00
362  3.6100000000000D+00  0.0000000000000D+00  0.0000000000000D+00
363  3.6200000000000D+00  0.0000000000000D+00  0.0000000000000D+00
364  3.6300000000000D+00  0.0000000000000D+00  0.0000000000000D+00
365  3.6400000000000D+00  0.0000000000000D+00  0.0000000000000D+00
366  3.6500000000000D+00  0.0000000000000D+00  0.0000000000000D+00
367  3.6600000000000D+00  0.0000000000000D+00  0.0000000000000D+00
368  3.6700000000000D+00  0.0000000000000D+00  0.0000000000000D+00
369  3.6800000000000D+00  0.0000000000000D+00  0.0000000000000D+00
370  3.6900000000000D+00  0.0000000000000D+00  0.0000000000000D+00
371  3.7000000000000D+00  0.0000000000000D+00  0.0000000000000D+00
372  3.7100000000000D+00  0.0000000000000D+00  0.0000000000000D+00
373  3.7200000000000D+00  0.0000000000000D+00  0.0000000000000D+00
374  3.7300000000000D+00  0.0000000000000D+00  0.0000000000000D+00
375  3.7400000000000D+00  0.0000000000000D+00  0.0000000000000D+00
376  3.7500000000000D+00  0.0000000000000D+00  0.0000000000000D+00
377  3.7600000000000D+00  0.0000000000000D+00  0.0000000000000D+00
378  3.7700000000000D+00  0.0000000000000D+00  0.0000000000000D+00
379  3.7800000000000D+00  0.0000000000000D+00  0.0000000000000D+00
380  3.7900000000000D+00  0.0000000000000D+00  0.0000000000000D+00
381  3.8000000000000D+00  0.0000000000000D+00  0.0000000000000D+00
382  3.8100000000000D+00  0.0000000000000D+00  0.0000000000000D+00
383  3.8200000000000D+00  0.0000000000000D+00  0.0000000000000D+00
384  3.8300000000000D+00  0.0000000000000D+00  0.0000000000000D+00
385  3.8400000000000D+00  0.0000000000000D+00  0.0000000000000D+00
386  3.8500000000000D+00  0.0000000000000D+00  0.0000000000000D+00
387  3.8600000000000D+00  0.0000000000000D+00  0.0000000000000D+00
388  3.8700000000000D+00  0.0000000000000D+00  0.0000000000000D+00
389  3.8800000000000D+00  0.0000000000000D+00  0.0000000000000D+00
390  3.8900000000000D+00  0.0000000000000D+00  0.0000000000000D+00
391  3.9000000000000D+00  0.0000000000000D+00  0.0000000000000D+00
392  3.9100000000000D+00  0.0000000000000D+00  0.0000000000000D+00
393  3.9200000000000D+00  0.0000000000000D+00  0.0000000000000D+00
394  3.9300000000000D+00  0.0000000000000D+00  0.0000000000000D+00
395  3.9400000000000D+00  0.0000000000000D+00  0.0000000000000D+00
396  3.9500000000000D+00  0.0000000000000D+00  0.0000000000000D+00
397  3.9600000000000D+00  0.0000000000000D+00  0.0000000000000D+00
398  3.9700000000000D+00  0.0000000000000D+00  0.0000000000000D+00
399  3.9800000000000D+00  0.0000000000000D+00  0.0000000000000D+00
400  3.9900000000000D+00  0.0000000000000D+00  0.0000000000000D+00
401  4.0000000000000D+00  0.0000000000000D+00  0.0000000000000D+00
402  4.0100000000000D+00  0.0000000000000D+00  0.0000000000000D+00
403  4.0200000000000D+00  0.0000000000000D+00  0.0000000000000D+00
404  4.0300000000000D+00  0.0000000000000D+00  0.0000000000000D+00
405  4.0400000000000D+00  0.0000000000000D+00  0.0000000000000D+00
406  4.0500000000000D+00  0.0000000000000D+00  0.0000000000000D+00
407  4.0600000000000D+00  0.0000000000000D+00  0.0000000000000D+00
408  4.0700000000000D+00  0.0000000000000D+00  0.0000000000000D+00
409  4.0800000000000D+00  0.0000000000000D+00  0.0000000000000D+00
410  4.0900000000000D+00  0.0000000000000D+00  0.0000000000000D+00
411  4.1000000000000D+00  0.0000000000000D+00  0.0000000000000D+00
412  4.1100000000000D+00  0.0000000000000D+00  0.0000000000000D+00
413  4.1200000000000D+00  0.0000000000000D+00  0.0000000000000D+00
414  4.1300000000000D+00  0.0000000000000D+00  0.0000000000000D+00
415  4.1400000000000D+00  0.0000000000000D+00  0.0000000000000D+00
416  4.1500000000000D+00  0.0000000000000D+00  0.0000000000000D+00
417  4.1600000000000D+00  0.0000000000000D+00  0.0000000000000D+00
418  4.1700000000000D+00  0.0000000000000D+00  0.0000000000000D+00
419  4.1800000000000D+00  0.0000000000000D+00  0.0000000000000D+00
420  4.1900000000000D+00  0.0000000000000D+00  0.0000000000000D+00
421  4.2000000000000D+00  0.0000000000000D+00  0.0000000000000D+00
422  4.2100000000000D+00  0.0000000000000D+00  0.0000000000000D+00
423  4.2200000000000D+00  0.0000000000000D+00  0.0000000000000D+00
424  4.2300000000000D+00  0.0000000000000D+00  0.0000000000000D+00
425  4.2400000000000D+00  0.0000000000000D+00  0.0000000000000D+00
426  4.2500000000000D+00  0.0000000000000D+00  0.0000000000000D+00
427  4.2600000000000D+00  0.0000000000000D+00  0.0000000000000D+00
428  4.2700000000000D+00  0.0000000000000D+00  0.0000000000000D+00
429  4.2800000000000D+00  0.0000000000000D+00  0.0000000000000D+00
430  4.2900000000000D+00  0.0000000000000D+00  0.0000000000000D+00
431  4.3000000000000D+00  0.0000000000000D+00  0.0000000000000D+00
432  4.3100000000000D+00  0.0000000000000D+00  0.0000000000000D+00
433  4.3200000000000D+00  0.0000000000000D+00  0.0000000000000D+00
434  4.3300000000000D+00  0.0000000000000D+00  0.0000000000000D+00
435  4.3400000000000D+00  0.0000000000000D+00  0.0000000000000D+00
436  4.3500000000000D+00  0.0000000000000D+00  0.0000000000000D+00
437  4.3600000000000D+00  0.0000000000000D+00  0.0000000000000D+00
438  4.3700000000000D+00  0.0000000000000D+00  0.0000000000000D+00
439  4.3800000000000D+00  0.0000000000000D+00  0.0000000000000D+00
440  4.3900000000000D+00  0.0000000000000D+00  0.0000000000000D+00
441  4.4000000000000D+00  0.0000000000000D+00  0.0000000000000D+00
442  4.4100000000000D+00  0.0000000000000D+00  0.0000000000000D+00
443  4.4200000000000D+00  0.0000000000000D+00  0.0000000000000D+00
444  4.4300000000000D+00  0.0000000000000D+00  0.0000000000000D+00