Cr    ONCVPSP  r_core=  1.31  1.31  1.72
24.0000     14.0000      160520    zatom,zion,pspd
8      11   2     4   600     0    pspcod,pspxc,lmax,lloc,mmax,r2well
5.99000000  5.00000000  0.00000000    rchrg fchrg qchrg
2     3     2     0    nproj
3                 extension_switch
4     4     0    nprojso
0                        -1.0383147858325D+00  6.4241107857060D+00
1  0.0000000000000D+00  2.8144423569465D-08  2.1413004702708D-09
2  1.0000000000000D-02 -9.8704984731619D-02  7.5143170712585D-02
3  2.0000000000000D-02 -1.9605406122156D-01  1.5018231812223D-01
4  3.0000000000000D-02 -2.9071418070741D-01  2.2501231018673D-01
5  4.0000000000000D-02 -3.8139760286117D-01  2.9952582685233D-01
6  5.0000000000000D-02 -4.6688353105279D-01  3.7361233915514D-01
7  6.0000000000000D-02 -5.4603854533816D-01  4.4715717449351D-01
8  7.0000000000000D-02 -6.1783546614112D-01  5.2004069422806D-01
9  8.0000000000000D-02 -6.8137030974380D-01  5.9213760762478D-01
10  9.0000000000000D-02 -7.3587703093762D-01  6.6331644355260D-01
11  1.0000000000000D-01 -7.8073978791715D-01  7.3343919832562D-01
12  1.1000000000000D-01 -8.1550250901734D-01  8.0236117469682D-01
13  1.2000000000000D-01 -8.3987558941670D-01  8.6993102332392D-01
14  1.3000000000000D-01 -8.5373959759553D-01  9.3599099410594D-01
15  1.4000000000000D-01 -8.5714592523538D-01  1.0003774007003D+00
16  1.5000000000000D-01 -8.5031436941665D-01  1.0629212973494D+00
17  1.6000000000000D-01 -8.3362769143712D-01  1.1234493629467D+00
18  1.7000000000000D-01 -8.0762325134584D-01  1.1817849831326D+00
19  1.8000000000000D-01 -7.7298187038828D-01  1.2377495172034D+00
20  1.9000000000000D-01 -7.3051412403968D-01  1.2911637328163D+00
21  2.0000000000000D-01 -6.8114431525534D-01  1.3418493879503D+00
22  2.1000000000000D-01 -6.2589242014568D-01  1.3896309363990D+00
23  2.2000000000000D-01 -5.6585433571471D-01  1.4343373302885D+00
24  2.3000000000000D-01 -5.0218079090180D-01  1.4758038907861D+00
25  2.4000000000000D-01 -4.3605530735409D-01  1.5138742163304D+00
26  2.5000000000000D-01 -3.6867161465871D-01  1.5484020964182D+00
27  2.6000000000000D-01 -3.0121093583034D-01  1.5792533982440D+00
28  2.7000000000000D-01 -2.3481956245212D-01  1.6063078933283D+00
29  2.8000000000000D-01 -1.7058713491738D-01  1.6294609916977D+00
30  2.9000000000000D-01 -1.0952603175034D-01  1.6486253521839D+00
31  3.0000000000000D-01 -5.2552253173213D-02  1.6637323389858D+00
32  3.1000000000000D-01 -4.6815823527642D-04  1.6747332967573D+00
33  3.2000000000000D-01  4.6052617641356D-02  1.6816006191140D+00
34  3.3000000000000D-01  8.6477776367297D-02  1.6843285885522D+00
35  3.4000000000000D-01  1.2042625773496D-01  1.6829339692911D+00
36  3.5000000000000D-01  1.4767523096994D-01  1.6774563384235D+00
37  3.6000000000000D-01  1.6816403381115D-01  1.6679581449341D+00
38  3.7000000000000D-01  1.8199497089065D-01  1.6545244905333D+00
39  3.8000000000000D-01  1.8943094034350D-01  1.6372626307981D+00
40  3.9000000000000D-01  1.9088991562480D-01  1.6163011997199D+00
41  4.0000000000000D-01  1.8693636742668D-01  1.5917891653566D+00
42  4.1000000000000D-01  1.7826976732028D-01  1.5638945287956D+00
43  4.2000000000000D-01  1.6571036928132D-01  1.5328027829678D+00
44  4.3000000000000D-01  1.5018251659771D-01  1.4987151519427D+00
45  4.4000000000000D-01  1.3269576886364D-01  1.4618466351011D+00
46  4.5000000000000D-01  1.1432418596405D-01  1.4224238839598D+00
47  4.6000000000000D-01  9.6184142353813D-02  1.3806829423509D+00
48  4.7000000000000D-01  7.9411074847649D-02  1.3368668830824D+00
49  4.8000000000000D-01  6.5135589973752D-02  1.2912233760757D+00
50  4.9000000000000D-01  5.4459372253416D-02  1.2440022242666D+00
51  5.0000000000000D-01  4.8431342209374D-02  1.1954529042260D+00
52  5.1000000000000D-01  4.8024512299476D-02  1.1458221485027D+00
53  5.2000000000000D-01  5.4113980263184D-02  1.0953516061016D+00
54  5.3000000000000D-01  6.7456482639109D-02  1.0442756162953D+00
55  5.4000000000000D-01  8.8671906727582D-02  9.9281912914217D-01
56  5.5000000000000D-01  1.1822712739904D-01  9.4119580367790D-01
57  5.6000000000000D-01  1.5642249633065D-01  8.8960631179535D-01
58  5.7000000000000D-01  2.0338126635897D-01  8.3823687239255D-01
59  5.8000000000000D-01  2.5904218296609D-01  7.8725803647461D-01
60  5.9000000000000D-01  3.2315542003648D-01  7.3682373966245D-01
61  6.0000000000000D-01  3.9528197793114D-01  6.8707063398858D-01
62  6.1000000000000D-01  4.7479660079457D-01  6.3811770611383D-01
63  6.2000000000000D-01  5.6089420666636D-01  5.9006618416627D-01
64  6.3000000000000D-01  6.5259976068922D-01  5.4299973045880D-01
65  6.4000000000000D-01  7.4878145880722D-01  4.9698491241016D-01
66  6.5000000000000D-01  8.4816702819600D-01  4.5207193917960D-01
67  6.6000000000000D-01  9.4936289273692D-01  4.0829564694328D-01
68  6.7000000000000D-01  1.0508758975001D+00  3.6567671141766D-01
69  6.8000000000000D-01  1.1511372370334D+00  3.2422306229530D-01
70  6.9000000000000D-01  1.2485281889511D+00  2.8393147075616D-01
71  7.0000000000000D-01  1.3414072177347D+00  2.4478927821864D-01
72  7.1000000000000D-01  1.4281379843485D+00  2.0677623204168D-01
73  7.2000000000000D-01  1.5071177761860D+00  1.6986639205952D-01
74  7.3000000000000D-01  1.5768058590896D+00  1.3403007062947D-01
75  7.4000000000000D-01  1.6357512491980D+00  9.9235768340161D-02
76  7.5000000000000D-01  1.6826194072606D+00  6.5452067670926D-02
77  7.6000000000000D-01  1.7162173718924D+00  3.2649447719000D-02
78  7.7000000000000D-01  1.7355168707220D+00  8.0198460075569D-04
79  7.8000000000000D-01  1.7396749792867D+00 -3.0111095731135D-02
80  7.9000000000000D-01  1.7280519363351D+00 -6.0104042768020D-02
81  8.0000000000000D-01  1.7002257702793D+00 -8.9183412028084D-02
82  8.1000000000000D-01  1.6560034441596D+00 -1.1734712433125D-01
83  8.2000000000000D-01  1.5954282847369D+00 -1.4458377289897D-01
84  8.3000000000000D-01  1.5187835242427D+00 -1.7087219278750D-01
85  8.4000000000000D-01  1.4265918498201D+00 -1.9618130225201D-01
86  8.5000000000000D-01  1.3196109245734D+00 -2.2047022053078D-01
87  8.6000000000000D-01  1.1988249142866D+00 -2.4368866131992D-01
88  8.7000000000000D-01  1.0654321240664D+00 -2.6577759596948D-01
89  8.8000000000000D-01  9.2082891787054D-01 -2.8667017528835D-01
90  8.9000000000000D-01  7.6659016040463D-01 -3.0629289385203D-01
91  9.0000000000000D-01  6.0444648347917D-01 -3.2456697599360D-01
92  9.1000000000000D-01  4.3625873679792D-01 -3.4140995828775D-01
93  9.2000000000000D-01  2.6399003512606D-01 -3.5673743939925D-01
94  9.3000000000000D-01  8.9675858910635D-02 -3.7046496473379D-01
95  9.4000000000000D-01 -8.4607297146710D-02 -3.8251001046534D-01
96  9.5000000000000D-01 -2.5677420405510D-01 -3.9279402927519D-01
97  9.6000000000000D-01 -4.2476356350895D-01 -4.0124451856892D-01
98  9.7000000000000D-01 -5.8657050373040D-01 -4.0779707107032D-01
99  9.8000000000000D-01 -7.4027835102239D-01 -4.1239736754183D-01
100  9.9000000000000D-01 -8.8408913091648D-01 -4.1500307198462D-01
101  1.0000000000000D+00 -1.0163522710408D+00 -4.1558559096629D-01
102  1.0100000000000D+00 -1.1355910052675D+00 -4.1413166070889D-01
103  1.0200000000000D+00 -1.2405260163907D+00 -4.1064472832483D-01
104  1.0300000000000D+00 -1.3300958989915D+00 -4.0514609685230D-01
105  1.0400000000000D+00 -1.4034740769557D+00 -3.9767580763707D-01
106  1.0500000000000D+00 -1.4600818707669D+00 -3.8829323809564D-01
107  1.0600000000000D+00 -1.4995974733182D+00 -3.7707739761056D-01
108  1.0700000000000D+00 -1.5219606621930D+00 -3.6412690944692D-01
109  1.0800000000000D+00 -1.5273731531005D+00 -3.4955967228372D-01
110  1.0900000000000D+00 -1.5162945704386D+00 -3.3351220025921D-01
111  1.1000000000000D+00 -1.4894340921835D+00 -3.1613864647865D-01
112  1.1100000000000D+00 -1.4477378937842D+00 -2.9760951996101D-01
113  1.1200000000000D+00 -1.3923725972071D+00 -2.7811011207471D-01
114  1.1300000000000D+00 -1.3247049994749D+00 -2.5783865359882D-01
115  1.1400000000000D+00 -1.2462784220612D+00 -2.3700422854414D-01
116  1.1500000000000D+00 -1.1587860785537D+00 -2.1582447504786D-01
117  1.1600000000000D+00 -1.0640419162478D+00 -1.9452310799897D-01
118  1.1700000000000D+00 -9.6394943529350D-01 -1.7332730162355D-01
119  1.1800000000000D+00 -8.6046902305757D-01 -1.5246497278749D-01
120  1.1900000000000D+00 -7.5558436706891D-01 -1.3216200768428D-01
121  1.2000000000000D+00 -6.5126853827371D-01 -1.1263947667062D-01
122  1.2100000000000D+00 -5.4945033697472D-01 -9.4110882037109D-02
123  1.2200000000000D+00 -4.5198149054874D-01 -7.6779483227869D-02
124  1.2300000000000D+00 -3.6060529271339D-01 -6.0835744051899D-02
125  1.2400000000000D+00 -2.7692723980907D-01 -4.6454943811975D-02
126  1.2500000000000D+00 -2.0238817919696D-01 -3.3794991217292D-02
127  1.2600000000000D+00 -1.3824048368890D-01 -2.2994479846052D-02
128  1.2700000000000D+00 -8.5560344611719D-02 -1.4176357207853D-02
129  1.2800000000000D+00 -4.4893060211938D-02 -7.3919864735010D-03
130  1.2900000000000D+00 -1.7414379918534D-02 -2.8085396947152D-03
131  1.3000000000000D+00 -3.8204625427438D-03 -5.2880281437768D-04
132  1.3100000000000D+00  2.1065540424602D-04  1.1288539787227D-04
133  1.3200000000000D+00  1.1144948570909D-04  2.7320508691912D-05
134  1.3300000000000D+00 -1.7261391779770D-04 -3.9071354848997D-05
135  1.3400000000000D+00  1.5235195815438D-05  3.9105201816094D-06
136  1.3500000000000D+00  1.7660970350131D-05  4.3428502613293D-06
137  1.3600000000000D+00  1.8591245098827D-06  3.1374843464667D-08
138  1.3700000000000D+00  0.0000000000000D+00  0.0000000000000D+00
139  1.3800000000000D+00  0.0000000000000D+00  0.0000000000000D+00
140  1.3900000000000D+00  0.0000000000000D+00  0.0000000000000D+00
141  1.4000000000000D+00  0.0000000000000D+00  0.0000000000000D+00
142  1.4100000000000D+00  0.0000000000000D+00  0.0000000000000D+00
143  1.4200000000000D+00  0.0000000000000D+00  0.0000000000000D+00
144  1.4300000000000D+00  0.0000000000000D+00  0.0000000000000D+00
145  1.4400000000000D+00  0.0000000000000D+00  0.0000000000000D+00
146  1.4500000000000D+00  0.0000000000000D+00  0.0000000000000D+00
147  1.4600000000000D+00  0.0000000000000D+00  0.0000000000000D+00
148  1.4700000000000D+00  0.0000000000000D+00  0.0000000000000D+00
149  1.4800000000000D+00  0.0000000000000D+00  0.0000000000000D+00
150  1.4900000000000D+00  0.0000000000000D+00  0.0000000000000D+00
151  1.5000000000000D+00  0.0000000000000D+00  0.0000000000000D+00
152  1.5100000000000D+00  0.0000000000000D+00  0.0000000000000D+00
153  1.5200000000000D+00  0.0000000000000D+00  0.0000000000000D+00
154  1.5300000000000D+00  0.0000000000000D+00  0.0000000000000D+00
155  1.5400000000000D+00  0.0000000000000D+00  0.0000000000000D+00
156  1.5500000000000D+00  0.0000000000000D+00  0.0000000000000D+00
157  1.5600000000000D+00  0.0000000000000D+00  0.0000000000000D+00
158  1.5700000000000D+00  0.0000000000000D+00  0.0000000000000D+00
159  1.5800000000000D+00  0.0000000000000D+00  0.0000000000000D+00
160  1.5900000000000D+00  0.0000000000000D+00  0.0000000000000D+00
161  1.6000000000000D+00  0.0000000000000D+00  0.0000000000000D+00
162  1.6100000000000D+00  0.0000000000000D+00  0.0000000000000D+00
163  1.6200000000000D+00  0.0000000000000D+00  0.0000000000000D+00
164  1.6300000000000D+00  0.0000000000000D+00  0.0000000000000D+00
165  1.6400000000000D+00  0.0000000000000D+00  0.0000000000000D+00
166  1.6500000000000D+00  0.0000000000000D+00  0.0000000000000D+00
167  1.6600000000000D+00  0.0000000000000D+00  0.0000000000000D+00
168  1.6700000000000D+00  0.0000000000000D+00  0.0000000000000D+00
169  1.6800000000000D+00  0.0000000000000D+00  0.0000000000000D+00
170  1.6900000000000D+00  0.0000000000000D+00  0.0000000000000D+00
171  1.7000000000000D+00  0.0000000000000D+00  0.0000000000000D+00
172  1.7100000000000D+00  0.0000000000000D+00  0.0000000000000D+00
173  1.7200000000000D+00  0.0000000000000D+00  0.0000000000000D+00
174  1.7300000000000D+00  0.0000000000000D+00  0.0000000000000D+00
175  1.7400000000000D+00  0.0000000000000D+00  0.0000000000000D+00
176  1.7500000000000D+00  0.0000000000000D+00  0.0000000000000D+00
177  1.7600000000000D+00  0.0000000000000D+00  0.0000000000000D+00
178  1.7700000000000D+00  0.0000000000000D+00  0.0000000000000D+00
179  1.7800000000000D+00  0.0000000000000D+00  0.0000000000000D+00
180  1.7900000000000D+00  0.0000000000000D+00  0.0000000000000D+00
181  1.8000000000000D+00  0.0000000000000D+00  0.0000000000000D+00
182  1.8100000000000D+00  0.0000000000000D+00  0.0000000000000D+00
183  1.8200000000000D+00  0.0000000000000D+00  0.0000000000000D+00
184  1.8300000000000D+00  0.0000000000000D+00  0.0000000000000D+00
185  1.8400000000000D+00  0.0000000000000D+00  0.0000000000000D+00
186  1.8500000000000D+00  0.0000000000000D+00  0.0000000000000D+00
187  1.8600000000000D+00  0.0000000000000D+00  0.0000000000000D+00
188  1.8700000000000D+00  0.0000000000000D+00  0.0000000000000D+00
189  1.8800000000000D+00  0.0000000000000D+00  0.0000000000000D+00
190  1.8900000000000D+00  0.0000000000000D+00  0.0000000000000D+00
191  1.9000000000000D+00  0.0000000000000D+00  0.0000000000000D+00
192  1.9100000000000D+00  0.0000000000000D+00  0.0000000000000D+00
193  1.9200000000000D+00  0.0000000000000D+00  0.0000000000000D+00
194  1.9300000000000D+00  0.0000000000000D+00  0.0000000000000D+00
195  1.9400000000000D+00  0.0000000000000D+00  0.0000000000000D+00
196  1.9500000000000D+00  0.0000000000000D+00  0.0000000000000D+00
197  1.9600000000000D+00  0.0000000000000D+00  0.0000000000000D+00
198  1.9700000000000D+00  0.0000000000000D+00  0.0000000000000D+00
199  1.9800000000000D+00  0.0000000000000D+00  0.0000000000000D+00
200  1.9900000000000D+00  0.0000000000000D+00  0.0000000000000D+00
201  2.0000000000000D+00  0.0000000000000D+00  0.0000000000000D+00
202  2.0100000000000D+00  0.0000000000000D+00  0.0000000000000D+00
203  2.0200000000000D+00  0.0000000000000D+00  0.0000000000000D+00
204  2.0300000000000D+00  0.0000000000000D+00  0.0000000000000D+00
205  2.0400000000000D+00  0.0000000000000D+00  0.0000000000000D+00
206  2.0500000000000D+00  0.0000000000000D+00  0.0000000000000D+00
207  2.0600000000000D+00  0.0000000000000D+00  0.0000000000000D+00
208  2.0700000000000D+00  0.0000000000000D+00  0.0000000000000D+00
209  2.0800000000000D+00  0.0000000000000D+00  0.0000000000000D+00
210  2.0900000000000D+00  0.0000000000000D+00  0.0000000000000D+00
211  2.1000000000000D+00  0.0000000000000D+00  0.0000000000000D+00
212  2.1100000000000D+00  0.0000000000000D+00  0.0000000000000D+00
213  2.1200000000000D+00  0.0000000000000D+00  0.0000000000000D+00
214  2.1300000000000D+00  0.0000000000000D+00  0.0000000000000D+00
215  2.1400000000000D+00  0.0000000000000D+00  0.0000000000000D+00
216  2.1500000000000D+00  0.0000000000000D+00  0.0000000000000D+00
217  2.1600000000000D+00  0.0000000000000D+00  0.0000000000000D+00
218  2.1700000000000D+00  0.0000000000000D+00  0.0000000000000D+00
219  2.1800000000000D+00  0.0000000000000D+00  0.0000000000000D+00
220  2.1900000000000D+00  0.0000000000000D+00  0.0000000000000D+00
221  2.2000000000000D+00  0.0000000000000D+00  0.0000000000000D+00
222  2.2100000000000D+00  0.0000000000000D+00  0.0000000000000D+00
223  2.2200000000000D+00  0.0000000000000D+00  0.0000000000000D+00
224  2.2300000000000D+00  0.0000000000000D+00  0.0000000000000D+00
225  2.2400000000000D+00  0.0000000000000D+00  0.0000000000000D+00
226  2.2500000000000D+00  0.0000000000000D+00  0.0000000000000D+00
227  2.2600000000000D+00  0.0000000000000D+00  0.0000000000000D+00
228  2.2700000000000D+00  0.0000000000000D+00  0.0000000000000D+00
229  2.2800000000000D+00  0.0000000000000D+00  0.0000000000000D+00
230  2.2900000000000D+00  0.0000000000000D+00  0.0000000000000D+00
231  2.3000000000000D+00  0.0000000000000D+00  0.0000000000000D+00
232  2.3100000000000D+00  0.0000000000000D+00  0.0000000000000D+00
233  2.3200000000000D+00  0.0000000000000D+00  0.0000000000000D+00
234  2.3300000000000D+00  0.0000000000000D+00  0.0000000000000D+00
235  2.3400000000000D+00  0.0000000000000D+00  0.0000000000000D+00
236  2.3500000000000D+00  0.0000000000000D+00  0.0000000000000D+00
237  2.3600000000000D+00  0.0000000000000D+00  0.0000000000000D+00
238  2.3700000000000D+00  0.0000000000000D+00  0.0000000000000D+00
239  2.3800000000000D+00  0.0000000000000D+00  0.0000000000000D+00
240  2.3900000000000D+00  0.0000000000000D+00  0.0000000000000D+00
241  2.4000000000000D+00  0.0000000000000D+00  0.0000000000000D+00
242  2.4100000000000D+00  0.0000000000000D+00  0.0000000000000D+00
243  2.4200000000000D+00  0.0000000000000D+00  0.0000000000000D+00
244  2.4300000000000D+00  0.0000000000000D+00  0.0000000000000D+00
245  2.4400000000000D+00  0.0000000000000D+00  0.0000000000000D+00
246  2.4500000000000D+00  0.0000000000000D+00  0.0000000000000D+00
247  2.4600000000000D+00  0.0000000000000D+00  0.0000000000000D+00
248  2.4700000000000D+00  0.0000000000000D+00  0.0000000000000D+00
249  2.4800000000000D+00  0.0000000000000D+00  0.0000000000000D+00
250  2.4900000000000D+00  0.0000000000000D+00  0.0000000000000D+00
251  2.5000000000000D+00  0.0000000000000D+00  0.0000000000000D+00
252  2.5100000000000D+00  0.0000000000000D+00  0.0000000000000D+00
253  2.5200000000000D+00  0.0000000000000D+00  0.0000000000000D+00
254  2.5300000000000D+00  0.0000000000000D+00  0.0000000000000D+00
255  2.5400000000000D+00  0.0000000000000D+00  0.0000000000000D+00
256  2.5500000000000D+00  0.0000000000000D+00  0.0000000000000D+00
257  2.5600000000000D+00  0.0000000000000D+00  0.0000000000000D+00
258  2.5700000000000D+00  0.0000000000000D+00  0.0000000000000D+00
259  2.5800000000000D+00  0.0000000000000D+00  0.0000000000000D+00
260  2.5900000000000D+00  0.0000000000000D+00  0.0000000000000D+00
261  2.6000000000000D+00  0.0000000000000D+00  0.0000000000000D+00
262  2.6100000000000D+00  0.0000000000000D+00  0.0000000000000D+00
263  2.6200000000000D+00  0.0000000000000D+00  0.0000000000000D+00
264  2.6300000000000D+00  0.0000000000000D+00  0.0000000000000D+00
265  2.6400000000000D+00  0.0000000000000D+00  0.0000000000000D+00
266  2.6500000000000D+00  0.0000000000000D+00  0.0000000000000D+00
267  2.6600000000000D+00  0.0000000000000D+00  0.0000000000000D+00
268  2.6700000000000D+00  0.0000000000000D+00  0.0000000000000D+00
269  2.6800000000000D+00  0.0000000000000D+00  0.0000000000000D+00
270  2.6900000000000D+00  0.0000000000000D+00  0.0000000000000D+00
271  2.7000000000000D+00  0.0000000000000D+00  0.0000000000000D+00
272  2.7100000000000D+00  0.0000000000000D+00  0.0000000000000D+00
273  2.7200000000000D+00  0.0000000000000D+00  0.0000000000000D+00
274  2.7300000000000D+00  0.0000000000000D+00  0.0000000000000D+00
275  2.7400000000000D+00  0.0000000000000D+00  0.0000000000000D+00
276  2.7500000000000D+00  0.0000000000000D+00  0.0000000000000D+00
277  2.7600000000000D+00  0.0000000000000D+00  0.0000000000000D+00
278  2.7700000000000D+00  0.0000000000000D+00  0.0000000000000D+00
279  2.7800000000000D+00  0.0000000000000D+00  0.0000000000000D+00
280  2.7900000000000D+00  0.0000000000000D+00  0.0000000000000D+00
281  2.8000000000000D+00  0.0000000000000D+00  0.0000000000000D+00
282  2.8100000000000D+00  0.0000000000000D+00  0.0000000000000D+00
283  2.8200000000000D+00  0.0000000000000D+00  0.0000000000000D+00
284  2.8300000000000D+00  0.0000000000000D+00  0.0000000000000D+00
285  2.8400000000000D+00  0.0000000000000D+00  0.0000000000000D+00
286  2.8500000000000D+00  0.0000000000000D+00  0.0000000000000D+00
287  2.8600000000000D+00  0.0000000000000D+00  0.0000000000000D+00
288  2.8700000000000D+00  0.0000000000000D+00  0.0000000000000D+00
289  2.8800000000000D+00  0.0000000000000D+00  0.0000000000000D+00
290  2.8900000000000D+00  0.0000000000000D+00  0.0000000000000D+00
291  2.9000000000000D+00  0.0000000000000D+00  0.0000000000000D+00
292  2.9100000000000D+00  0.0000000000000D+00  0.0000000000000D+00
293  2.9200000000000D+00  0.0000000000000D+00  0.0000000000000D+00
294  2.9300000000000D+00  0.0000000000000D+00  0.0000000000000D+00
295  2.9400000000000D+00  0.0000000000000D+00  0.0000000000000D+00
296  2.9500000000000D+00  0.0000000000000D+00  0.0000000000000D+00
297  2.9600000000000D+00  0.0000000000000D+00  0.0000000000000D+00
298  2.9700000000000D+00  0.0000000000000D+00  0.0000000000000D+00
299  2.9800000000000D+00  0.0000000000000D+00  0.0000000000000D+00
300  2.9900000000000D+00  0.0000000000000D+00  0.0000000000000D+00
301  3.0000000000000D+00  0.0000000000000D+00  0.0000000000000D+00
302  3.0100000000000D+00  0.0000000000000D+00  0.0000000000000D+00
303  3.0200000000000D+00  0.0000000000000D+00  0.0000000000000D+00
304  3.0300000000000D+00  0.0000000000000D+00  0.0000000000000D+00
305  3.0400000000000D+00  0.0000000000000D+00  0.0000000000000D+00
306  3.0500000000000D+00  0.0000000000000D+00  0.0000000000000D+00
307  3.0600000000000D+00  0.0000000000000D+00  0.0000000000000D+00
308  3.0700000000000D+00  0.0000000000000D+00  0.0000000000000D+00
309  3.0800000000000D+00  0.0000000000000D+00  0.0000000000000D+00
310  3.0900000000000D+00  0.0000000000000D+00  0.0000000000000D+00
311  3.1000000000000D+00  0.0000000000000D+00  0.0000000000000D+00
312  3.1100000000000D+00  0.0000000000000D+00  0.0000000000000D+00
313  3.1200000000000D+00  0.0000000000000D+00  0.0000000000000D+00
314  3.1300000000000D+00  0.0000000000000D+00  0.0000000000000D+00
315  3.1400000000000D+00  0.0000000000000D+00  0.0000000000000D+00
316  3.1500000000000D+00  0.0000000000000D+00  0.0000000000000D+00
317  3.1600000000000D+00  0.0000000000000D+00  0.0000000000000D+00
318  3.1700000000000D+00  0.0000000000000D+00  0.0000000000000D+00
319  3.1800000000000D+00  0.0000000000000D+00  0.0000000000000D+00
320  3.1900000000000D+00  0.0000000000000D+00  0.0000000000000D+00
321  3.2000000000000D+00  0.0000000000000D+00  0.0000000000000D+00
322  3.2100000000000D+00  0.0000000000000D+00  0.0000000000000D+00
323  3.2200000000000D+00  0.0000000000000D+00  0.0000000000000D+00
324  3.2300000000000D+00  0.0000000000000D+00  0.0000000000000D+00
325  3.2400000000000D+00  0.0000000000000D+00  0.0000000000000D+00
326  3.2500000000000D+00  0.0000000000000D+00  0.0000000000000D+00
327  3.2600000000000D+00  0.0000000000000D+00  0.0000000000000D+00
328  3.2700000000000D+00  0.0000000000000D+00  0.0000000000000D+00
329  3.2800000000000D+00  0.0000000000000D+00  0.0000000000000D+00
330  3.2900000000000D+00  0.0000000000000D+00  0.0000000000000D+00
331  3.3000000000000D+00  0.0000000000000D+00  0.0000000000000D+00
332  3.3100000000000D+00  0.0000000000000D+00  0.0000000000000D+00
333  3.3200000000000D+00  0.0000000000000D+00  0.0000000000000D+00
334  3.3300000000000D+00  0.0000000000000D+00  0.0000000000000D+00
335  3.3400000000000D+00  0.0000000000000D+00  0.0000000000000D+00
336  3.3500000000000D+00  0.0000000000000D+00  0.0000000000000D+00
337  3.3600000000000D+00  0.0000000000000D+00  0.0000000000000D+00
338  3.3700000000000D+00  0.0000000000000D+00  0.0000000000000D+00
339  3.3800000000000D+00  0.0000000000000D+00  0.0000000000000D+00
340  3.3900000000000D+00  0.0000000000000D+00  0.0000000000000D+00
341  3.4000000000000D+00  0.0000000000000D+00  0.0000000000000D+00
342  3.4100000000000D+00  0.0000000000000D+00  0.0000000000000D+00
343  3.4200000000000D+00  0.0000000000000D+00  0.0000000000000D+00
344  3.4300000000000D+00  0.0000000000000D+00  0.0000000000000D+00
345  3.4400000000000D+00  0.0000000000000D+00  0.0000000000000D+00
346  3.4500000000000D+00  0.0000000000000D+00  0.0000000000000D+00
347  3.4600000000000D+00  0.0000000000000D+00  0.0000000000000D+00
348  3.4700000000000D+00  0.0000000000000D+00  0.0000000000000D+00
349  3.4800000000000D+00  0.0000000000000D+00  0.0000000000000D+00
350  3.4900000000000D+00  0.0000000000000D+00  0.0000000000000D+00
351  3.5000000000000D+00  0.0000000000000D+00  0.0000000000000D+00
352  3.5100000000000D+00  0.0000000000000D+00  0.0000000000000D+00
353  3.5200000000000D+00  0.0000000000000D+00  0.0000000000000D+00
354  3.5300000000000D+00  0.0000000000000D+00  0.0000000000000D+00
355  3.5400000000000D+00  0.0000000000000D+00  0.0000000000000D+00
356  3.5500000000000D+00  0.0000000000000D+00  0.0000000000000D+00
357  3.5600000000000D+00  0.0000000000000D+00  0.0000000000000D+00
358  3.5700000000000D+00  0.0000000000000D+00  0.0000000000000D+00
359  3.5800000000000D+00  0.0000000000000D+00  0.0000000000000D+00
360  3.5900000000000D+00  0.0000000000000D+00  0.0000000000000D+00
361  3.6000000000000D+00  0.0000000000000D+00  0.0000000000000D+00
362  3.6100000000000D+00  0.0000000000000D+00  0.0000000000000D+00
363  3.6200000000000D+00  0.0000000000000D+00  0.0000000000000D+00
364  3.6300000000000D+00  0.0000000000000D+00  0.0000000000000D+00
365  3.6400000000000D+00  0.0000000000000D+00  0.0000000000000D+00
366  3.6500000000000D+00  0.0000000000000D+00  0.0000000000000D+00
367  3.6600000000000D+00  0.0000000000000D+00  0.0000000000000D+00
368  3.6700000000000D+00  0.0000000000000D+00  0.0000000000000D+00
369  3.6800000000000D+00  0.0000000000000D+00  0.0000000000000D+00
370  3.6900000000000D+00  0.0000000000000D+00  0.0000000000000D+00
371  3.7000000000000D+00  0.0000000000000D+00  0.0000000000000D+00
372  3.7100000000000D+00  0.0000000000000D+00  0.0000000000000D+00
373  3.7200000000000D+00  0.0000000000000D+00  0.0000000000000D+00
374  3.7300000000000D+00  0.0000000000000D+00  0.0000000000000D+00
375  3.7400000000000D+00  0.0000000000000D+00  0.0000000000000D+00
376  3.7500000000000D+00  0.0000000000000D+00  0.0000000000000D+00
377  3.7600000000000D+00  0.0000000000000D+00  0.0000000000000D+00
378  3.7700000000000D+00  0.0000000000000D+00  0.0000000000000D+00
379  3.7800000000000D+00  0.0000000000000D+00  0.0000000000000D+00
380  3.7900000000000D+00  0.0000000000000D+00  0.0000000000000D+00
381  3.8000000000000D+00  0.0000000000000D+00  0.0000000000000D+00
382  3.8100000000000D+00  0.0000000000000D+00  0.0000000000000D+00
383  3.8200000000000D+00  0.0000000000000D+00  0.0000000000000D+00
384  3.8300000000000D+00  0.0000000000000D+00  0.0000000000000D+00
385  3.8400000000000D+00  0.0000000000000D+00  0.0000000000000D+00
386  3.8500000000000D+00  0.0000000000000D+00  0.0000000000000D+00
387  3.8600000000000D+00  0.0000000000000D+00  0.0000000000000D+00
388  3.8700000000000D+00  0.0000000000000D+00  0.0000000000000D+00
389  3.8800000000000D+00  0.0000000000000D+00  0.0000000000000D+00
390  3.8900000000000D+00  0.0000000000000D+00  0.0000000000000D+00
391  3.9000000000000D+00  0.0000000000000D+00  0.0000000000000D+00
392  3.9100000000000D+00  0.0000000000000D+00  0.0000000000000D+00
393  3.9200000000000D+00  0.0000000000000D+00  0.0000000000000D+00
394  3.9300000000000D+00  0.0000000000000D+00  0.0000000000000D+00
395  3.9400000000000D+00  0.0000000000000D+00  0.0000000000000D+00
396  3.9500000000000D+00  0.0000000000000D+00  0.0000000000000D+00
397  3.9600000000000D+00  0.0000000000000D+00  0.0000000000000D+00
398  3.9700000000000D+00  0.0000000000000D+00  0.0000000000000D+00
399  3.9800000000000D+00  0.0000000000000D+00  0.0000000000000D+00
400  3.9900000000000D+00  0.0000000000000D+00  0.0000000000000D+00
401  4.0000000000000D+00  0.0000000000000D+00  0.0000000000000D+00
402  4.0100000000000D+00  0.0000000000000D+00  0.0000000000000D+00
403  4.0200000000000D+00  0.0000000000000D+00  0.0000000000000D+00
404  4.0300000000000D+00  0.0000000000000D+00  0.0000000000000D+00
405  4.0400000000000D+00  0.0000000000000D+00  0.0000000000000D+00
406  4.0500000000000D+00  0.0000000000000D+00  0.0000000000000D+00
407  4.0600000000000D+00  0.0000000000000D+00  0.0000000000000D+00
408  4.0700000000000D+00  0.0000000000000D+00  0.0000000000000D+00
409  4.0800000000000D+00  0.0000000000000D+00  0.0000000000000D+00
410  4.0900000000000D+00  0.0000000000000D+00  0.0000000000000D+00
411  4.1000000000000D+00  0.0000000000000D+00  0.0000000000000D+00
412  4.1100000000000D+00  0.0000000000000D+00  0.0000000000000D+00
413  4.1200000000000D+00  0.0000000000000D+00  0.0000000000000D+00
414  4.1300000000000D+00  0.0000000000000D+00  0.0000000000000D+00
415  4.1400000000000D+00  0.0000000000000D+00  0.0000000000000D+00
416  4.1500000000000D+00  0.0000000000000D+00  0.0000000000000D+00
417  4.1600000000000D+00  0.0000000000000D+00  0.0000000000000D+00
418  4.1700000000000D+00  0.0000000000000D+00  0.0000000000000D+00
419  4.1800000000000D+00  0.0000000000000D+00  0.0000000000000D+00
420  4.1900000000000D+00  0.0000000000000D+00  0.0000000000000D+00
421  4.2000000000000D+00  0.0000000000000D+00  0.0000000000000D+00
422  4.2100000000000D+00  0.0000000000000D+00  0.0000000000000D+00
423  4.2200000000000D+00  0.0000000000000D+00  0.0000000000000D+00
424  4.2300000000000D+00  0.0000000000000D+00  0.0000000000000D+00
425  4.2400000000000D+00  0.0000000000000D+00  0.0000000000000D+00
426  4.2500000000000D+00  0.0000000000000D+00  0.0000000000000D+00
427  4.2600000000000D+00  0.0000000000000D+00  0.0000000000000D+00
428  4.2700000000000D+00  0.0000000000000D+00  0.0000000000000D+00
429  4.2800000000000D+00  0.0000000000000D+00  0.0000000000000D+00
430  4.2900000000000D+00  0.0000000000000D+00  0.0000000000000D+00
431  4.3000000000000D+00  0.0000000000000D+00  0.0000000000000D+00
432  4.3100000000000D+00  0.0000000000000D+00  0.0000000000000D+00
433  4.3200000000000D+00  0.0000000000000D+00  0.0000000000000D+00
434  4.3300000000000D+00  0.0000000000000D+00  0.0000000000000D+00
435  4.3400000000000D+00  0.0000000000000D+00  0.0000000000000D+00
436  4.3500000000000D+00  0.0000000000000D+00  0.0000000000000D+00
437  4.3600000000000D+00  0.0000000000000D+00  0.0000000000000D+00
438  4.3700000000000D+00  0.0000000000000D+00  0.0000000000000D+00
439  4.3800000000000D+00  0.0000000000000D+00  0.0000000000000D+00
440  4.3900000000000D+00  0.0000000000000D+00  0.0000000000000D+00
441  4.4000000000000D+00  0.0000000000000D+00  0.0000000000000D+00
442  4.4100000000000D+00  0.0000000000000D+00  0.0000000000000D+00
443  4.4200000000000D+00  0.0000000000000D+00  0.0000000000000D+00