Cr    ONCVPSP  r_core=  1.31  1.31  1.72
24.0000     14.0000      151028    zatom,zion,pspd
8      11   2     4   600     0    pspcod,pspxc,lmax,lloc,mmax,r2well
5.99000000  5.00000000  0.00000000    rchrg fchrg qchrg
2     2     2     0     0    nproj
1                 extension_switch
0                         6.4264843842638D+00 -1.0333706435361D+00
1  0.0000000000000D+00  2.1260019300584D-09  2.8161989407138D-08
2  1.0000000000000D-02  7.5208345054326D-02 -9.8674418715041D-02
3  2.0000000000000D-02  1.5031186162408D-01 -1.9599241303905D-01
4  3.0000000000000D-02  2.2520462520532D-01 -2.9062043132805D-01
5  4.0000000000000D-02  2.9977854849789D-01 -3.8127025665225D-01
6  5.0000000000000D-02  3.7392237255779D-01 -4.6672065456430D-01
7  6.0000000000000D-02  4.4752074346331D-01 -5.4583781784291D-01
8  7.0000000000000D-02  5.2045340045108D-01 -6.1759424095305D-01
9  8.0000000000000D-02  5.9259449935216D-01 -6.8108568512614D-01
10  9.0000000000000D-02  6.6381209257265D-01 -7.3554592922419D-01
11  1.0000000000000D-01  7.3396778386403D-01 -7.8035904130569D-01
12  1.1000000000000D-01  8.0291657276901D-01 -8.1506895035871D-01
13  1.2000000000000D-01  8.7050689996920D-01 -8.3938614621829D-01
14  1.3000000000000D-01  9.3658090086650D-01 -8.5319138738527D-01
15  1.4000000000000D-01  1.0009748706713D+00 -8.5653635039422D-01
16  1.5000000000000D-01  1.0635199401191D+00 -8.4964120958411D-01
17  1.6000000000000D-01  1.1240429567689D+00 -8.3288919162580D-01
18  1.7000000000000D-01  1.1823675627261D+00 -8.0681820396705D-01
19  1.8000000000000D-01  1.2383154556566D+00 -7.7210968949050D-01
20  1.9000000000000D-01  1.2917078161819D+00 -7.2957491019252D-01
21  2.0000000000000D-01  1.3423668812528D+00 -6.8013890967283D-01
22  2.1000000000000D-01  1.3901176399335D+00 -6.2482244683001D-01
23  2.2000000000000D-01  1.4347896252699D+00 -5.6472223061258D-01
24  2.3000000000000D-01  1.4762187736019D+00 -5.0098981729616D-01
25  2.4000000000000D-01  1.5142493208615D+00 -4.3480955696027D-01
26  2.5000000000000D-01  1.5487357041106D+00 -3.6737599415179D-01
27  2.6000000000000D-01  1.5795444358406D+00 -2.9987113879427D-01
28  2.7000000000000D-01  1.6065559183982D+00 -2.3344202700806D-01
29  2.8000000000000D-01  1.6296661663256D+00 -1.6917898755145D-01
30  2.9000000000000D-01  1.6487884054022D+00 -1.0809501811658D-01
31  3.0000000000000D-01  1.6638545187415D+00 -5.1106656891657D-02
32  3.1000000000000D-01  1.6748163124015D+00  9.8329106889851D-04
33  3.2000000000000D-01  1.6816465755799D+00  4.7500845605504D-02
34  3.3000000000000D-01  1.6843399135451D+00  8.7913472832658D-02
35  3.4000000000000D-01  1.6829133349457D+00  1.2183999157536D-01
36  3.5000000000000D-01  1.6774065789947D+00  1.4905756889999D-01
37  3.6000000000000D-01  1.6678821721615D+00  1.6950566117643D-01
38  3.7000000000000D-01  1.6544252083725D+00  1.8328681239038D-01
39  3.8000000000000D-01  1.6371428512283D+00  1.9066427861788D-01
40  3.9000000000000D-01  1.6161635613224D+00  1.9205650565974D-01
41  4.0000000000000D-01  1.5916360563173D+00  1.8802854478484D-01
42  4.1000000000000D-01  1.5637280159047D+00  1.7928054830039D-01
43  4.2000000000000D-01  1.5326245480876D+00  1.6663354123437D-01
44  4.3000000000000D-01  1.4985264372808D+00  1.5101271678864D-01
45  4.4000000000000D-01  1.4616481984651D+00  1.3342855045661D-01
46  4.5000000000000D-01  1.4222159649917D+00  1.1495606992544D-01
47  4.6000000000000D-01  1.3804652405351D+00  9.6712654306491D-02
48  4.7000000000000D-01  1.3366385481029D+00  7.9834766167678D-02
49  4.8000000000000D-01  1.2909830108718D+00  6.5454042693977D-02
50  4.9000000000000D-01  1.2437479008935D+00  5.4673187619045D-02
51  5.0000000000000D-01  1.1951821923863D+00  4.8542113018789D-02
52  5.1000000000000D-01  1.1455321563730D+00  4.8034779448424D-02
53  5.2000000000000D-01  1.0950390328386D+00  5.4027174191929D-02
54  5.3000000000000D-01  1.0439368153806D+00  6.7276850651533D-02
55  5.4000000000000D-01  9.9245018150580D-01  8.8404427406528D-02
56  5.5000000000000D-01  9.4079259934575D-01  1.1787741357528D-01
57  5.6000000000000D-01  8.8916463862757D-01  1.5599668827394D-01
58  5.7000000000000D-01  8.3775251032679D-01  2.0288591704025D-01
59  5.8000000000000D-01  7.8672685556356D-01  2.5848413739032D-01
60  5.9000000000000D-01  7.3624180009963D-01  3.2254169075958D-01
61  6.0000000000000D-01  6.8643428625271D-01  3.9461961895382D-01
62  6.1000000000000D-01  6.3742368933215D-01  4.7409258206398D-01
63  6.2000000000000D-01  5.8931172080121D-01  5.6015529141705D-01
64  6.3000000000000D-01  5.4218261546093D-01  6.5183238781465D-01
65  6.4000000000000D-01  4.9610359505310D-01  7.4799163237408D-01
66  6.5000000000000D-01  4.5112559589802D-01  8.4736021609509D-01
67  6.6000000000000D-01  4.0728424363263D-01  9.4854393631122D-01
68  6.7000000000000D-01  3.6460105382081D-01  1.0500489338025D+00
69  6.8000000000000D-01  3.2308483329472D-01  1.1503056351479D+00
70  6.9000000000000D-01  2.8273325360683D-01  1.2476945015656D+00
71  7.0000000000000D-01  2.4353456499387D-01  1.3405731488854D+00
72  7.1000000000000D-01  2.0546941681628D-01  1.4273043739683D+00
73  7.2000000000000D-01  1.6851274861888D-01  1.5062846017917D+00
74  7.3000000000000D-01  1.3263571476368D-01  1.5759722546316D+00
75  7.4000000000000D-01  9.7807605055529D-02  1.6349155407894D+00
76  7.5000000000000D-01  6.3997723921198D-02  1.6817791651934D+00
77  7.6000000000000D-01  3.1177191521470D-02  1.7153694780511D+00
78  7.7000000000000D-01 -6.7936834738447D-04  1.7346576002191D+00
79  7.8000000000000D-01 -3.1592286587218D-02  1.7388000948815D+00
80  7.9000000000000D-01 -6.1575483667775D-02  1.7271567939529D+00
81  8.0000000000000D-01 -9.0635308050366D-02  1.6993054337388D+00
82  8.1000000000000D-01 -1.1876960139651D-01  1.6550528070327D+00
83  8.2000000000000D-01 -1.4596700956738D-01  1.5944421971238D+00
84  8.3000000000000D-01 -1.7220655383020D-01  1.5177569221370D+00
85  8.4000000000000D-01 -1.9745747181244D-01  1.4255198846760D+00
86  8.5000000000000D-01 -2.2167933267421D-01  1.3184890906647D+00
87  8.6000000000000D-01 -2.4482242578884D-01  1.1976491714665D+00
88  8.7000000000000D-01 -2.6682841701969D-01  1.0641990136021D+00
89  8.8000000000000D-01 -2.8763126157602D-01  9.1953566913249D-01
90  8.9000000000000D-01 -3.0715835747288D-01  7.6523478633645D-01
91  9.0000000000000D-01 -3.2533191894090D-01  6.0302786295738D-01
92  9.1000000000000D-01 -3.4207054479249D-01  4.3477668221250D-01
93  9.2000000000000D-01 -3.5729095284125D-01  2.6244534376117D-01
94  9.3000000000000D-01 -3.7090984806209D-01  8.8070346984647D-02
95  9.4000000000000D-01 -3.8284588933635D-01 -8.6270778623371D-02
96  9.5000000000000D-01 -3.9302171740320D-01 -2.5849177212829D-01
97  9.6000000000000D-01 -4.0136600508038D-01 -4.2653032503031D-01
98  9.7000000000000D-01 -4.0781548995581D-01 -5.8838059586840D-01
99  9.8000000000000D-01 -4.1231694960311D-01 -7.4212500006049D-01
100  9.9000000000000D-01 -4.1482907997238D-01 -8.8596472853608D-01
101  1.0000000000000D+00 -4.1532423889249D-01 -1.0182484669702D+00
102  1.0100000000000D+00 -4.1379001859111D-01 -1.1374988148781D+00
103  1.0200000000000D+00 -4.1023061387299D-01 -1.2424359415485D+00
104  1.0300000000000D+00 -4.0466795583665D-01 -1.3319980602217D+00
105  1.0400000000000D+00 -3.9714258487644D-01 -1.4053583547656D+00
106  1.0500000000000D+00 -3.8771424117145D-01 -1.4619380537924D+00
107  1.0600000000000D+00 -3.7646215554473D-01 -1.5014154108235D+00
108  1.0700000000000D+00 -3.6348502867564D-01 -1.5237304183544D+00
109  1.0800000000000D+00 -3.4890069231194D-01 -1.5290851604569D+00
110  1.0900000000000D+00 -3.3284545139423D-01 -1.5179397798853D+00
111  1.1000000000000D+00 -3.1547311201036D-01 -1.4910041169279D+00
112  1.1100000000000D+00 -2.9695370508888D-01 -1.4492251447664D+00
113  1.1200000000000D+00 -2.7747192176962D-01 -1.3937704076209D+00
114  1.1300000000000D+00 -2.5722528143833D-01 -1.3260077361963D+00
115  1.1400000000000D+00 -2.3642205837404D-01 -1.2474815820061D+00
116  1.1500000000000D+00 -2.1527899710611D-01 -1.1598863682316D+00
117  1.1600000000000D+00 -1.9401885088967D-01 -1.0650373130568D+00
118  1.1700000000000D+00 -1.7286778125401D-01 -9.6483922941238D-01
119  1.1800000000000D+00 -1.5205265908776D-01 -8.6125383911318D-01
120  1.1900000000000D+00 -1.3179830962114D-01 -7.5626616510238D-01
121  1.2000000000000D+00 -1.1232474574482D-01 -6.5185059388147D-01
122  1.2100000000000D+00 -9.3844434129029D-02 -5.4993720085679D-01
123  1.2200000000000D+00 -7.6559638334604D-02 -4.5237892804729D-01
124  1.2300000000000D+00 -6.0659883136583D-02 -3.6092020427497D-01
125  1.2400000000000D+00 -4.6319581682029D-02 -2.7716756363056D-01
126  1.2500000000000D+00 -3.3695864066350D-02 -2.0256277761620D-01
127  1.2600000000000D+00 -2.2926645812890D-02 -1.3835901518114D-01
128  1.2700000000000D+00 -1.4134291842466D-02 -8.5633149769755D-02
129  1.2800000000000D+00 -7.3698557909722D-03 -4.4930770365836D-02
130  1.2900000000000D+00 -2.7998943121129D-03 -1.7428440000937D-02
131  1.3000000000000D+00 -5.2682424987680D-04 -3.8227636544345D-03
132  1.3100000000000D+00  1.1285317976787D-04  2.1151831871249D-04
133  1.3200000000000D+00  2.7273659316506D-05  1.1162072297726D-04
134  1.3300000000000D+00 -3.8995920469949D-05 -1.7285171338932D-04
135  1.3400000000000D+00  3.9042971473546D-06  1.5260322939430D-05
136  1.3500000000000D+00  4.3354608316852D-06  1.7688418496881D-05
137  1.3600000000000D+00  3.0204207477801D-08  1.8582557239246D-06
138  1.3700000000000D+00  0.0000000000000D+00  0.0000000000000D+00
139  1.3800000000000D+00  0.0000000000000D+00  0.0000000000000D+00
140  1.3900000000000D+00  0.0000000000000D+00  0.0000000000000D+00
141  1.4000000000000D+00  0.0000000000000D+00  0.0000000000000D+00
142  1.4100000000000D+00  0.0000000000000D+00  0.0000000000000D+00
143  1.4200000000000D+00  0.0000000000000D+00  0.0000000000000D+00
144  1.4300000000000D+00  0.0000000000000D+00  0.0000000000000D+00
145  1.4400000000000D+00  0.0000000000000D+00  0.0000000000000D+00
146  1.4500000000000D+00  0.0000000000000D+00  0.0000000000000D+00
147  1.4600000000000D+00  0.0000000000000D+00  0.0000000000000D+00
148  1.4700000000000D+00  0.0000000000000D+00  0.0000000000000D+00
149  1.4800000000000D+00  0.0000000000000D+00  0.0000000000000D+00
150  1.4900000000000D+00  0.0000000000000D+00  0.0000000000000D+00
151  1.5000000000000D+00  0.0000000000000D+00  0.0000000000000D+00
152  1.5100000000000D+00  0.0000000000000D+00  0.0000000000000D+00
153  1.5200000000000D+00  0.0000000000000D+00  0.0000000000000D+00
154  1.5300000000000D+00  0.0000000000000D+00  0.0000000000000D+00
155  1.5400000000000D+00  0.0000000000000D+00  0.0000000000000D+00
156  1.5500000000000D+00  0.0000000000000D+00  0.0000000000000D+00
157  1.5600000000000D+00  0.0000000000000D+00  0.0000000000000D+00
158  1.5700000000000D+00  0.0000000000000D+00  0.0000000000000D+00
159  1.5800000000000D+00  0.0000000000000D+00  0.0000000000000D+00
160  1.5900000000000D+00  0.0000000000000D+00  0.0000000000000D+00
161  1.6000000000000D+00  0.0000000000000D+00  0.0000000000000D+00
162  1.6100000000000D+00  0.0000000000000D+00  0.0000000000000D+00
163  1.6200000000000D+00  0.0000000000000D+00  0.0000000000000D+00
164  1.6300000000000D+00  0.0000000000000D+00  0.0000000000000D+00
165  1.6400000000000D+00  0.0000000000000D+00  0.0000000000000D+00
166  1.6500000000000D+00  0.0000000000000D+00  0.0000000000000D+00
167  1.6600000000000D+00  0.0000000000000D+00  0.0000000000000D+00
168  1.6700000000000D+00  0.0000000000000D+00  0.0000000000000D+00
169  1.6800000000000D+00  0.0000000000000D+00  0.0000000000000D+00
170  1.6900000000000D+00  0.0000000000000D+00  0.0000000000000D+00
171  1.7000000000000D+00  0.0000000000000D+00  0.0000000000000D+00
172  1.7100000000000D+00  0.0000000000000D+00  0.0000000000000D+00
173  1.7200000000000D+00  0.0000000000000D+00  0.0000000000000D+00
174  1.7300000000000D+00  0.0000000000000D+00  0.0000000000000D+00
175  1.7400000000000D+00  0.0000000000000D+00  0.0000000000000D+00
176  1.7500000000000D+00  0.0000000000000D+00  0.0000000000000D+00
177  1.7600000000000D+00  0.0000000000000D+00  0.0000000000000D+00
178  1.7700000000000D+00  0.0000000000000D+00  0.0000000000000D+00
179  1.7800000000000D+00  0.0000000000000D+00  0.0000000000000D+00
180  1.7900000000000D+00  0.0000000000000D+00  0.0000000000000D+00
181  1.8000000000000D+00  0.0000000000000D+00  0.0000000000000D+00
182  1.8100000000000D+00  0.0000000000000D+00  0.0000000000000D+00
183  1.8200000000000D+00  0.0000000000000D+00  0.0000000000000D+00
184  1.8300000000000D+00  0.0000000000000D+00  0.0000000000000D+00
185  1.8400000000000D+00  0.0000000000000D+00  0.0000000000000D+00
186  1.8500000000000D+00  0.0000000000000D+00  0.0000000000000D+00
187  1.8600000000000D+00  0.0000000000000D+00  0.0000000000000D+00
188  1.8700000000000D+00  0.0000000000000D+00  0.0000000000000D+00
189  1.8800000000000D+00  0.0000000000000D+00  0.0000000000000D+00
190  1.8900000000000D+00  0.0000000000000D+00  0.0000000000000D+00
191  1.9000000000000D+00  0.0000000000000D+00  0.0000000000000D+00
192  1.9100000000000D+00  0.0000000000000D+00  0.0000000000000D+00
193  1.9200000000000D+00  0.0000000000000D+00  0.0000000000000D+00
194  1.9300000000000D+00  0.0000000000000D+00  0.0000000000000D+00
195  1.9400000000000D+00  0.0000000000000D+00  0.0000000000000D+00
196  1.9500000000000D+00  0.0000000000000D+00  0.0000000000000D+00
197  1.9600000000000D+00  0.0000000000000D+00  0.0000000000000D+00
198  1.9700000000000D+00  0.0000000000000D+00  0.0000000000000D+00
199  1.9800000000000D+00  0.0000000000000D+00  0.0000000000000D+00
200  1.9900000000000D+00  0.0000000000000D+00  0.0000000000000D+00
201  2.0000000000000D+00  0.0000000000000D+00  0.0000000000000D+00
202  2.0100000000000D+00  0.0000000000000D+00  0.0000000000000D+00
203  2.0200000000000D+00  0.0000000000000D+00  0.0000000000000D+00
204  2.0300000000000D+00  0.0000000000000D+00  0.0000000000000D+00
205  2.0400000000000D+00  0.0000000000000D+00  0.0000000000000D+00
206  2.0500000000000D+00  0.0000000000000D+00  0.0000000000000D+00
207  2.0600000000000D+00  0.0000000000000D+00  0.0000000000000D+00
208  2.0700000000000D+00  0.0000000000000D+00  0.0000000000000D+00
209  2.0800000000000D+00  0.0000000000000D+00  0.0000000000000D+00
210  2.0900000000000D+00  0.0000000000000D+00  0.0000000000000D+00
211  2.1000000000000D+00  0.0000000000000D+00  0.0000000000000D+00
212  2.1100000000000D+00  0.0000000000000D+00  0.0000000000000D+00
213  2.1200000000000D+00  0.0000000000000D+00  0.0000000000000D+00
214  2.1300000000000D+00  0.0000000000000D+00  0.0000000000000D+00
215  2.1400000000000D+00  0.0000000000000D+00  0.0000000000000D+00
216  2.1500000000000D+00  0.0000000000000D+00  0.0000000000000D+00
217  2.1600000000000D+00  0.0000000000000D+00  0.0000000000000D+00
218  2.1700000000000D+00  0.0000000000000D+00  0.0000000000000D+00
219  2.1800000000000D+00  0.0000000000000D+00  0.0000000000000D+00
220  2.1900000000000D+00  0.0000000000000D+00  0.0000000000000D+00
221  2.2000000000000D+00  0.0000000000000D+00  0.0000000000000D+00
222  2.2100000000000D+00  0.0000000000000D+00  0.0000000000000D+00
223  2.2200000000000D+00  0.0000000000000D+00  0.0000000000000D+00
224  2.2300000000000D+00  0.0000000000000D+00  0.0000000000000D+00
225  2.2400000000000D+00  0.0000000000000D+00  0.0000000000000D+00
226  2.2500000000000D+00  0.0000000000000D+00  0.0000000000000D+00
227  2.2600000000000D+00  0.0000000000000D+00  0.0000000000000D+00
228  2.2700000000000D+00  0.0000000000000D+00  0.0000000000000D+00
229  2.2800000000000D+00  0.0000000000000D+00  0.0000000000000D+00
230  2.2900000000000D+00  0.0000000000000D+00  0.0000000000000D+00
231  2.3000000000000D+00  0.0000000000000D+00  0.0000000000000D+00
232  2.3100000000000D+00  0.0000000000000D+00  0.0000000000000D+00
233  2.3200000000000D+00  0.0000000000000D+00  0.0000000000000D+00
234  2.3300000000000D+00  0.0000000000000D+00  0.0000000000000D+00
235  2.3400000000000D+00  0.0000000000000D+00  0.0000000000000D+00
236  2.3500000000000D+00  0.0000000000000D+00  0.0000000000000D+00
237  2.3600000000000D+00  0.0000000000000D+00  0.0000000000000D+00
238  2.3700000000000D+00  0.0000000000000D+00  0.0000000000000D+00
239  2.3800000000000D+00  0.0000000000000D+00  0.0000000000000D+00
240  2.3900000000000D+00  0.0000000000000D+00  0.0000000000000D+00
241  2.4000000000000D+00  0.0000000000000D+00  0.0000000000000D+00
242  2.4100000000000D+00  0.0000000000000D+00  0.0000000000000D+00
243  2.4200000000000D+00  0.0000000000000D+00  0.0000000000000D+00
244  2.4300000000000D+00  0.0000000000000D+00  0.0000000000000D+00
245  2.4400000000000D+00  0.0000000000000D+00  0.0000000000000D+00
246  2.4500000000000D+00  0.0000000000000D+00  0.0000000000000D+00
247  2.4600000000000D+00  0.0000000000000D+00  0.0000000000000D+00
248  2.4700000000000D+00  0.0000000000000D+00  0.0000000000000D+00
249  2.4800000000000D+00  0.0000000000000D+00  0.0000000000000D+00
250  2.4900000000000D+00  0.0000000000000D+00  0.0000000000000D+00
251  2.5000000000000D+00  0.0000000000000D+00  0.0000000000000D+00
252  2.5100000000000D+00  0.0000000000000D+00  0.0000000000000D+00
253  2.5200000000000D+00  0.0000000000000D+00  0.0000000000000D+00
254  2.5300000000000D+00  0.0000000000000D+00  0.0000000000000D+00
255  2.5400000000000D+00  0.0000000000000D+00  0.0000000000000D+00
256  2.5500000000000D+00  0.0000000000000D+00  0.0000000000000D+00
257  2.5600000000000D+00  0.0000000000000D+00  0.0000000000000D+00
258  2.5700000000000D+00  0.0000000000000D+00  0.0000000000000D+00
259  2.5800000000000D+00  0.0000000000000D+00  0.0000000000000D+00
260  2.5900000000000D+00  0.0000000000000D+00  0.0000000000000D+00
261  2.6000000000000D+00  0.0000000000000D+00  0.0000000000000D+00
262  2.6100000000000D+00  0.0000000000000D+00  0.0000000000000D+00
263  2.6200000000000D+00  0.0000000000000D+00  0.0000000000000D+00
264  2.6300000000000D+00  0.0000000000000D+00  0.0000000000000D+00
265  2.6400000000000D+00  0.0000000000000D+00  0.0000000000000D+00
266  2.6500000000000D+00  0.0000000000000D+00  0.0000000000000D+00
267  2.6600000000000D+00  0.0000000000000D+00  0.0000000000000D+00
268  2.6700000000000D+00  0.0000000000000D+00  0.0000000000000D+00
269  2.6800000000000D+00  0.0000000000000D+00  0.0000000000000D+00
270  2.6900000000000D+00  0.0000000000000D+00  0.0000000000000D+00
271  2.7000000000000D+00  0.0000000000000D+00  0.0000000000000D+00
272  2.7100000000000D+00  0.0000000000000D+00  0.0000000000000D+00
273  2.7200000000000D+00  0.0000000000000D+00  0.0000000000000D+00
274  2.7300000000000D+00  0.0000000000000D+00  0.0000000000000D+00
275  2.7400000000000D+00  0.0000000000000D+00  0.0000000000000D+00
276  2.7500000000000D+00  0.0000000000000D+00  0.0000000000000D+00
277  2.7600000000000D+00  0.0000000000000D+00  0.0000000000000D+00
278  2.7700000000000D+00  0.0000000000000D+00  0.0000000000000D+00
279  2.7800000000000D+00  0.0000000000000D+00  0.0000000000000D+00
280  2.7900000000000D+00  0.0000000000000D+00  0.0000000000000D+00
281  2.8000000000000D+00  0.0000000000000D+00  0.0000000000000D+00
282  2.8100000000000D+00  0.0000000000000D+00  0.0000000000000D+00
283  2.8200000000000D+00  0.0000000000000D+00  0.0000000000000D+00
284  2.8300000000000D+00  0.0000000000000D+00  0.0000000000000D+00
285  2.8400000000000D+00  0.0000000000000D+00  0.0000000000000D+00
286  2.8500000000000D+00  0.0000000000000D+00  0.0000000000000D+00
287  2.8600000000000D+00  0.0000000000000D+00  0.0000000000000D+00
288  2.8700000000000D+00  0.0000000000000D+00  0.0000000000000D+00
289  2.8800000000000D+00  0.0000000000000D+00  0.0000000000000D+00
290  2.8900000000000D+00  0.0000000000000D+00  0.0000000000000D+00
291  2.9000000000000D+00  0.0000000000000D+00  0.0000000000000D+00
292  2.9100000000000D+00  0.0000000000000D+00  0.0000000000000D+00
293  2.9200000000000D+00  0.0000000000000D+00  0.0000000000000D+00
294  2.9300000000000D+00  0.0000000000000D+00  0.0000000000000D+00
295  2.9400000000000D+00  0.0000000000000D+00  0.0000000000000D+00
296  2.9500000000000D+00  0.0000000000000D+00  0.0000000000000D+00
297  2.9600000000000D+00  0.0000000000000D+00  0.0000000000000D+00
298  2.9700000000000D+00  0.0000000000000D+00  0.0000000000000D+00
299  2.9800000000000D+00  0.0000000000000D+00  0.0000000000000D+00
300  2.9900000000000D+00  0.0000000000000D+00  0.0000000000000D+00
301  3.0000000000000D+00  0.0000000000000D+00  0.0000000000000D+00
302  3.0100000000000D+00  0.0000000000000D+00  0.0000000000000D+00
303  3.0200000000000D+00  0.0000000000000D+00  0.0000000000000D+00
304  3.0300000000000D+00  0.0000000000000D+00  0.0000000000000D+00
305  3.0400000000000D+00  0.0000000000000D+00  0.0000000000000D+00
306  3.0500000000000D+00  0.0000000000000D+00  0.0000000000000D+00
307  3.0600000000000D+00  0.0000000000000D+00  0.0000000000000D+00
308  3.0700000000000D+00  0.0000000000000D+00  0.0000000000000D+00
309  3.0800000000000D+00  0.0000000000000D+00  0.0000000000000D+00
310  3.0900000000000D+00  0.0000000000000D+00  0.0000000000000D+00
311  3.1000000000000D+00  0.0000000000000D+00  0.0000000000000D+00
312  3.1100000000000D+00  0.0000000000000D+00  0.0000000000000D+00
313  3.1200000000000D+00  0.0000000000000D+00  0.0000000000000D+00
314  3.1300000000000D+00  0.0000000000000D+00  0.0000000000000D+00
315  3.1400000000000D+00  0.0000000000000D+00  0.0000000000000D+00
316  3.1500000000000D+00  0.0000000000000D+00  0.0000000000000D+00
317  3.1600000000000D+00  0.0000000000000D+00  0.0000000000000D+00
318  3.1700000000000D+00  0.0000000000000D+00  0.0000000000000D+00
319  3.1800000000000D+00  0.0000000000000D+00  0.0000000000000D+00
320  3.1900000000000D+00  0.0000000000000D+00  0.0000000000000D+00
321  3.2000000000000D+00  0.0000000000000D+00  0.0000000000000D+00
322  3.2100000000000D+00  0.0000000000000D+00  0.0000000000000D+00
323  3.2200000000000D+00  0.0000000000000D+00  0.0000000000000D+00
324  3.2300000000000D+00  0.0000000000000D+00  0.0000000000000D+00
325  3.2400000000000D+00  0.0000000000000D+00  0.0000000000000D+00
326  3.2500000000000D+00  0.0000000000000D+00  0.0000000000000D+00
327  3.2600000000000D+00  0.0000000000000D+00  0.0000000000000D+00
328  3.2700000000000D+00  0.0000000000000D+00  0.0000000000000D+00
329  3.2800000000000D+00  0.0000000000000D+00  0.0000000000000D+00
330  3.2900000000000D+00  0.0000000000000D+00  0.0000000000000D+00
331  3.3000000000000D+00  0.0000000000000D+00  0.0000000000000D+00
332  3.3100000000000D+00  0.0000000000000D+00  0.0000000000000D+00
333  3.3200000000000D+00  0.0000000000000D+00  0.0000000000000D+00
334  3.3300000000000D+00  0.0000000000000D+00  0.0000000000000D+00
335  3.3400000000000D+00  0.0000000000000D+00  0.0000000000000D+00
336  3.3500000000000D+00  0.0000000000000D+00  0.0000000000000D+00
337  3.3600000000000D+00  0.0000000000000D+00  0.0000000000000D+00
338  3.3700000000000D+00  0.0000000000000D+00  0.0000000000000D+00
339  3.3800000000000D+00  0.0000000000000D+00  0.0000000000000D+00
340  3.3900000000000D+00  0.0000000000000D+00  0.0000000000000D+00
341  3.4000000000000D+00  0.0000000000000D+00  0.0000000000000D+00
342  3.4100000000000D+00  0.0000000000000D+00  0.0000000000000D+00
343  3.4200000000000D+00  0.0000000000000D+00  0.0000000000000D+00
344  3.4300000000000D+00  0.0000000000000D+00  0.0000000000000D+00
345  3.4400000000000D+00  0.0000000000000D+00  0.0000000000000D+00
346  3.4500000000000D+00  0.0000000000000D+00  0.0000000000000D+00
347  3.4600000000000D+00  0.0000000000000D+00  0.0000000000000D+00
348  3.4700000000000D+00  0.0000000000000D+00  0.0000000000000D+00
349  3.4800000000000D+00  0.0000000000000D+00  0.0000000000000D+00
350  3.4900000000000D+00  0.0000000000000D+00  0.0000000000000D+00
351  3.5000000000000D+00  0.0000000000000D+00  0.0000000000000D+00
352  3.5100000000000D+00  0.0000000000000D+00  0.0000000000000D+00
353  3.5200000000000D+00  0.0000000000000D+00  0.0000000000000D+00
354  3.5300000000000D+00  0.0000000000000D+00  0.0000000000000D+00
355  3.5400000000000D+00  0.0000000000000D+00  0.0000000000000D+00
356  3.5500000000000D+00  0.0000000000000D+00  0.0000000000000D+00
357  3.5600000000000D+00  0.0000000000000D+00  0.0000000000000D+00
358  3.5700000000000D+00  0.0000000000000D+00  0.0000000000000D+00
359  3.5800000000000D+00  0.0000000000000D+00  0.0000000000000D+00
360  3.5900000000000D+00  0.0000000000000D+00  0.0000000000000D+00
361  3.6000000000000D+00  0.0000000000000D+00  0.0000000000000D+00
362  3.6100000000000D+00  0.0000000000000D+00  0.0000000000000D+00
363  3.6200000000000D+00  0.0000000000000D+00  0.0000000000000D+00
364  3.6300000000000D+00  0.0000000000000D+00  0.0000000000000D+00
365  3.6400000000000D+00  0.0000000000000D+00  0.0000000000000D+00
366  3.6500000000000D+00  0.0000000000000D+00  0.0000000000000D+00
367  3.6600000000000D+00  0.0000000000000D+00  0.0000000000000D+00
368  3.6700000000000D+00  0.0000000000000D+00  0.0000000000000D+00
369  3.6800000000000D+00  0.0000000000000D+00  0.0000000000000D+00
370  3.6900000000000D+00  0.0000000000000D+00  0.0000000000000D+00
371  3.7000000000000D+00  0.0000000000000D+00  0.0000000000000D+00
372  3.7100000000000D+00  0.0000000000000D+00  0.0000000000000D+00
373  3.7200000000000D+00  0.0000000000000D+00  0.0000000000000D+00
374  3.7300000000000D+00  0.0000000000000D+00  0.0000000000000D+00
375  3.7400000000000D+00  0.0000000000000D+00  0.0000000000000D+00
376  3.7500000000000D+00  0.0000000000000D+00  0.0000000000000D+00
377  3.7600000000000D+00  0.0000000000000D+00  0.0000000000000D+00
378  3.7700000000000D+00  0.0000000000000D+00  0.0000000000000D+00
379  3.7800000000000D+00  0.0000000000000D+00  0.0000000000000D+00
380  3.7900000000000D+00  0.0000000000000D+00  0.0000000000000D+00
381  3.8000000000000D+00  0.0000000000000D+00  0.0000000000000D+00
382  3.8100000000000D+00  0.0000000000000D+00  0.0000000000000D+00
383  3.8200000000000D+00  0.0000000000000D+00  0.0000000000000D+00
384  3.8300000000000D+00  0.0000000000000D+00  0.0000000000000D+00
385  3.8400000000000D+00  0.0000000000000D+00  0.0000000000000D+00
386  3.8500000000000D+00  0.0000000000000D+00  0.0000000000000D+00
387  3.8600000000000D+00  0.0000000000000D+00  0.0000000000000D+00
388  3.8700000000000D+00  0.0000000000000D+00  0.0000000000000D+00
389  3.8800000000000D+00  0.0000000000000D+00  0.0000000000000D+00
390  3.8900000000000D+00  0.0000000000000D+00  0.0000000000000D+00
391  3.9000000000000D+00  0.0000000000000D+00  0.0000000000000D+00
392  3.9100000000000D+00  0.0000000000000D+00  0.0000000000000D+00
393  3.9200000000000D+00  0.0000000000000D+00  0.0000000000000D+00
394  3.9300000000000D+00  0.0000000000000D+00  0.0000000000000D+00
395  3.9400000000000D+00  0.0000000000000D+00  0.0000000000000D+00
396  3.9500000000000D+00  0.0000000000000D+00  0.0000000000000D+00
397  3.9600000000000D+00  0.0000000000000D+00  0.0000000000000D+00
398  3.9700000000000D+00  0.0000000000000D+00  0.0000000000000D+00
399  3.9800000000000D+00  0.0000000000000D+00  0.0000000000000D+00
400  3.9900000000000D+00  0.0000000000000D+00  0.0000000000000D+00
401  4.0000000000000D+00  0.0000000000000D+00  0.0000000000000D+00
402  4.0100000000000D+00  0.0000000000000D+00  0.0000000000000D+00
403  4.0200000000000D+00  0.0000000000000D+00  0.0000000000000D+00
404  4.0300000000000D+00  0.0000000000000D+00  0.0000000000000D+00
405  4.0400000000000D+00  0.0000000000000D+00  0.0000000000000D+00
406  4.0500000000000D+00  0.0000000000000D+00  0.0000000000000D+00
407  4.0600000000000D+00  0.0000000000000D+00  0.0000000000000D+00
408  4.0700000000000D+00  0.0000000000000D+00  0.0000000000000D+00
409  4.0800000000000D+00  0.0000000000000D+00  0.0000000000000D+00
410  4.0900000000000D+00  0.0000000000000D+00  0.0000000000000D+00
411  4.1000000000000D+00  0.0000000000000D+00  0.0000000000000D+00
412  4.1100000000000D+00  0.0000000000000D+00  0.0000000000000D+00
413  4.1200000000000D+00  0.0000000000000D+00  0.0000000000000D+00
414  4.1300000000000D+00  0.0000000000000D+00  0.0000000000000D+00
415  4.1400000000000D+00  0.0000000000000D+00  0.0000000000000D+00
416  4.1500000000000D+00  0.0000000000000D+00  0.0000000000000D+00
417  4.1600000000000D+00  0.0000000000000D+00  0.0000000000000D+00
418  4.1700000000000D+00  0.0000000000000D+00  0.0000000000000D+00
419  4.1800000000000D+00  0.0000000000000D+00  0.0000000000000D+00
420  4.1900000000000D+00  0.0000000000000D+00  0.0000000000000D+00
421  4.2000000000000D+00  0.0000000000000D+00  0.0000000000000D+00
422  4.2100000000000D+00  0.0000000000000D+00  0.0000000000000D+00
423  4.2200000000000D+00  0.0000000000000D+00  0.0000000000000D+00
424  4.2300000000000D+00  0.0000000000000D+00  0.0000000000000D+00
425  4.2400000000000D+00  0.0000000000000D+00  0.0000000000000D+00
426  4.2500000000000D+00  0.0000000000000D+00  0.0000000000000D+00
427  4.2600000000000D+00  0.0000000000000D+00  0.0000000000000D+00
428  4.2700000000000D+00  0.0000000000000D+00  0.0000000000000D+00
429  4.2800000000000D+00  0.0000000000000D+00  0.0000000000000D+00
430  4.2900000000000D+00  0.0000000000000D+00  0.0000000000000D+00
431  4.3000000000000D+00  0.0000000000000D+00  0.0000000000000D+00
432  4.3100000000000D+00  0.0000000000000D+00  0.0000000000000D+00
433  4.3200000000000D+00  0.0000000000000D+00  0.0000000000000D+00
434  4.3300000000000D+00  0.0000000000000D+00  0.0000000000000D+00
435  4.3400000000000D+00  0.0000000000000D+00  0.0000000000000D+00
436  4.3500000000000D+00  0.0000000000000D+00  0.0000000000000D+00
437  4.3600000000000D+00  0.0000000000000D+00  0.0000000000000D+00
438  4.3700000000000D+00  0.0000000000000D+00  0.0000000000000D+00
439  4.3800000000000D+00  0.0000000000000D+00  0.0000000000000D+00
440  4.3900000000000D+00  0.0000000000000D+00  0.0000000000000D+00
441  4.4000000000000D+00  0.0000000000000D+00  0.0000000000000D+00
442  4.4100000000000D+00  0.0000000000000D+00  0.0000000000000D+00
443  4.4200000000000D+00  0.0000000000000D+00  0.0000000000000D+00
444  4.4300000000000D+00  0.0000000000000D+00  0.0000000000000D+00