Li    ONCVPSP  r_core=  1.21  1.01
3.0000      3.0000      151027    zatom,zion,pspd
8      11   1     4   400     0    pspcod,pspxc,lmax,lloc,mmax,r2well
3.99000000  0.00000000  0.00000000    rchrg fchrg qchrg
2     2     0     0     0    nproj
0                 extension_switch
0                        -5.7718036736617D+00 -2.0030522083427D+00
1  0.0000000000000D+00  3.7858998158669D-09 -6.6851680857738D-09
2  1.0000000000000D-02  1.1708197859580D-01 -2.9341803611724D-02
3  2.0000000000000D-02  2.3376141142479D-01 -5.8461555533199D-02
4  3.0000000000000D-02  3.4963587314768D-01 -8.7135654856475D-02
5  4.0000000000000D-02  4.6430321780613D-01 -1.1513747664875D-01
6  5.0000000000000D-02  5.7736181382943D-01 -1.4223604420507D-01
7  6.0000000000000D-02  6.8841089064601D-01 -1.6819491752420D-01
8  7.0000000000000D-02  7.9705102953923D-01 -1.9277136203212D-01
9  8.0000000000000D-02  9.0288482760159D-01 -2.1571585489255D-01
10  9.0000000000000D-02  1.0055177590609D+00 -2.3677197815040D-01
11  1.0000000000000D-01  1.1045592529755D+00 -2.5567673862138D-01
12  1.1000000000000D-01  1.1996240004328D+00 -2.7216134406092D-01
13  1.2000000000000D-01  1.2903334980651D+00 -2.8595245393701D-01
14  1.3000000000000D-01  1.3763178280486D+00 -2.9677391132607D-01
15  1.4000000000000D-01  1.4572176679243D+00 -3.0434895029816D-01
16  1.5000000000000D-01  1.5326865167165D+00 -3.0840286091178D-01
17  1.6000000000000D-01  1.6023931170770D+00 -3.0866608186002D-01
18  1.7000000000000D-01  1.6660240466990D+00 -3.0487767915458D-01
19  1.8000000000000D-01  1.7232864461674D+00 -2.9678915825356D-01
20  1.9000000000000D-01  1.7739108448769D+00 -2.8416854697039D-01
21  2.0000000000000D-01  1.8176540417867D+00 -2.6680467756623D-01
22  2.1000000000000D-01  1.8543019937005D+00 -2.4451158882694D-01
23  2.2000000000000D-01  1.8836726605624D+00 -2.1713296283146D-01
24  2.3000000000000D-01  1.9056187550315D+00 -1.8454650667881D-01
25  2.4000000000000D-01  1.9200303423901D+00 -1.4666818676649D-01
26  2.5000000000000D-01  1.9268372367158D+00 -1.0345622238519D-01
27  2.6000000000000D-01  1.9260111402055D+00 -5.4914746454509D-02
28  2.7000000000000D-01  1.9175674746006D+00 -1.0970441777913D-03
29  2.8000000000000D-01  1.9015668567911D+00  5.7891714791004D-02
30  2.9000000000000D-01  1.8781161748370D+00  1.2189232846859D-01
31  3.0000000000000D-01  1.8473692257696D+00  1.9069006845853D-01
32  3.1000000000000D-01  1.8095268825467D+00  2.6401389932811D-01
33  3.2000000000000D-01  1.7648367643197D+00  3.4153645989449D-01
34  3.3000000000000D-01  1.7135923916233D+00  4.2287484247486D-01
35  3.4000000000000D-01  1.6561318160787D+00  5.0759219280801D-01
36  3.5000000000000D-01  1.5928357225640D+00  5.9520013930004D-01
37  3.6000000000000D-01  1.5241250104080D+00  6.8516204574260D-01
38  3.7000000000000D-01  1.4504578688331D+00  7.7689706697226D-01
39  3.8000000000000D-01  1.3723263704604D+00  8.6978497235769D-01
40  3.9000000000000D-01  1.2902526150264D+00  9.6317168779611D-01
41  4.0000000000000D-01  1.2047844633888D+00  1.0563754933435D+00
42  4.1000000000000D-01  1.1164909092743D+00  1.1486938009532D+00
43  4.2000000000000D-01  1.0259571428881D+00  1.2394104253052D+00
44  4.3000000000000D-01  9.3377936635023D-01  1.3278032505899D+00
45  4.4000000000000D-01  8.4055942581701D-01  1.4131521875811D+00
46  4.5000000000000D-01  7.4689932900095D-01  1.4947473085436D+00
47  4.6000000000000D-01  6.5339571953360D-01  1.5718970426347D+00
48  4.7000000000000D-01  5.6063438116742D-01  1.6439363115579D+00
49  4.8000000000000D-01  4.6918484514850D-01  1.7102344843992D+00
50  4.9000000000000D-01  3.7959517319728D-01  1.7702030318302D+00
51  5.0000000000000D-01  2.9238698642042D-01  1.8233027632081D+00
52  5.1000000000000D-01  2.0805080717289D-01  1.8690505354733D+00
53  5.2000000000000D-01  1.2704177645157D-01  1.9070253300669D+00
54  5.3000000000000D-01  4.9775803905776D-02  1.9368736032313D+00
55  5.4000000000000D-01 -2.3373798906855D-02  1.9583138258567D+00
56  5.5000000000000D-01 -9.2079158707594D-02  1.9711401413281D+00
57  5.6000000000000D-01 -1.5606011883231D-01  1.9752250833442D+00
58  5.7000000000000D-01 -2.1508592904492D-01  1.9705213102579D+00
59  5.8000000000000D-01 -2.6897632917480D-01  1.9570623277779D+00
60  5.9000000000000D-01 -3.1760201823720D-01  1.9349621876915D+00
61  6.0000000000000D-01 -3.6088451007396D-01  1.9044141662484D+00
62  6.1000000000000D-01 -3.9879538590509D-01  1.8656884418082D+00
63  6.2000000000000D-01 -4.3135496324280D-01  1.8191288068600D+00
64  6.3000000000000D-01 -4.5863040936543D-01  1.7651484645221D+00
65  6.4000000000000D-01 -4.8073333567009D-01  1.7042249735952D+00
66  6.5000000000000D-01 -4.9781691672143D-01  1.6368944191728D+00
67  6.6000000000000D-01 -5.1007258447783D-01  1.5637448973437D+00
68  6.7000000000000D-01 -5.1772635390471D-01  1.4854094124700D+00
69  6.8000000000000D-01 -5.2103484092712D-01  1.4025582938129D+00
70  6.9000000000000D-01 -5.2028103731056D-01  1.3158912446772D+00
71  7.0000000000000D-01 -5.1576990955711D-01  1.2261291417083D+00
72  7.1000000000000D-01 -5.0782389024033D-01  1.1340057044487D+00
73  7.2000000000000D-01 -4.9677833036055D-01  1.0402591557077D+00
74  7.3000000000000D-01 -4.8297698029588D-01  9.4562399173861D-01
75  7.4000000000000D-01 -4.6676756479876D-01  8.5082297772157D-01
76  7.5000000000000D-01 -4.4849751429082D-01  7.5655947868511D-01
77  7.6000000000000D-01 -4.2850991053099D-01  6.6351022892639D-01
78  7.7000000000000D-01 -4.0713969966084D-01  5.7231863433732D-01
79  7.8000000000000D-01 -3.8471021976002D-01  4.8358869197584D-01
80  7.9000000000000D-01 -3.6153008354391D-01  3.9787960001849D-01
81  8.0000000000000D-01 -3.3789044979343D-01  3.1570111903929D-01
82  8.1000000000000D-01 -3.1406270969173D-01  2.3750973266733D-01
83  8.2000000000000D-01 -2.9029660659610D-01  1.6370564231750D-01
84  8.3000000000000D-01 -2.6681880004507D-01  9.4630617121915D-02
85  8.4000000000000D-01 -2.4383187713954D-01  3.0566706667818D-02
86  8.5000000000000D-01 -2.2151380698734D-01 -2.8264189082293D-02
87  8.6000000000000D-01 -2.0001782679956D-01 -8.1699911013505D-02
88  8.7000000000000D-01 -1.7947274160142D-01 -1.2963682350052D-01
89  8.8000000000000D-01 -1.5998361387109D-01 -1.7202782870376D-01
90  8.9000000000000D-01 -1.4163281360541D-01 -2.0887966411501D-01
91  9.0000000000000D-01 -1.2448137344165D-01 -2.4024959948234D-01
92  9.1000000000000D-01 -1.0857073794507D-01 -2.6624126054032D-01
93  9.2000000000000D-01 -9.3923949075139D-02 -2.8700212652920D-01
94  9.3000000000000D-01 -8.0545972600288D-02 -3.0272330348652D-01
95  9.4000000000000D-01 -6.8424652187398D-02 -3.1363743277998D-01
96  9.5000000000000D-01 -5.7532713827674D-02 -3.2001372184186D-01
97  9.6000000000000D-01 -4.7829744607771D-02 -3.2215306047184D-01
98  9.7000000000000D-01 -3.9264214995338D-02 -3.2038298943182D-01
99  9.8000000000000D-01 -3.1775485658693D-02 -3.1505265250508D-01
100  9.9000000000000D-01 -2.5295763060530D-02 -3.0652780109127D-01
101  1.0000000000000D+00 -1.9751972071673D-02 -2.9518591399733D-01
102  1.0100000000000D+00 -1.5067517770112D-02 -2.8141148929265D-01
103  1.0200000000000D+00 -1.1163913162653D-02 -2.6559155776619D-01
104  1.0300000000000D+00 -7.9622544159221D-03 -2.4811145964773D-01
105  1.0400000000000D+00 -5.3845301851749D-03 -2.2935091803827D-01
106  1.0500000000000D+00 -3.3547563464078D-03 -2.0968043467963D-01
107  1.0600000000000D+00 -1.7999326981640D-03 -1.8945802485685D-01
108  1.0700000000000D+00 -6.5082251218014D-04 -1.6902630089943D-01
109  1.0800000000000D+00  1.5743973915266D-04 -1.4870990609687D-01
110  1.0900000000000D+00  6.8490320082172D-04 -1.2881329390575D-01
111  1.1000000000000D+00  9.8650562414183D-04 -1.0961884182866D-01
112  1.1100000000000D+00  1.1119127852651D-03 -9.1385283139437D-02
113  1.1200000000000D+00  1.1054747774046D-03 -7.4346436100884D-02
114  1.1300000000000D+00  1.0062798913665D-03 -5.8710206690207D-02
115  1.1400000000000D+00  8.4828593030428D-04 -4.4657838838456D-02
116  1.1500000000000D+00  6.6050837249830D-04 -3.2343384504292D-02
117  1.1600000000000D+00  4.6724532769158D-04 -2.1893366042265D-02
118  1.1700000000000D+00  2.8836518927833D-04 -1.3410886040932D-02
119  1.1800000000000D+00  1.3929996886115D-04 -6.9418470451801D-03
120  1.1900000000000D+00  3.1812283591589D-05 -2.5672345930023D-03
121  1.2000000000000D+00 -2.6954321989427D-05 -3.9468917740607D-04
122  1.2100000000000D+00 -2.9245689422399D-05  1.5033986491892D-04
123  1.2200000000000D+00 -1.0042651960301D-06  7.9559295007751D-06
124  1.2300000000000D+00  3.6839140375878D-06 -3.2860452295581D-05
125  1.2400000000000D+00 -9.2773033117876D-07  6.9747145757039D-06
126  1.2500000000000D+00  2.8056324551823D-09 -5.3774870861656D-09
127  1.2600000000000D+00  8.2995875605263D-08 -1.5907616425235D-07
128  1.2700000000000D+00  0.0000000000000D+00  0.0000000000000D+00
129  1.2800000000000D+00  0.0000000000000D+00  0.0000000000000D+00
130  1.2900000000000D+00  0.0000000000000D+00  0.0000000000000D+00
131  1.3000000000000D+00  0.0000000000000D+00  0.0000000000000D+00
132  1.3100000000000D+00  0.0000000000000D+00  0.0000000000000D+00
133  1.3200000000000D+00  0.0000000000000D+00  0.0000000000000D+00
134  1.3300000000000D+00  0.0000000000000D+00  0.0000000000000D+00
135  1.3400000000000D+00  0.0000000000000D+00  0.0000000000000D+00
136  1.3500000000000D+00  0.0000000000000D+00  0.0000000000000D+00
137  1.3600000000000D+00  0.0000000000000D+00  0.0000000000000D+00
138  1.3700000000000D+00  0.0000000000000D+00  0.0000000000000D+00
139  1.3800000000000D+00  0.0000000000000D+00  0.0000000000000D+00
140  1.3900000000000D+00  0.0000000000000D+00  0.0000000000000D+00
141  1.4000000000000D+00  0.0000000000000D+00  0.0000000000000D+00
142  1.4100000000000D+00  0.0000000000000D+00  0.0000000000000D+00
143  1.4200000000000D+00  0.0000000000000D+00  0.0000000000000D+00
144  1.4300000000000D+00  0.0000000000000D+00  0.0000000000000D+00
145  1.4400000000000D+00  0.0000000000000D+00  0.0000000000000D+00
146  1.4500000000000D+00  0.0000000000000D+00  0.0000000000000D+00
147  1.4600000000000D+00  0.0000000000000D+00  0.0000000000000D+00
148  1.4700000000000D+00  0.0000000000000D+00  0.0000000000000D+00
149  1.4800000000000D+00  0.0000000000000D+00  0.0000000000000D+00
150  1.4900000000000D+00  0.0000000000000D+00  0.0000000000000D+00
151  1.5000000000000D+00  0.0000000000000D+00  0.0000000000000D+00
152  1.5100000000000D+00  0.0000000000000D+00  0.0000000000000D+00
153  1.5200000000000D+00  0.0000000000000D+00  0.0000000000000D+00
154  1.5300000000000D+00  0.0000000000000D+00  0.0000000000000D+00
155  1.5400000000000D+00  0.0000000000000D+00  0.0000000000000D+00
156  1.5500000000000D+00  0.0000000000000D+00  0.0000000000000D+00
157  1.5600000000000D+00  0.0000000000000D+00  0.0000000000000D+00
158  1.5700000000000D+00  0.0000000000000D+00  0.0000000000000D+00
159  1.5800000000000D+00  0.0000000000000D+00  0.0000000000000D+00
160  1.5900000000000D+00  0.0000000000000D+00  0.0000000000000D+00
161  1.6000000000000D+00  0.0000000000000D+00  0.0000000000000D+00
162  1.6100000000000D+00  0.0000000000000D+00  0.0000000000000D+00
163  1.6200000000000D+00  0.0000000000000D+00  0.0000000000000D+00
164  1.6300000000000D+00  0.0000000000000D+00  0.0000000000000D+00
165  1.6400000000000D+00  0.0000000000000D+00  0.0000000000000D+00
166  1.6500000000000D+00  0.0000000000000D+00  0.0000000000000D+00
167  1.6600000000000D+00  0.0000000000000D+00  0.0000000000000D+00
168  1.6700000000000D+00  0.0000000000000D+00  0.0000000000000D+00
169  1.6800000000000D+00  0.0000000000000D+00  0.0000000000000D+00
170  1.6900000000000D+00  0.0000000000000D+00  0.0000000000000D+00
171  1.7000000000000D+00  0.0000000000000D+00  0.0000000000000D+00
172  1.7100000000000D+00  0.0000000000000D+00  0.0000000000000D+00
173  1.7200000000000D+00  0.0000000000000D+00  0.0000000000000D+00
174  1.7300000000000D+00  0.0000000000000D+00  0.0000000000000D+00
175  1.7400000000000D+00  0.0000000000000D+00  0.0000000000000D+00
176  1.7500000000000D+00  0.0000000000000D+00  0.0000000000000D+00
177  1.7600000000000D+00  0.0000000000000D+00  0.0000000000000D+00
178  1.7700000000000D+00  0.0000000000000D+00  0.0000000000000D+00
179  1.7800000000000D+00  0.0000000000000D+00  0.0000000000000D+00
180  1.7900000000000D+00  0.0000000000000D+00  0.0000000000000D+00
181  1.8000000000000D+00  0.0000000000000D+00  0.0000000000000D+00
182  1.8100000000000D+00  0.0000000000000D+00  0.0000000000000D+00
183  1.8200000000000D+00  0.0000000000000D+00  0.0000000000000D+00
184  1.8300000000000D+00  0.0000000000000D+00  0.0000000000000D+00
185  1.8400000000000D+00  0.0000000000000D+00  0.0000000000000D+00
186  1.8500000000000D+00  0.0000000000000D+00  0.0000000000000D+00
187  1.8600000000000D+00  0.0000000000000D+00  0.0000000000000D+00
188  1.8700000000000D+00  0.0000000000000D+00  0.0000000000000D+00
189  1.8800000000000D+00  0.0000000000000D+00  0.0000000000000D+00
190  1.8900000000000D+00  0.0000000000000D+00  0.0000000000000D+00
191  1.9000000000000D+00  0.0000000000000D+00  0.0000000000000D+00
192  1.9100000000000D+00  0.0000000000000D+00  0.0000000000000D+00
193  1.9200000000000D+00  0.0000000000000D+00  0.0000000000000D+00
194  1.9300000000000D+00  0.0000000000000D+00  0.0000000000000D+00
195  1.9400000000000D+00  0.0000000000000D+00  0.0000000000000D+00
196  1.9500000000000D+00  0.0000000000000D+00  0.0000000000000D+00
197  1.9600000000000D+00  0.0000000000000D+00  0.0000000000000D+00
198  1.9700000000000D+00  0.0000000000000D+00  0.0000000000000D+00
199  1.9800000000000D+00  0.0000000000000D+00  0.0000000000000D+00
200  1.9900000000000D+00  0.0000000000000D+00  0.0000000000000D+00
201  2.0000000000000D+00  0.0000000000000D+00  0.0000000000000D+00
202  2.0100000000000D+00  0.0000000000000D+00  0.0000000000000D+00
203  2.0200000000000D+00  0.0000000000000D+00  0.0000000000000D+00
204  2.0300000000000D+00  0.0000000000000D+00  0.0000000000000D+00
205  2.0400000000000D+00  0.0000000000000D+00  0.0000000000000D+00
206  2.0500000000000D+00  0.0000000000000D+00  0.0000000000000D+00
207  2.0600000000000D+00  0.0000000000000D+00  0.0000000000000D+00
208  2.0700000000000D+00  0.0000000000000D+00  0.0000000000000D+00
209  2.0800000000000D+00  0.0000000000000D+00  0.0000000000000D+00
210  2.0900000000000D+00  0.0000000000000D+00  0.0000000000000D+00
211  2.1000000000000D+00  0.0000000000000D+00  0.0000000000000D+00
212  2.1100000000000D+00  0.0000000000000D+00  0.0000000000000D+00
213  2.1200000000000D+00  0.0000000000000D+00  0.0000000000000D+00
214  2.1300000000000D+00  0.0000000000000D+00  0.0000000000000D+00
215  2.1400000000000D+00  0.0000000000000D+00  0.0000000000000D+00
216  2.1500000000000D+00  0.0000000000000D+00  0.0000000000000D+00
217  2.1600000000000D+00  0.0000000000000D+00  0.0000000000000D+00
218  2.1700000000000D+00  0.0000000000000D+00  0.0000000000000D+00
219  2.1800000000000D+00  0.0000000000000D+00  0.0000000000000D+00
220  2.1900000000000D+00  0.0000000000000D+00  0.0000000000000D+00
221  2.2000000000000D+00  0.0000000000000D+00  0.0000000000000D+00
222  2.2100000000000D+00  0.0000000000000D+00  0.0000000000000D+00
223  2.2200000000000D+00  0.0000000000000D+00  0.0000000000000D+00
224  2.2300000000000D+00  0.0000000000000D+00  0.0000000000000D+00
225  2.2400000000000D+00  0.0000000000000D+00  0.0000000000000D+00
226  2.2500000000000D+00  0.0000000000000D+00  0.0000000000000D+00
227  2.2600000000000D+00  0.0000000000000D+00  0.0000000000000D+00
228  2.2700000000000D+00  0.0000000000000D+00  0.0000000000000D+00
229  2.2800000000000D+00  0.0000000000000D+00  0.0000000000000D+00
230  2.2900000000000D+00  0.0000000000000D+00  0.0000000000000D+00
231  2.3000000000000D+00  0.0000000000000D+00  0.0000000000000D+00
232  2.3100000000000D+00  0.0000000000000D+00  0.0000000000000D+00
233  2.3200000000000D+00  0.0000000000000D+00  0.0000000000000D+00
234  2.3300000000000D+00  0.0000000000000D+00  0.0000000000000D+00
235  2.3400000000000D+00  0.0000000000000D+00  0.0000000000000D+00
236  2.3500000000000D+00  0.0000000000000D+00  0.0000000000000D+00
237  2.3600000000000D+00  0.0000000000000D+00  0.0000000000000D+00
238  2.3700000000000D+00  0.0000000000000D+00  0.0000000000000D+00
239  2.3800000000000D+00  0.0000000000000D+00  0.0000000000000D+00
240  2.3900000000000D+00  0.0000000000000D+00  0.0000000000000D+00
241  2.4000000000000D+00  0.0000000000000D+00  0.0000000000000D+00
242  2.4100000000000D+00  0.0000000000000D+00  0.0000000000000D+00
243  2.4200000000000D+00  0.0000000000000D+00  0.0000000000000D+00
244  2.4300000000000D+00  0.0000000000000D+00  0.0000000000000D+00
245  2.4400000000000D+00  0.0000000000000D+00  0.0000000000000D+00
246  2.4500000000000D+00  0.0000000000000D+00  0.0000000000000D+00
247  2.4600000000000D+00  0.0000000000000D+00  0.0000000000000D+00
248  2.4700000000000D+00  0.0000000000000D+00  0.0000000000000D+00
249  2.4800000000000D+00  0.0000000000000D+00  0.0000000000000D+00
250  2.4900000000000D+00  0.0000000000000D+00  0.0000000000000D+00
251  2.5000000000000D+00  0.0000000000000D+00  0.0000000000000D+00
252  2.5100000000000D+00  0.0000000000000D+00  0.0000000000000D+00
253  2.5200000000000D+00  0.0000000000000D+00  0.0000000000000D+00
254  2.5300000000000D+00  0.0000000000000D+00  0.0000000000000D+00
255  2.5400000000000D+00  0.0000000000000D+00  0.0000000000000D+00
256  2.5500000000000D+00  0.0000000000000D+00  0.0000000000000D+00
257  2.5600000000000D+00  0.0000000000000D+00  0.0000000000000D+00
258  2.5700000000000D+00  0.0000000000000D+00  0.0000000000000D+00
259  2.5800000000000D+00  0.0000000000000D+00  0.0000000000000D+00
260  2.5900000000000D+00  0.0000000000000D+00  0.0000000000000D+00
261  2.6000000000000D+00  0.0000000000000D+00  0.0000000000000D+00
262  2.6100000000000D+00  0.0000000000000D+00  0.0000000000000D+00
263  2.6200000000000D+00  0.0000000000000D+00  0.0000000000000D+00
264  2.6300000000000D+00  0.0000000000000D+00  0.0000000000000D+00
265  2.6400000000000D+00  0.0000000000000D+00  0.0000000000000D+00
266  2.6500000000000D+00  0.0000000000000D+00  0.0000000000000D+00
267  2.6600000000000D+00  0.0000000000000D+00  0.0000000000000D+00
268  2.6700000000000D+00  0.0000000000000D+00  0.0000000000000D+00
269  2.6800000000000D+00  0.0000000000000D+00  0.0000000000000D+00
270  2.6900000000000D+00  0.0000000000000D+00  0.0000000000000D+00
271  2.7000000000000D+00  0.0000000000000D+00  0.0000000000000D+00
272  2.7100000000000D+00  0.0000000000000D+00  0.0000000000000D+00
273  2.7200000000000D+00  0.0000000000000D+00  0.0000000000000D+00
274  2.7300000000000D+00  0.0000000000000D+00  0.0000000000000D+00
275  2.7400000000000D+00  0.0000000000000D+00  0.0000000000000D+00
276  2.7500000000000D+00  0.0000000000000D+00  0.0000000000000D+00
277  2.7600000000000D+00  0.0000000000000D+00  0.0000000000000D+00
278  2.7700000000000D+00  0.0000000000000D+00  0.0000000000000D+00
279  2.7800000000000D+00  0.0000000000000D+00  0.0000000000000D+00
280  2.7900000000000D+00  0.0000000000000D+00  0.0000000000000D+00
281  2.8000000000000D+00  0.0000000000000D+00  0.0000000000000D+00
282  2.8100000000000D+00  0.0000000000000D+00  0.0000000000000D+00
283  2.8200000000000D+00  0.0000000000000D+00  0.0000000000000D+00
284  2.8300000000000D+00  0.0000000000000D+00  0.0000000000000D+00
285  2.8400000000000D+00  0.0000000000000D+00  0.0000000000000D+00
286  2.8500000000000D+00  0.0000000000000D+00  0.0000000000000D+00
287  2.8600000000000D+00  0.0000000000000D+00  0.0000000000000D+00
288  2.8700000000000D+00  0.0000000000000D+00  0.0000000000000D+00
289  2.8800000000000D+00  0.0000000000000D+00  0.0000000000000D+00
290  2.8900000000000D+00  0.0000000000000D+00  0.0000000000000D+00
291  2.9000000000000D+00  0.0000000000000D+00  0.0000000000000D+00
292  2.9100000000000D+00  0.0000000000000D+00  0.0000000000000D+00
293  2.9200000000000D+00  0.0000000000000D+00  0.0000000000000D+00
294  2.9300000000000D+00  0.0000000000000D+00  0.0000000000000D+00
295  2.9400000000000D+00  0.0000000000000D+00  0.0000000000000D+00
296  2.9500000000000D+00  0.0000000000000D+00  0.0000000000000D+00
297  2.9600000000000D+00  0.0000000000000D+00  0.0000000000000D+00
298  2.9700000000000D+00  0.0000000000000D+00  0.0000000000000D+00
299  2.9800000000000D+00  0.0000000000000D+00  0.0000000000000D+00
300  2.9900000000000D+00  0.0000000000000D+00  0.0000000000000D+00
301  3.0000000000000D+00  0.0000000000000D+00  0.0000000000000D+00
302  3.0100000000000D+00  0.0000000000000D+00  0.0000000000000D+00
303  3.0200000000000D+00  0.0000000000000D+00  0.0000000000000D+00
304  3.0300000000000D+00  0.0000000000000D+00  0.0000000000000D+00
305  3.0400000000000D+00  0.0000000000000D+00  0.0000000000000D+00
306  3.0500000000000D+00  0.0000000000000D+00  0.0000000000000D+00
307  3.0600000000000D+00  0.0000000000000D+00  0.0000000000000D+00
308  3.0700000000000D+00  0.0000000000000D+00  0.0000000000000D+00
309  3.0800000000000D+00  0.0000000000000D+00  0.0000000000000D+00
310  3.0900000000000D+00  0.0000000000000D+00  0.0000000000000D+00
311  3.1000000000000D+00  0.0000000000000D+00  0.0000000000000D+00
312  3.1100000000000D+00  0.0000000000000D+00  0.0000000000000D+00
313  3.1200000000000D+00  0.0000000000000D+00  0.0000000000000D+00
314  3.1300000000000D+00  0.0000000000000D+00  0.0000000000000D+00
315  3.1400000000000D+00  0.0000000000000D+00  0.0000000000000D+00
316  3.1500000000000D+00  0.0000000000000D+00  0.0000000000000D+00
317  3.1600000000000D+00  0.0000000000000D+00  0.0000000000000D+00
318  3.1700000000000D+00  0.0000000000000D+00  0.0000000000000D+00
319  3.1800000000000D+00  0.0000000000000D+00  0.0000000000000D+00
320  3.1900000000000D+00  0.0000000000000D+00  0.0000000000000D+00
321  3.2000000000000D+00  0.0000000000000D+00  0.0000000000000D+00
322  3.2100000000000D+00  0.0000000000000D+00  0.0000000000000D+00
323  3.2200000000000D+00  0.0000000000000D+00  0.0000000000000D+00
324  3.2300000000000D+00  0.0000000000000D+00  0.0000000000000D+00
325  3.2400000000000D+00  0.0000000000000D+00  0.0000000000000D+00
326  3.2500000000000D+00  0.0000000000000D+00  0.0000000000000D+00
327  3.2600000000000D+00  0.0000000000000D+00  0.0000000000000D+00
328  3.2700000000000D+00  0.0000000000000D+00  0.0000000000000D+00
329  3.2800000000000D+00  0.0000000000000D+00  0.0000000000000D+00
330  3.2900000000000D+00  0.0000000000000D+00  0.0000000000000D+00
331  3.3000000000000D+00  0.0000000000000D+00  0.0000000000000D+00
332  3.3100000000000D+00  0.0000000000000D+00  0.0000000000000D+00
333  3.3200000000000D+00  0.0000000000000D+00  0.0000000000000D+00
334  3.3300000000000D+00  0.0000000000000D+00  0.0000000000000D+00
335  3.3400000000000D+00  0.0000000000000D+00  0.0000000000000D+00
336  3.3500000000000D+00  0.0000000000000D+00  0.0000000000000D+00
337  3.3600000000000D+00  0.0000000000000D+00  0.0000000000000D+00
338  3.3700000000000D+00  0.0000000000000D+00  0.0000000000000D+00
339  3.3800000000000D+00  0.0000000000000D+00  0.0000000000000D+00
340  3.3900000000000D+00  0.0000000000000D+00  0.0000000000000D+00
341  3.4000000000000D+00  0.0000000000000D+00  0.0000000000000D+00
342  3.4100000000000D+00  0.0000000000000D+00  0.0000000000000D+00
343  3.4200000000000D+00  0.0000000000000D+00  0.0000000000000D+00
344  3.4300000000000D+00  0.0000000000000D+00  0.0000000000000D+00
345  3.4400000000000D+00  0.0000000000000D+00  0.0000000000000D+00
346  3.4500000000000D+00  0.0000000000000D+00  0.0000000000000D+00
347  3.4600000000000D+00  0.0000000000000D+00  0.0000000000000D+00
348  3.4700000000000D+00  0.0000000000000D+00  0.0000000000000D+00
349  3.4800000000000D+00  0.0000000000000D+00  0.0000000000000D+00
350  3.4900000000000D+00  0.0000000000000D+00  0.0000000000000D+00
351  3.5000000000000D+00  0.0000000000000D+00  0.0000000000000D+00
352  3.5100000000000D+00  0.0000000000000D+00  0.0000000000000D+00
353  3.5200000000000D+00  0.0000000000000D+00  0.0000000000000D+00
354  3.5300000000000D+00  0.0000000000000D+00  0.0000000000000D+00
355  3.5400000000000D+00  0.0000000000000D+00  0.0000000000000D+00
356  3.5500000000000D+00  0.0000000000000D+00  0.0000000000000D+00
357  3.5600000000000D+00  0.0000000000000D+00  0.0000000000000D+00
358  3.5700000000000D+00  0.0000000000000D+00  0.0000000000000D+00
359  3.5800000000000D+00  0.0000000000000D+00  0.0000000000000D+00
360  3.5900000000000D+00  0.0000000000000D+00  0.0000000000000D+00
361  3.6000000000000D+00  0.0000000000000D+00  0.0000000000000D+00
362  3.6100000000000D+00  0.0000000000000D+00  0.0000000000000D+00
363  3.6200000000000D+00  0.0000000000000D+00  0.0000000000000D+00
364  3.6300000000000D+00  0.0000000000000D+00  0.0000000000000D+00
365  3.6400000000000D+00  0.0000000000000D+00  0.0000000000000D+00
366  3.6500000000000D+00  0.0000000000000D+00  0.0000000000000D+00
367  3.6600000000000D+00  0.0000000000000D+00  0.0000000000000D+00
368  3.6700000000000D+00  0.0000000000000D+00  0.0000000000000D+00
369  3.6800000000000D+00  0.0000000000000D+00  0.0000000000000D+00
370  3.6900000000000D+00  0.0000000000000D+00  0.0000000000000D+00
371  3.7000000000000D+00  0.0000000000000D+00  0.0000000000000D+00
372  3.7100000000000D+00  0.0000000000000D+00  0.0000000000000D+00
373  3.7200000000000D+00  0.0000000000000D+00  0.0000000000000D+00
374  3.7300000000000D+00  0.0000000000000D+00  0.0000000000000D+00
375  3.7400000000000D+00  0.0000000000000D+00  0.0000000000000D+00
376  3.7500000000000D+00  0.0000000000000D+00  0.0000000000000D+00
377  3.7600000000000D+00  0.0000000000000D+00  0.0000000000000D+00
378  3.7700000000000D+00  0.0000000000000D+00  0.0000000000000D+00
379  3.7800000000000D+00  0.0000000000000D+00  0.0000000000000D+00
380  3.7900000000000D+00  0.0000000000000D+00  0.0000000000000D+00
381  3.8000000000000D+00  0.0000000000000D+00  0.0000000000000D+00
382  3.8100000000000D+00  0.0000000000000D+00  0.0000000000000D+00
383  3.8200000000000D+00  0.0000000000000D+00  0.0000000000000D+00
384  3.8300000000000D+00  0.0000000000000D+00  0.0000000000000D+00
385  3.8400000000000D+00  0.0000000000000D+00  0.0000000000000D+00
386  3.8500000000000D+00  0.0000000000000D+00  0.0000000000000D+00
387  3.8600000000000D+00  0.0000000000000D+00  0.0000000000000D+00
388  3.8700000000000D+00  0.0000000000000D+00  0.0000000000000D+00
389  3.8800000000000D+00  0.0000000000000D+00  0.0000000000000D+00
390  3.8900000000000D+00  0.0000000000000D+00  0.0000000000000D+00
391  3.9000000000000D+00  0.0000000000000D+00  0.0000000000000D+00
392  3.9100000000000D+00  0.0000000000000D+00  0.0000000000000D+00
393  3.9200000000000D+00  0.0000000000000D+00  0.0000000000000D+00
394  3.9300000000000D+00  0.0000000000000D+00  0.0000000000000D+00
395  3.9400000000000D+00  0.0000000000000D+00  0.0000000000000D+00
396  3.9500000000000D+00  0.0000000000000D+00  0.0000000000000D+00
397  3.9600000000000D+00  0.0000000000000D+00  0.0000000000000D+00
398  3.9700000000000D+00  0.0000000000000D+00  0.0000000000000D+00
399  3.9800000000000D+00  0.0000000000000D+00  0.0000000000000D+00
400  3.9900000000000D+00  0.0000000000000D+00  0.0000000000000D+00
1                        -2.6638417627382D+01 -1.1523028515433D+00
1  0.0000000000000D+00 -7.3466622921292D-07  1.5910609718617D-07
2  1.0000000000000D-02 -5.2396160166298D-03  3.8670050811241D-03
3  2.0000000000000D-02 -2.0613496844420D-02  1.5377770711601D-02
4  3.0000000000000D-02 -4.5100643415550D-02  3.4264633428017D-02
5  4.0000000000000D-02 -7.7045232222373D-02  6.0091663959157D-02
6  5.0000000000000D-02 -1.1422364372863D-01  9.2269557409863D-02
7  6.0000000000000D-02 -1.5393489607094D-01  1.3007574365719D-01
8  7.0000000000000D-02 -1.9311122029841D-01  1.7267901261221D-01
9  8.0000000000000D-02 -2.2844477873202D-01  2.1916778989470D-01
10  9.0000000000000D-02 -2.5652593234840D-01  2.6858106917639D-01
11  1.0000000000000D-01 -2.7398802725484D-01  3.1994091245378D-01
12  1.1000000000000D-01 -2.7765340969831D-01  3.7228537212859D-01
13  1.2000000000000D-01 -2.6467530300049D-01  4.2470067103296D-01
14  1.3000000000000D-01 -2.3267029136381D-01  4.7635149911451D-01
15  1.4000000000000D-01 -1.7983645123304D-01  5.2650834769336D-01
16  1.5000000000000D-01 -1.0505264107287D-01  5.7457090196203D-01
17  1.6000000000000D-01 -7.9550892792854D-03  6.2008664638004D-01
18  1.7000000000000D-01  1.1101181374832D-01  6.6276400130007D-01
19  1.8000000000000D-01  2.5057273557330D-01  7.0247949701634D-01
20  1.9000000000000D-01  4.0862789054093D-01  7.3927869707589D-01
21  2.0000000000000D-01  5.8228904598972D-01  7.7337079914942D-01
22  2.1000000000000D-01  7.6794427168356D-01  8.0511706164965D-01
23  2.2000000000000D-01  9.6134965617945D-01  8.3501342010603D-01
24  2.3000000000000D-01  1.1577452667325D+00  8.6366786167580D-01
25  2.4000000000000D-01  1.3519917698314D+00  8.9177331208461D-01
26  2.5000000000000D-01  1.5387233872459D+00  9.2007695034997D-01
27  2.6000000000000D-01  1.7125122633092D+00  9.4934699728203D-01
28  2.7000000000000D-01  1.8680388839983D+00  9.8033811943303D-01
29  2.8000000000000D-01  2.0002629326182D+00  1.0137566475066D+00
30  2.9000000000000D-01  2.1045888998830D+00  1.0502268251634D+00
31  3.0000000000000D-01  2.1770208908505D+00  1.0902592799518D+00
32  3.1000000000000D-01  2.2143013839519D+00  1.1342228434211D+00
33  3.2000000000000D-01  2.2140291882920D+00  1.1823207443896D+00
34  3.3000000000000D-01  2.1747524984610D+00  1.2345720611672D+00
35  3.4000000000000D-01  2.0960337397382D+00  1.2907991498192D+00
36  3.5000000000000D-01  1.9784838044176D+00  1.3506215718586D+00
37  3.6000000000000D-01  1.8237642718054D+00  1.4134568324988D+00
38  3.7000000000000D-01  1.6345572470015D+00  1.4785280168320D+00
39  3.8000000000000D-01  1.4145035120483D+00  1.5448781834809D+00
40  3.9000000000000D-01  1.1681107218354D+00  1.6113911509858D+00
41  4.0000000000000D-01  9.0063436138322D-01  1.6768180989465D+00
42  4.1000000000000D-01  6.1793507782213D-01  1.7398092108357D+00
43  4.2000000000000D-01  3.2631677926032D-01  1.7989494149799D+00