Li    ONCVPSP  r_core=  1.41  1.11
3.0000      3.0000      151027    zatom,zion,pspd
8      11   1     4   400     0    pspcod,pspxc,lmax,lloc,mmax,r2well
3.99000000  0.00000000  0.00000000    rchrg fchrg qchrg
2     2     0     0     0    nproj
0                 extension_switch
0                        -5.1853474905006D+00 -1.8784960152890D+00
1  0.0000000000000D+00  4.8588344458977D-10 -9.7043431623867D-10
2  1.0000000000000D-02  9.6694126705490D-02 -3.1814121109701D-02
3  2.0000000000000D-02  1.9310846815029D-01 -6.3413741316863D-02
4  3.0000000000000D-02  2.8896387136437D-01 -9.4584668506470D-02
5  4.0000000000000D-02  3.8398245240550D-01 -1.2511333959884D-01
6  5.0000000000000D-02  4.7788824186278D-01 -1.5478716346515D-01
7  6.0000000000000D-02  5.7040784319475D-01 -1.8339489721659D-01
8  7.0000000000000D-02  6.6127110759874D-01 -2.1072706583093D-01
9  8.0000000000000D-02  7.5021182862192D-01 -2.3657643410975D-01
10  9.0000000000000D-02  8.3696845913318D-01 -2.6073853877672D-01
11  1.0000000000000D-01  9.2128485258698D-01 -2.8301228715111D-01
12  1.1000000000000D-01  1.0029110297391D+00 -3.0320062728414D-01
13  1.2000000000000D-01  1.0816039711315D+00 -3.2111129275421D-01
14  1.3000000000000D-01  1.1571284347655D+00 -3.3655762350889D-01
15  1.4000000000000D-01  1.2292577974425D+00 -3.4935946224573D-01
16  1.5000000000000D-01  1.2977749172877D+00 -3.5934412387431D-01
17  1.6000000000000D-01  1.3624730140026D+00 -3.6634743362874D-01
18  1.7000000000000D-01  1.4231565624307D+00 -3.7021482743884D-01
19  1.8000000000000D-01  1.4796421940862D+00 -3.7080250625219D-01
20  1.9000000000000D-01  1.5317596004102D+00 -3.6797863416043D-01
21  2.0000000000000D-01  1.5793524306869D+00 -3.6162456845645D-01
22  2.1000000000000D-01  1.6222791768076D+00 -3.5163610816278D-01
23  2.2000000000000D-01  1.6604140364069D+00 -3.3792474615637D-01
24  2.3000000000000D-01  1.6936477453486D+00 -3.2041890879737D-01
25  2.4000000000000D-01  1.7218883701003D+00 -2.9906516597328D-01
26  2.5000000000000D-01  1.7450620502337D+00 -2.7382939371619D-01
27  2.6000000000000D-01  1.7631136811191D+00 -2.4469787105690D-01
28  2.7000000000000D-01  1.7760075268588D+00 -2.1167829255981D-01
29  2.8000000000000D-01  1.7837277536291D+00 -1.7480067804514D-01
30  2.9000000000000D-01  1.7862788738805D+00 -1.3411816135694D-01
31  3.0000000000000D-01  1.7836860922702D+00 -8.9707640677360D-02
32  3.1000000000000D-01  1.7759955447840D+00 -4.1670273815713D-02
33  3.2000000000000D-01  1.7632744232257D+00  9.8681968905101D-03
34  3.3000000000000D-01  1.7456109781149D+00  6.4757303950378D-02
35  3.4000000000000D-01  1.7231143940292D+00  1.2282191053017D-01
36  3.5000000000000D-01  1.6959145325373D+00  1.8386247290052D-01
37  3.6000000000000D-01  1.6641615390883D+00  2.4765551755298D-01
38  3.7000000000000D-01  1.6280253115354D+00  3.1395433866916D-01
39  3.8000000000000D-01  1.5876948293598D+00  3.8248991912418D-01
40  3.9000000000000D-01  1.5433773441050D+00  4.5297207558521D-01
41  4.0000000000000D-01  1.4952974330236D+00  5.2509082556021D-01
42  4.1000000000000D-01  1.4436959194428D+00  5.9851797149773D-01
43  4.2000000000000D-01  1.3888286648689D+00  6.7290889427274D-01
44  4.3000000000000D-01  1.3309652393409D+00  7.4790454565517D-01
45  4.4000000000000D-01  1.2703874779959D+00  8.2313362668376D-01
46  4.5000000000000D-01  1.2073879332057D+00  8.9821493629668D-01
47  4.6000000000000D-01  1.1422682329558D+00  9.7275987213870D-01
48  4.7000000000000D-01  1.0753373573621D+00  1.0463750632066D+00
49  4.8000000000000D-01  1.0069098463227D+00  1.1186651119454D+00
50  4.9000000000000D-01  9.3730395227897D-01  1.1892354215944D+00
51  5.0000000000000D-01  8.6683975289033D-01  1.2576950830374D+00
52  5.1000000000000D-01  7.9583723910107D-01  1.3236597941544D+00
53  5.2000000000000D-01  7.2461439458261D-01  1.3867547837237D+00
54  5.3000000000000D-01  6.5348528286392D-01  1.4466177113082D+00
55  5.4000000000000D-01  5.8275815860908D-01  1.5029015142730D+00
56  5.5000000000000D-01  5.1273361946075D-01  1.5552771731537D+00
57  5.6000000000000D-01  4.4370281464062D-01  1.6034363670024D+00
58  5.7000000000000D-01  3.7594572608208D-01  1.6470939911068D+00
59  5.8000000000000D-01  3.0972953727355D-01  1.6859905105771D+00
60  5.9000000000000D-01  2.4530710421392D-01  1.7198941247307D+00
61  6.0000000000000D-01  1.8291554193974D-01  1.7486027189498D+00
62  6.1000000000000D-01  1.2277493897808D-01  1.7719455827344D+00
63  6.2000000000000D-01  6.5087210836851D-02  1.7897848749742D+00
64  6.3000000000000D-01  1.0035102259699D-02  1.8020168200346D+00
65  6.4000000000000D-01 -4.2218653512986D-02  1.8085726210020D+00
66  6.5000000000000D-01 -9.1532011826522D-02  1.8094190793873D+00
67  6.6000000000000D-01 -1.3778412505362D-01  1.8045589136760D+00
68  6.7000000000000D-01 -1.8087567912636D-01  1.7940307722920D+00
69  6.8000000000000D-01 -2.2072905664967D-01  1.7779089398021D+00
70  6.9000000000000D-01 -2.5728832685544D-01  1.7563027384635D+00
71  7.0000000000000D-01 -2.9051906441908D-01  1.7293556304763D+00
72  7.1000000000000D-01 -3.2040800088504D-01  1.6972440294870D+00
73  7.2000000000000D-01 -3.4696251413704D-01  1.6601758330092D+00
74  7.3000000000000D-01 -3.7020996295142D-01  1.6183886903753D+00
75  7.4000000000000D-01 -3.9019687519173D-01  1.5721480236245D+00
76  7.5000000000000D-01 -4.0698799961226D-01  1.5217448213151D+00
77  7.6000000000000D-01 -4.2066523252023D-01  1.4674932275843D+00
78  7.7000000000000D-01 -4.3132643168977D-01  1.4097279508537D+00
79  7.8000000000000D-01 -4.3908413091182D-01  1.3488015183578D+00
80  7.9000000000000D-01 -4.4406416938703D-01  1.2850814041423D+00
81  8.0000000000000D-01 -4.4640425082234D-01  1.2189470593110D+00
82  8.1000000000000D-01 -4.4625244756490D-01  1.1507868741052D+00
83  8.2000000000000D-01 -4.4376566539731D-01  1.0809951018440D+00
84  8.3000000000000D-01 -4.3910808472444D-01  1.0099687748554D+00
85  8.4000000000000D-01 -4.3244959380503D-01  9.3810464227988D-01
86  8.5000000000000D-01 -4.2396422942467D-01  8.6579615903791D-01
87  8.6000000000000D-01 -4.1382863997668D-01  7.9343055433331D-01
88  8.7000000000000D-01 -4.0222058532186D-01  7.2138600683090D-01
89  8.8000000000000D-01 -3.8931748704699D-01  6.5002895211825D-01
90  8.9000000000000D-01 -3.7529504184852D-01  5.7971154626150D-01
91  9.0000000000000D-01 -3.6032590974489D-01  5.1076930722121D-01
92  9.1000000000000D-01 -3.4457848768525D-01  4.4351895363473D-01
93  9.2000000000000D-01 -3.2821577788937D-01  3.7825645802999D-01
94  9.3000000000000D-01 -3.1139435894258D-01  3.1525532894478D-01
95  9.4000000000000D-01 -2.9426346629840D-01  2.5476513372259D-01
96  9.5000000000000D-01 -2.7696418742949D-01  1.9701027097616D-01
97  9.6000000000000D-01 -2.5962877543766D-01  1.4218899889793D-01
98  9.7000000000000D-01 -2.4238008347846D-01  9.0472722736032D-02
99  9.8000000000000D-01 -2.2533112098654D-01  4.2005542064737D-02
100  9.9000000000000D-01 -2.0858473124149D-01 -3.0959443642883D-03
101  1.0000000000000D+00 -1.9223338852919D-01 -4.4742580928338D-02
102  1.0100000000000D+00 -1.7635911187511D-01 -8.2872351850498D-02
103  1.0200000000000D+00 -1.6103349115270D-01 -1.1744984188964D-01
104  1.0300000000000D+00 -1.4631782028724D-01 -1.4846547270078D-01
105  1.0400000000000D+00 -1.3226333130325D-01 -1.7593452848375D-01
106  1.0500000000000D+00 -1.1891152214160D-01 -1.9989598616513D-01
107  1.0600000000000D+00 -1.0629457039280D-01 -2.2041116690814D-01
108  1.0700000000000D+00 -9.4435824551340D-02 -2.3756222682860D-01
109  1.0800000000000D+00 -8.3350364186781D-02 -2.5145050502293D-01
110  1.0900000000000D+00 -7.3045620222675D-02 -2.6219474752060D-01
111  1.1000000000000D+00 -6.3522028518892D-02 -2.6992927357477D-01
112  1.1100000000000D+00 -5.4773798266050D-02 -2.7480185902251D-01
113  1.1200000000000D+00 -4.6789488738922D-02 -2.7697216354195D-01
114  1.1300000000000D+00 -3.9552222824494D-02 -2.7661115186563D-01
115  1.1400000000000D+00 -3.3039854283451D-02 -2.7390058041644D-01
116  1.1500000000000D+00 -2.7225516590266D-02 -2.6903142364663D-01
117  1.1600000000000D+00 -2.2078316001829D-02 -2.6220190147219D-01
118  1.1700000000000D+00 -1.7563953515375D-02 -2.5361570808473D-01
119  1.1800000000000D+00 -1.3645345668962D-02 -2.4348024009809D-01
120  1.1900000000000D+00 -1.0283223669648D-02 -2.3200487941467D-01
121  1.2000000000000D+00 -7.4367061818696D-03 -2.1939934117059D-01
122  1.2100000000000D+00 -5.0638422693526D-03 -2.0587209473819D-01
123  1.2200000000000D+00 -3.1221214116777D-03 -1.9162886520125D-01
124  1.2300000000000D+00 -1.5689485944565D-03 -1.7687122058350D-01
125  1.2400000000000D+00 -3.6208318307367D-04 -1.6179524868776D-01
126  1.2500000000000D+00  5.3995925822759D-04 -1.4659032651286D-01
127  1.2600000000000D+00  1.1775416730566D-03 -1.3143798247182D-01
128  1.2700000000000D+00  1.5895758463786D-03 -1.1651085085903D-01
129  1.2800000000000D+00  1.8132271508267D-03 -1.0197171739918D-01
130  1.2900000000000D+00  1.8836512337789D-03 -8.7972652119931D-02
131  1.3000000000000D+00  1.8337601734620D-03 -7.4654225732149D-02
132  1.3100000000000D+00  1.6940153274392D-03 -6.2144805118827D-02
133  1.3200000000000D+00  1.4922433028462D-03 -5.0559921772151D-02
134  1.3300000000000D+00  1.2534718563857D-03 -4.0001707752365D-02
135  1.3400000000000D+00  9.9978202772255D-04 -3.0558392725743D-02
136  1.3500000000000D+00  7.5017307097597D-04 -2.2303855930804D-02
137  1.3600000000000D+00  5.2045411806720D-04 -1.5298048348801D-02
138  1.3700000000000D+00  3.2310751311165D-04 -9.5858117357817D-03
139  1.3800000000000D+00  1.6666595754598D-04 -5.1712778306487D-03
140  1.3900000000000D+00  5.7622867839578D-05 -2.1189779021601D-03
141  1.4000000000000D+00 -1.5367360487512D-06 -4.7637936075600D-04
142  1.4100000000000D+00 -1.7486640161991D-05  8.3509415903961D-05
143  1.4200000000000D+00 -6.9055835261905D-06  6.9536598408506D-05
144  1.4300000000000D+00  2.4977652582855D-06 -2.8250461708680D-05
145  1.4400000000000D+00  9.2938428160721D-07 -1.1267146722570D-05
146  1.4500000000000D+00 -5.9405748935374D-07  6.1285063808009D-06
147  1.4600000000000D+00  4.7996601658263D-09 -1.1497396069769D-08
148  1.4700000000000D+00  4.5960560901795D-08 -1.1009670560409D-07
149  1.4800000000000D+00  0.0000000000000D+00  0.0000000000000D+00
150  1.4900000000000D+00  0.0000000000000D+00  0.0000000000000D+00
151  1.5000000000000D+00  0.0000000000000D+00  0.0000000000000D+00
152  1.5100000000000D+00  0.0000000000000D+00  0.0000000000000D+00
153  1.5200000000000D+00  0.0000000000000D+00  0.0000000000000D+00
154  1.5300000000000D+00  0.0000000000000D+00  0.0000000000000D+00
155  1.5400000000000D+00  0.0000000000000D+00  0.0000000000000D+00
156  1.5500000000000D+00  0.0000000000000D+00  0.0000000000000D+00
157  1.5600000000000D+00  0.0000000000000D+00  0.0000000000000D+00
158  1.5700000000000D+00  0.0000000000000D+00  0.0000000000000D+00
159  1.5800000000000D+00  0.0000000000000D+00  0.0000000000000D+00
160  1.5900000000000D+00  0.0000000000000D+00  0.0000000000000D+00
161  1.6000000000000D+00  0.0000000000000D+00  0.0000000000000D+00
162  1.6100000000000D+00  0.0000000000000D+00  0.0000000000000D+00
163  1.6200000000000D+00  0.0000000000000D+00  0.0000000000000D+00
164  1.6300000000000D+00  0.0000000000000D+00  0.0000000000000D+00
165  1.6400000000000D+00  0.0000000000000D+00  0.0000000000000D+00
166  1.6500000000000D+00  0.0000000000000D+00  0.0000000000000D+00
167  1.6600000000000D+00  0.0000000000000D+00  0.0000000000000D+00
168  1.6700000000000D+00  0.0000000000000D+00  0.0000000000000D+00
169  1.6800000000000D+00  0.0000000000000D+00  0.0000000000000D+00
170  1.6900000000000D+00  0.0000000000000D+00  0.0000000000000D+00
171  1.7000000000000D+00  0.0000000000000D+00  0.0000000000000D+00
172  1.7100000000000D+00  0.0000000000000D+00  0.0000000000000D+00
173  1.7200000000000D+00  0.0000000000000D+00  0.0000000000000D+00
174  1.7300000000000D+00  0.0000000000000D+00  0.0000000000000D+00
175  1.7400000000000D+00  0.0000000000000D+00  0.0000000000000D+00
176  1.7500000000000D+00  0.0000000000000D+00  0.0000000000000D+00
177  1.7600000000000D+00  0.0000000000000D+00  0.0000000000000D+00
178  1.7700000000000D+00  0.0000000000000D+00  0.0000000000000D+00
179  1.7800000000000D+00  0.0000000000000D+00  0.0000000000000D+00
180  1.7900000000000D+00  0.0000000000000D+00  0.0000000000000D+00
181  1.8000000000000D+00  0.0000000000000D+00  0.0000000000000D+00
182  1.8100000000000D+00  0.0000000000000D+00  0.0000000000000D+00
183  1.8200000000000D+00  0.0000000000000D+00  0.0000000000000D+00
184  1.8300000000000D+00  0.0000000000000D+00  0.0000000000000D+00
185  1.8400000000000D+00  0.0000000000000D+00  0.0000000000000D+00
186  1.8500000000000D+00  0.0000000000000D+00  0.0000000000000D+00
187  1.8600000000000D+00  0.0000000000000D+00  0.0000000000000D+00
188  1.8700000000000D+00  0.0000000000000D+00  0.0000000000000D+00
189  1.8800000000000D+00  0.0000000000000D+00  0.0000000000000D+00
190  1.8900000000000D+00  0.0000000000000D+00  0.0000000000000D+00
191  1.9000000000000D+00  0.0000000000000D+00  0.0000000000000D+00
192  1.9100000000000D+00  0.0000000000000D+00  0.0000000000000D+00
193  1.9200000000000D+00  0.0000000000000D+00  0.0000000000000D+00
194  1.9300000000000D+00  0.0000000000000D+00  0.0000000000000D+00
195  1.9400000000000D+00  0.0000000000000D+00  0.0000000000000D+00
196  1.9500000000000D+00  0.0000000000000D+00  0.0000000000000D+00
197  1.9600000000000D+00  0.0000000000000D+00  0.0000000000000D+00
198  1.9700000000000D+00  0.0000000000000D+00  0.0000000000000D+00
199  1.9800000000000D+00  0.0000000000000D+00  0.0000000000000D+00
200  1.9900000000000D+00  0.0000000000000D+00  0.0000000000000D+00
201  2.0000000000000D+00  0.0000000000000D+00  0.0000000000000D+00
202  2.0100000000000D+00  0.0000000000000D+00  0.0000000000000D+00
203  2.0200000000000D+00  0.0000000000000D+00  0.0000000000000D+00
204  2.0300000000000D+00  0.0000000000000D+00  0.0000000000000D+00
205  2.0400000000000D+00  0.0000000000000D+00  0.0000000000000D+00
206  2.0500000000000D+00  0.0000000000000D+00  0.0000000000000D+00
207  2.0600000000000D+00  0.0000000000000D+00  0.0000000000000D+00
208  2.0700000000000D+00  0.0000000000000D+00  0.0000000000000D+00
209  2.0800000000000D+00  0.0000000000000D+00  0.0000000000000D+00
210  2.0900000000000D+00  0.0000000000000D+00  0.0000000000000D+00
211  2.1000000000000D+00  0.0000000000000D+00  0.0000000000000D+00
212  2.1100000000000D+00  0.0000000000000D+00  0.0000000000000D+00
213  2.1200000000000D+00  0.0000000000000D+00  0.0000000000000D+00
214  2.1300000000000D+00  0.0000000000000D+00  0.0000000000000D+00
215  2.1400000000000D+00  0.0000000000000D+00  0.0000000000000D+00
216  2.1500000000000D+00  0.0000000000000D+00  0.0000000000000D+00
217  2.1600000000000D+00  0.0000000000000D+00  0.0000000000000D+00
218  2.1700000000000D+00  0.0000000000000D+00  0.0000000000000D+00
219  2.1800000000000D+00  0.0000000000000D+00  0.0000000000000D+00
220  2.1900000000000D+00  0.0000000000000D+00  0.0000000000000D+00
221  2.2000000000000D+00  0.0000000000000D+00  0.0000000000000D+00
222  2.2100000000000D+00  0.0000000000000D+00  0.0000000000000D+00
223  2.2200000000000D+00  0.0000000000000D+00  0.0000000000000D+00
224  2.2300000000000D+00  0.0000000000000D+00  0.0000000000000D+00
225  2.2400000000000D+00  0.0000000000000D+00  0.0000000000000D+00
226  2.2500000000000D+00  0.0000000000000D+00  0.0000000000000D+00
227  2.2600000000000D+00  0.0000000000000D+00  0.0000000000000D+00
228  2.2700000000000D+00  0.0000000000000D+00  0.0000000000000D+00
229  2.2800000000000D+00  0.0000000000000D+00  0.0000000000000D+00
230  2.2900000000000D+00  0.0000000000000D+00  0.0000000000000D+00
231  2.3000000000000D+00  0.0000000000000D+00  0.0000000000000D+00
232  2.3100000000000D+00  0.0000000000000D+00  0.0000000000000D+00
233  2.3200000000000D+00  0.0000000000000D+00  0.0000000000000D+00
234  2.3300000000000D+00  0.0000000000000D+00  0.0000000000000D+00
235  2.3400000000000D+00  0.0000000000000D+00  0.0000000000000D+00
236  2.3500000000000D+00  0.0000000000000D+00  0.0000000000000D+00
237  2.3600000000000D+00  0.0000000000000D+00  0.0000000000000D+00
238  2.3700000000000D+00  0.0000000000000D+00  0.0000000000000D+00
239  2.3800000000000D+00  0.0000000000000D+00  0.0000000000000D+00
240  2.3900000000000D+00  0.0000000000000D+00  0.0000000000000D+00
241  2.4000000000000D+00  0.0000000000000D+00  0.0000000000000D+00
242  2.4100000000000D+00  0.0000000000000D+00  0.0000000000000D+00
243  2.4200000000000D+00  0.0000000000000D+00  0.0000000000000D+00
244  2.4300000000000D+00  0.0000000000000D+00  0.0000000000000D+00
245  2.4400000000000D+00  0.0000000000000D+00  0.0000000000000D+00
246  2.4500000000000D+00  0.0000000000000D+00  0.0000000000000D+00
247  2.4600000000000D+00  0.0000000000000D+00  0.0000000000000D+00
248  2.4700000000000D+00  0.0000000000000D+00  0.0000000000000D+00
249  2.4800000000000D+00  0.0000000000000D+00  0.0000000000000D+00
250  2.4900000000000D+00  0.0000000000000D+00  0.0000000000000D+00
251  2.5000000000000D+00  0.0000000000000D+00  0.0000000000000D+00
252  2.5100000000000D+00  0.0000000000000D+00  0.0000000000000D+00
253  2.5200000000000D+00  0.0000000000000D+00  0.0000000000000D+00
254  2.5300000000000D+00  0.0000000000000D+00  0.0000000000000D+00
255  2.5400000000000D+00  0.0000000000000D+00  0.0000000000000D+00
256  2.5500000000000D+00  0.0000000000000D+00  0.0000000000000D+00
257  2.5600000000000D+00  0.0000000000000D+00  0.0000000000000D+00
258  2.5700000000000D+00  0.0000000000000D+00  0.0000000000000D+00
259  2.5800000000000D+00  0.0000000000000D+00  0.0000000000000D+00
260  2.5900000000000D+00  0.0000000000000D+00  0.0000000000000D+00
261  2.6000000000000D+00  0.0000000000000D+00  0.0000000000000D+00
262  2.6100000000000D+00  0.0000000000000D+00  0.0000000000000D+00
263  2.6200000000000D+00  0.0000000000000D+00  0.0000000000000D+00
264  2.6300000000000D+00  0.0000000000000D+00  0.0000000000000D+00
265  2.6400000000000D+00  0.0000000000000D+00  0.0000000000000D+00
266  2.6500000000000D+00  0.0000000000000D+00  0.0000000000000D+00
267  2.6600000000000D+00  0.0000000000000D+00  0.0000000000000D+00
268  2.6700000000000D+00  0.0000000000000D+00  0.0000000000000D+00
269  2.6800000000000D+00  0.0000000000000D+00  0.0000000000000D+00
270  2.6900000000000D+00  0.0000000000000D+00  0.0000000000000D+00
271  2.7000000000000D+00  0.0000000000000D+00  0.0000000000000D+00
272  2.7100000000000D+00  0.0000000000000D+00  0.0000000000000D+00
273  2.7200000000000D+00  0.0000000000000D+00  0.0000000000000D+00
274  2.7300000000000D+00  0.0000000000000D+00  0.0000000000000D+00
275  2.7400000000000D+00  0.0000000000000D+00  0.0000000000000D+00
276  2.7500000000000D+00  0.0000000000000D+00  0.0000000000000D+00
277  2.7600000000000D+00  0.0000000000000D+00  0.0000000000000D+00
278  2.7700000000000D+00  0.0000000000000D+00  0.0000000000000D+00
279  2.7800000000000D+00  0.0000000000000D+00  0.0000000000000D+00
280  2.7900000000000D+00  0.0000000000000D+00  0.0000000000000D+00
281  2.8000000000000D+00  0.0000000000000D+00  0.0000000000000D+00
282  2.8100000000000D+00  0.0000000000000D+00  0.0000000000000D+00
283  2.8200000000000D+00  0.0000000000000D+00  0.0000000000000D+00
284  2.8300000000000D+00  0.0000000000000D+00  0.0000000000000D+00
285  2.8400000000000D+00  0.0000000000000D+00  0.0000000000000D+00
286  2.8500000000000D+00  0.0000000000000D+00  0.0000000000000D+00
287  2.8600000000000D+00  0.0000000000000D+00  0.0000000000000D+00
288  2.8700000000000D+00  0.0000000000000D+00  0.0000000000000D+00
289  2.8800000000000D+00  0.0000000000000D+00  0.0000000000000D+00
290  2.8900000000000D+00  0.0000000000000D+00  0.0000000000000D+00
291  2.9000000000000D+00  0.0000000000000D+00  0.0000000000000D+00
292  2.9100000000000D+00  0.0000000000000D+00  0.0000000000000D+00
293  2.9200000000000D+00  0.0000000000000D+00  0.0000000000000D+00
294  2.9300000000000D+00  0.0000000000000D+00  0.0000000000000D+00
295  2.9400000000000D+00  0.0000000000000D+00  0.0000000000000D+00
296  2.9500000000000D+00  0.0000000000000D+00  0.0000000000000D+00
297  2.9600000000000D+00  0.0000000000000D+00  0.0000000000000D+00
298  2.9700000000000D+00  0.0000000000000D+00  0.0000000000000D+00
299  2.9800000000000D+00  0.0000000000000D+00  0.0000000000000D+00
300  2.9900000000000D+00  0.0000000000000D+00  0.0000000000000D+00
301  3.0000000000000D+00  0.0000000000000D+00  0.0000000000000D+00
302  3.0100000000000D+00  0.0000000000000D+00  0.0000000000000D+00
303  3.0200000000000D+00  0.0000000000000D+00  0.0000000000000D+00
304  3.0300000000000D+00  0.0000000000000D+00  0.0000000000000D+00
305  3.0400000000000D+00  0.0000000000000D+00  0.0000000000000D+00
306  3.0500000000000D+00  0.0000000000000D+00  0.0000000000000D+00
307  3.0600000000000D+00  0.0000000000000D+00  0.0000000000000D+00
308  3.0700000000000D+00  0.0000000000000D+00  0.0000000000000D+00
309  3.0800000000000D+00  0.0000000000000D+00  0.0000000000000D+00
310  3.0900000000000D+00  0.0000000000000D+00  0.0000000000000D+00
311  3.1000000000000D+00  0.0000000000000D+00  0.0000000000000D+00
312  3.1100000000000D+00  0.0000000000000D+00  0.0000000000000D+00
313  3.1200000000000D+00  0.0000000000000D+00  0.0000000000000D+00
314  3.1300000000000D+00  0.0000000000000D+00  0.0000000000000D+00
315  3.1400000000000D+00  0.0000000000000D+00  0.0000000000000D+00
316  3.1500000000000D+00  0.0000000000000D+00  0.0000000000000D+00
317  3.1600000000000D+00  0.0000000000000D+00  0.0000000000000D+00
318  3.1700000000000D+00  0.0000000000000D+00  0.0000000000000D+00
319  3.1800000000000D+00  0.0000000000000D+00  0.0000000000000D+00
320  3.1900000000000D+00  0.0000000000000D+00  0.0000000000000D+00
321  3.2000000000000D+00  0.0000000000000D+00  0.0000000000000D+00
322  3.2100000000000D+00  0.0000000000000D+00  0.0000000000000D+00
323  3.2200000000000D+00  0.0000000000000D+00  0.0000000000000D+00
324  3.2300000000000D+00  0.0000000000000D+00  0.0000000000000D+00
325  3.2400000000000D+00  0.0000000000000D+00  0.0000000000000D+00
326  3.2500000000000D+00  0.0000000000000D+00  0.0000000000000D+00
327  3.2600000000000D+00  0.0000000000000D+00  0.0000000000000D+00
328  3.2700000000000D+00  0.0000000000000D+00  0.0000000000000D+00
329  3.2800000000000D+00  0.0000000000000D+00  0.0000000000000D+00
330  3.2900000000000D+00  0.0000000000000D+00  0.0000000000000D+00
331  3.3000000000000D+00  0.0000000000000D+00  0.0000000000000D+00
332  3.3100000000000D+00  0.0000000000000D+00  0.0000000000000D+00
333  3.3200000000000D+00  0.0000000000000D+00  0.0000000000000D+00
334  3.3300000000000D+00  0.0000000000000D+00  0.0000000000000D+00
335  3.3400000000000D+00  0.0000000000000D+00  0.0000000000000D+00
336  3.3500000000000D+00  0.0000000000000D+00  0.0000000000000D+00
337  3.3600000000000D+00  0.0000000000000D+00  0.0000000000000D+00
338  3.3700000000000D+00  0.0000000000000D+00  0.0000000000000D+00
339  3.3800000000000D+00  0.0000000000000D+00  0.0000000000000D+00
340  3.3900000000000D+00  0.0000000000000D+00  0.0000000000000D+00
341  3.4000000000000D+00  0.0000000000000D+00  0.0000000000000D+00
342  3.4100000000000D+00  0.0000000000000D+00  0.0000000000000D+00
343  3.4200000000000D+00  0.0000000000000D+00  0.0000000000000D+00
344  3.4300000000000D+00  0.0000000000000D+00  0.0000000000000D+00
345  3.4400000000000D+00  0.0000000000000D+00  0.0000000000000D+00
346  3.4500000000000D+00  0.0000000000000D+00  0.0000000000000D+00
347  3.4600000000000D+00  0.0000000000000D+00  0.0000000000000D+00
348  3.4700000000000D+00  0.0000000000000D+00  0.0000000000000D+00
349  3.4800000000000D+00  0.0000000000000D+00  0.0000000000000D+00
350  3.4900000000000D+00  0.0000000000000D+00  0.0000000000000D+00
351  3.5000000000000D+00  0.0000000000000D+00  0.0000000000000D+00
352  3.5100000000000D+00  0.0000000000000D+00  0.0000000000000D+00
353  3.5200000000000D+00  0.0000000000000D+00  0.0000000000000D+00
354  3.5300000000000D+00  0.0000000000000D+00  0.0000000000000D+00
355  3.5400000000000D+00  0.0000000000000D+00  0.0000000000000D+00
356  3.5500000000000D+00  0.0000000000000D+00  0.0000000000000D+00
357  3.5600000000000D+00  0.0000000000000D+00  0.0000000000000D+00
358  3.5700000000000D+00  0.0000000000000D+00  0.0000000000000D+00
359  3.5800000000000D+00  0.0000000000000D+00  0.0000000000000D+00
360  3.5900000000000D+00  0.0000000000000D+00  0.0000000000000D+00
361  3.6000000000000D+00  0.0000000000000D+00  0.0000000000000D+00
362  3.6100000000000D+00  0.0000000000000D+00  0.0000000000000D+00
363  3.6200000000000D+00  0.0000000000000D+00  0.0000000000000D+00
364  3.6300000000000D+00  0.0000000000000D+00  0.0000000000000D+00
365  3.6400000000000D+00  0.0000000000000D+00  0.0000000000000D+00
366  3.6500000000000D+00  0.0000000000000D+00  0.0000000000000D+00
367  3.6600000000000D+00  0.0000000000000D+00  0.0000000000000D+00
368  3.6700000000000D+00  0.0000000000000D+00  0.0000000000000D+00
369  3.6800000000000D+00  0.0000000000000D+00  0.0000000000000D+00
370  3.6900000000000D+00  0.0000000000000D+00  0.0000000000000D+00
371  3.7000000000000D+00  0.0000000000000D+00  0.0000000000000D+00
372  3.7100000000000D+00  0.0000000000000D+00  0.0000000000000D+00
373  3.7200000000000D+00  0.0000000000000D+00  0.0000000000000D+00
374  3.7300000000000D+00  0.0000000000000D+00  0.0000000000000D+00
375  3.7400000000000D+00  0.0000000000000D+00  0.0000000000000D+00
376  3.7500000000000D+00  0.0000000000000D+00  0.0000000000000D+00
377  3.7600000000000D+00  0.0000000000000D+00  0.0000000000000D+00
378  3.7700000000000D+00  0.0000000000000D+00  0.0000000000000D+00
379  3.7800000000000D+00  0.0000000000000D+00  0.0000000000000D+00
380  3.7900000000000D+00  0.0000000000000D+00  0.0000000000000D+00
381  3.8000000000000D+00  0.0000000000000D+00  0.0000000000000D+00
382  3.8100000000000D+00  0.0000000000000D+00  0.0000000000000D+00
383  3.8200000000000D+00  0.0000000000000D+00  0.0000000000000D+00
384  3.8300000000000D+00  0.0000000000000D+00  0.0000000000000D+00
385  3.8400000000000D+00  0.0000000000000D+00  0.0000000000000D+00
386  3.8500000000000D+00  0.0000000000000D+00  0.0000000000000D+00
387  3.8600000000000D+00  0.0000000000000D+00  0.0000000000000D+00
388  3.8700000000000D+00  0.0000000000000D+00  0.0000000000000D+00
389  3.8800000000000D+00  0.0000000000000D+00  0.0000000000000D+00
390  3.8900000000000D+00  0.0000000000000D+00  0.0000000000000D+00
391  3.9000000000000D+00  0.0000000000000D+00  0.0000000000000D+00
392  3.9100000000000D+00  0.0000000000000D+00  0.0000000000000D+00
393  3.9200000000000D+00  0.0000000000000D+00  0.0000000000000D+00
394  3.9300000000000D+00  0.0000000000000D+00  0.0000000000000D+00
395  3.9400000000000D+00  0.0000000000000D+00  0.0000000000000D+00
396  3.9500000000000D+00  0.0000000000000D+00  0.0000000000000D+00
397  3.9600000000000D+00  0.0000000000000D+00  0.0000000000000D+00
398  3.9700000000000D+00  0.0000000000000D+00  0.0000000000000D+00
399  3.9800000000000D+00  0.0000000000000D+00  0.0000000000000D+00
400  3.9900000000000D+00  0.0000000000000D+00  0.0000000000000D+00
1                        -9.4592487904064D+00 -1.0957226360504D+00
1  0.0000000000000D+00 -2.8367828378006D-07  1.0961769031370D-07
2  1.0000000000000D-02 -2.1956873936314D-03  3.1109351836141D-03
3  2.0000000000000D-02 -8.6091703908812D-03  1.2365428475141D-02
4  3.0000000000000D-02 -1.8725765352688D-02  2.7530933709614D-02
5  4.0000000000000D-02 -3.1707663448513D-02  4.8227772302791D-02
6  5.0000000000000D-02 -4.6423293126486D-02  7.3940736568233D-02
7  6.0000000000000D-02 -6.1487179606751D-02  1.0403485311369D-01
8  7.0000000000000D-02 -7.5309096758138D-02  1.3777484164149D-01
9  8.0000000000000D-02 -8.6151023040022D-02  1.7434769485999D-01
10  9.0000000000000D-02 -9.2190172516187D-02  2.1288771205074D-01
11  1.0000000000000D-01 -9.1586181266942D-02  2.5250324481066D-01
12  1.1000000000000D-01 -8.2550394414572D-02  2.9230436073967D-01
13  1.2000000000000D-01 -6.3415123427591D-02  3.3143060091161D-01
14  1.3000000000000D-01 -3.2700729678042D-02  3.6907800074139D-01
15  1.4000000000000D-01  1.0821561072934D-02  4.0452456156474D-01
16  1.5000000000000D-01  6.8073098734978D-02  4.3715340142160D-01
17  1.6000000000000D-01  1.3961932095843D-01  4.6647287705570D-01
18  1.7000000000000D-01  2.2563093315813D-01  4.9213305325417D-01
19  1.8000000000000D-01  3.2585608358988D-01  5.1393799800723D-01
20  1.9000000000000D-01  4.3960455194524D-01  5.3185349970577D-01
21  2.0000000000000D-01  5.6574463019815D-01  5.4600993241128D-01
22  2.1000000000000D-01  7.0271301319299D-01  5.5670013347593D-01
23  2.2000000000000D-01  8.4853764392440D-01  5.6437230056811D-01
24  2.3000000000000D-01  1.0008730851893D+00  5.6961805843840D-01
25  2.4000000000000D-01  1.1570476258911D+00  5.7315598549370D-01
26  2.5000000000000D-01  1.3141209870972D+00  5.7581102247200D-01
27  2.6000000000000D-01  1.4689511797951D+00  5.7849030647380D-01
28  2.7000000000000D-01  1.6182687921264D+00  5.8215607986264D-01
29  2.8000000000000D-01  1.7587567566030D+00  5.8779641205781D-01
30  2.9000000000000D-01  1.8871334740112D+00  5.9639454046289D-01
31  3.0000000000000D-01  2.0002370554717D+00  6.0889768272233D-01
32  3.1000000000000D-01  2.0951083909226D+00  6.2618619481546D-01
33  3.2000000000000D-01  2.1690707628222D+00  6.4904394748407D-01
34  3.3000000000000D-01  2.2198037980789D+00  6.7813076712370D-01
35  3.4000000000000D-01  2.2454096872291D+00  7.1395773721383D-01
36  3.5000000000000D-01  2.2444697941128D+00  7.5686608394123D-01
37  3.6000000000000D-01  2.2160900264971D+00  8.0701027683247D-01
38  3.7000000000000D-01  2.1599336315308D+00  8.6434586448763D-01
39  3.8000000000000D-01  2.0762404115502D+00  9.2862243991181D-01
40  3.9000000000000D-01  1.9658317164729D+00  9.9938199292519D-01
41  4.0000000000000D-01  1.8301009488378D+00  1.0759627624682D+00
42  4.1000000000000D-01  1.6709897060339D+00  1.1575085532674D+00
43  4.2000000000000D-01  1.4909500706013D+00  1.2429833334037D+00