<?xml version="1.0" encoding="UTF-8" ?>
<psml version="1.0" energy_unit="hartree" length_unit="bohr"
 uuid="efd39de0-2456-11e7-62bb-6350f94fabb9">
<provenance creator="ONCVPSP-3.2.3+psml-51" date="2017-04-18">
<input-file name="oncvpsp-input">
<![CDATA[# atsym z nc nv iexc psfile
Li 3 0 2 4 psp8
# n l f
1 0 2.0
2 0 1.0
# lmax
1
# l rc ep ncon nbas qcut
0 1.4 0.0 4 8 8.6
1 1.1 0.0 4 8 9.0
# lloc lpopt rc5 dvloc0
4 5 1.1 0.0
# l nproj debl
0 2 1.0
1 2 1.0
# icmod fcfact
0 0.25
# epsh1 epsh2 depsh
-12.0 12.0 0.02
# rlmax drl
4.0 0.01
 0
]]>
</input-file>
</provenance>
<header atomic-label="Li" atomic-number="3" z-pseudo="3"
 flavor="Hamann&apos;s oncvpsp" relativity="scalar" polarized="no"
 core-corrections="no">
<exchange-correlation>
<annotation oncvpsp-xc-code="4" oncvpsp-xc-type="GGA -- Perdew-Burke-Ernzerhof" />
<libxc-info number-of-functionals="2">
<functional name="Perdew, Burke &amp; Ernzerhof (GGA)" type="exchange" id="101" />
<functional name="Perdew, Burke &amp; Ernzerhof (GGA)" type="correlation"
 id="130" />
</libxc-info>
</exchange-correlation>
<valence-configuration total-valence-charge="3">
<shell n="1" l="s" occupation="2" />
<shell n="2" l="s" occupation="1" />
</valence-configuration>
</header>
<grid npts="400">
<annotation type="linear with r=0" oncvpsp-nrl="400"
 oncvpsp-drl="0.100000000000E-01" />
<grid-data>
  0.000000000000E+00  1.000000000000E-02  2.000000000000E-02  3.000000000000E-02
  4.000000000000E-02  5.000000000000E-02  6.000000000000E-02  7.000000000000E-02
  8.000000000000E-02  9.000000000000E-02  1.000000000000E-01  1.100000000000E-01
  1.200000000000E-01  1.300000000000E-01  1.400000000000E-01  1.500000000000E-01
  1.600000000000E-01  1.700000000000E-01  1.800000000000E-01  1.900000000000E-01
  2.000000000000E-01  2.100000000000E-01  2.200000000000E-01  2.300000000000E-01
  2.400000000000E-01  2.500000000000E-01  2.600000000000E-01  2.700000000000E-01
  2.800000000000E-01  2.900000000000E-01  3.000000000000E-01  3.100000000000E-01
  3.200000000000E-01  3.300000000000E-01  3.400000000000E-01  3.500000000000E-01
  3.600000000000E-01  3.700000000000E-01  3.800000000000E-01  3.900000000000E-01
  4.000000000000E-01  4.100000000000E-01  4.200000000000E-01  4.300000000000E-01
  4.400000000000E-01  4.500000000000E-01  4.600000000000E-01  4.700000000000E-01
  4.800000000000E-01  4.900000000000E-01  5.000000000000E-01  5.100000000000E-01
  5.200000000000E-01  5.300000000000E-01  5.400000000000E-01  5.500000000000E-01
  5.600000000000E-01  5.700000000000E-01  5.800000000000E-01  5.900000000000E-01
  6.000000000000E-01  6.100000000000E-01  6.200000000000E-01  6.300000000000E-01
  6.400000000000E-01  6.500000000000E-01  6.600000000000E-01  6.700000000000E-01
  6.800000000000E-01  6.900000000000E-01  7.000000000000E-01  7.100000000000E-01
  7.200000000000E-01  7.300000000000E-01  7.400000000000E-01  7.500000000000E-01
  7.600000000000E-01  7.700000000000E-01  7.800000000000E-01  7.900000000000E-01
  8.000000000000E-01  8.100000000000E-01  8.200000000000E-01  8.300000000000E-01
  8.400000000000E-01  8.500000000000E-01  8.600000000000E-01  8.700000000000E-01
  8.800000000000E-01  8.900000000000E-01  9.000000000000E-01  9.100000000000E-01
  9.200000000000E-01  9.300000000000E-01  9.400000000000E-01  9.500000000000E-01
  9.600000000000E-01  9.700000000000E-01  9.800000000000E-01  9.900000000000E-01
  1.000000000000E+00  1.010000000000E+00  1.020000000000E+00  1.030000000000E+00
  1.040000000000E+00  1.050000000000E+00  1.060000000000E+00  1.070000000000E+00
  1.080000000000E+00  1.090000000000E+00  1.100000000000E+00  1.110000000000E+00
  1.120000000000E+00  1.130000000000E+00  1.140000000000E+00  1.150000000000E+00
  1.160000000000E+00  1.170000000000E+00  1.180000000000E+00  1.190000000000E+00
  1.200000000000E+00  1.210000000000E+00  1.220000000000E+00  1.230000000000E+00
  1.240000000000E+00  1.250000000000E+00  1.260000000000E+00  1.270000000000E+00
  1.280000000000E+00  1.290000000000E+00  1.300000000000E+00  1.310000000000E+00
  1.320000000000E+00  1.330000000000E+00  1.340000000000E+00  1.350000000000E+00
  1.360000000000E+00  1.370000000000E+00  1.380000000000E+00  1.390000000000E+00
  1.400000000000E+00  1.410000000000E+00  1.420000000000E+00  1.430000000000E+00
  1.440000000000E+00  1.450000000000E+00  1.460000000000E+00  1.470000000000E+00
  1.480000000000E+00  1.490000000000E+00  1.500000000000E+00  1.510000000000E+00
  1.520000000000E+00  1.530000000000E+00  1.540000000000E+00  1.550000000000E+00
  1.560000000000E+00  1.570000000000E+00  1.580000000000E+00  1.590000000000E+00
  1.600000000000E+00  1.610000000000E+00  1.620000000000E+00  1.630000000000E+00
  1.640000000000E+00  1.650000000000E+00  1.660000000000E+00  1.670000000000E+00
  1.680000000000E+00  1.690000000000E+00  1.700000000000E+00  1.710000000000E+00
  1.720000000000E+00  1.730000000000E+00  1.740000000000E+00  1.750000000000E+00
  1.760000000000E+00  1.770000000000E+00  1.780000000000E+00  1.790000000000E+00
  1.800000000000E+00  1.810000000000E+00  1.820000000000E+00  1.830000000000E+00
  1.840000000000E+00  1.850000000000E+00  1.860000000000E+00  1.870000000000E+00
  1.880000000000E+00  1.890000000000E+00  1.900000000000E+00  1.910000000000E+00
  1.920000000000E+00  1.930000000000E+00  1.940000000000E+00  1.950000000000E+00
  1.960000000000E+00  1.970000000000E+00  1.980000000000E+00  1.990000000000E+00
  2.000000000000E+00  2.010000000000E+00  2.020000000000E+00  2.030000000000E+00
  2.040000000000E+00  2.050000000000E+00  2.060000000000E+00  2.070000000000E+00
  2.080000000000E+00  2.090000000000E+00  2.100000000000E+00  2.110000000000E+00
  2.120000000000E+00  2.130000000000E+00  2.140000000000E+00  2.150000000000E+00
  2.160000000000E+00  2.170000000000E+00  2.180000000000E+00  2.190000000000E+00
  2.200000000000E+00  2.210000000000E+00  2.220000000000E+00  2.230000000000E+00
  2.240000000000E+00  2.250000000000E+00  2.260000000000E+00  2.270000000000E+00
  2.280000000000E+00  2.290000000000E+00  2.300000000000E+00  2.310000000000E+00
  2.320000000000E+00  2.330000000000E+00  2.340000000000E+00  2.350000000000E+00
  2.360000000000E+00  2.370000000000E+00  2.380000000000E+00  2.390000000000E+00
  2.400000000000E+00  2.410000000000E+00  2.420000000000E+00  2.430000000000E+00
  2.440000000000E+00  2.450000000000E+00  2.460000000000E+00  2.470000000000E+00
  2.480000000000E+00  2.490000000000E+00  2.500000000000E+00  2.510000000000E+00
  2.520000000000E+00  2.530000000000E+00  2.540000000000E+00  2.550000000000E+00
  2.560000000000E+00  2.570000000000E+00  2.580000000000E+00  2.590000000000E+00
  2.600000000000E+00  2.610000000000E+00  2.620000000000E+00  2.630000000000E+00
  2.640000000000E+00  2.650000000000E+00  2.660000000000E+00  2.670000000000E+00
  2.680000000000E+00  2.690000000000E+00  2.700000000000E+00  2.710000000000E+00
  2.720000000000E+00  2.730000000000E+00  2.740000000000E+00  2.750000000000E+00
  2.760000000000E+00  2.770000000000E+00  2.780000000000E+00  2.790000000000E+00
  2.800000000000E+00  2.810000000000E+00  2.820000000000E+00  2.830000000000E+00
  2.840000000000E+00  2.850000000000E+00  2.860000000000E+00  2.870000000000E+00
  2.880000000000E+00  2.890000000000E+00  2.900000000000E+00  2.910000000000E+00
  2.920000000000E+00  2.930000000000E+00  2.940000000000E+00  2.950000000000E+00
  2.960000000000E+00  2.970000000000E+00  2.980000000000E+00  2.990000000000E+00
  3.000000000000E+00  3.010000000000E+00  3.020000000000E+00  3.030000000000E+00
  3.040000000000E+00  3.050000000000E+00  3.060000000000E+00  3.070000000000E+00
  3.080000000000E+00  3.090000000000E+00  3.100000000000E+00  3.110000000000E+00
  3.120000000000E+00  3.130000000000E+00  3.140000000000E+00  3.150000000000E+00
  3.160000000000E+00  3.170000000000E+00  3.180000000000E+00  3.190000000000E+00
  3.200000000000E+00  3.210000000000E+00  3.220000000000E+00  3.230000000000E+00
  3.240000000000E+00  3.250000000000E+00  3.260000000000E+00  3.270000000000E+00
  3.280000000000E+00  3.290000000000E+00  3.300000000000E+00  3.310000000000E+00
  3.320000000000E+00  3.330000000000E+00  3.340000000000E+00  3.350000000000E+00
  3.360000000000E+00  3.370000000000E+00  3.380000000000E+00  3.390000000000E+00
  3.400000000000E+00  3.410000000000E+00  3.420000000000E+00  3.430000000000E+00
  3.440000000000E+00  3.450000000000E+00  3.460000000000E+00  3.470000000000E+00
  3.480000000000E+00  3.490000000000E+00  3.500000000000E+00  3.510000000000E+00
  3.520000000000E+00  3.530000000000E+00  3.540000000000E+00  3.550000000000E+00
  3.560000000000E+00  3.570000000000E+00  3.580000000000E+00  3.590000000000E+00
  3.600000000000E+00  3.610000000000E+00  3.620000000000E+00  3.630000000000E+00
  3.640000000000E+00  3.650000000000E+00  3.660000000000E+00  3.670000000000E+00
  3.680000000000E+00  3.690000000000E+00  3.700000000000E+00  3.710000000000E+00
  3.720000000000E+00  3.730000000000E+00  3.740000000000E+00  3.750000000000E+00
  3.760000000000E+00  3.770000000000E+00  3.780000000000E+00  3.790000000000E+00
  3.800000000000E+00  3.810000000000E+00  3.820000000000E+00  3.830000000000E+00
  3.840000000000E+00  3.850000000000E+00  3.860000000000E+00  3.870000000000E+00
  3.880000000000E+00  3.890000000000E+00  3.900000000000E+00  3.910000000000E+00
  3.920000000000E+00  3.930000000000E+00  3.940000000000E+00  3.950000000000E+00
  3.960000000000E+00  3.970000000000E+00  3.980000000000E+00  3.990000000000E+00
</grid-data>
</grid>
<semilocal-potentials set="scalar_relativistic">
<slps n="1" l="s" rc="1.40824178834" flavor="Hamann&apos;s oncvpsp">
<radfunc>
<data>
 -1.168474357909E+01 -1.168304090438E+01 -1.167793543830E+01 -1.166943483181E+01
 -1.165755167723E+01 -1.164230328409E+01 -1.162371137510E+01 -1.160180171633E+01
 -1.157660369566E+01 -1.154814986502E+01 -1.151647546226E+01 -1.148161792816E+01
 -1.144361643345E+01 -1.140251142862E+01 -1.135834422765E+01 -1.131115663430E+01
 -1.126099061732E+01 -1.120788803838E+01 -1.115189043465E+01 -1.109303885544E+01
 -1.103137375131E+01 -1.096693491207E+01 -1.089976144962E+01 -1.082989182060E+01
 -1.075736388360E+01 -1.068221498546E+01 -1.060448207144E+01 -1.052420181416E+01
 -1.044141075655E+01 -1.035614546479E+01 -1.026844268723E+01 -1.017833951626E+01
 -1.008587355021E+01 -9.991083053056E+00 -9.894007110044E+00 -9.794685777578E+00
 -9.693160226273E+00 -9.589472876150E+00 -9.483667523225E+00 -9.375789456912E+00
 -9.265885567807E+00 -9.154004445475E+00 -9.040196465992E+00 -8.924513869038E+00
 -8.807010824395E+00 -8.687743487795E+00 -8.566770046143E+00 -8.444150752271E+00
 -8.319947949532E+00 -8.194226086775E+00 -8.067051724511E+00 -7.938493533405E+00
 -7.808622286680E+00 -7.677510848381E+00 -7.545234160080E+00 -7.411869228971E+00
 -7.277495120930E+00 -7.142192962445E+00 -7.006045955708E+00 -6.869139411279E+00
 -6.731560802648E+00 -6.593399846682E+00 -6.454748613230E+00 -6.315701666169E+00
 -6.176356236764E+00 -6.036812428577E+00 -5.897173451191E+00 -5.757545877967E+00
 -5.618039920893E+00 -5.478769713553E+00 -5.339853591445E+00 -5.201414357391E+00
 -5.063579518836E+00 -4.926481483341E+00 -4.790257698798E+00 -4.655050725602E+00
 -4.521008229336E+00 -4.388282884362E+00 -4.257032180824E+00 -4.127418130056E+00
 -3.999606865903E+00 -3.873768142013E+00 -3.750074727588E+00 -3.628701706238E+00
 -3.509825684528E+00 -3.393623918303E+00 -3.280273366116E+00 -3.169949679874E+00
 -3.062826143356E+00 -2.959072569430E+00 -2.858854166787E+00 -2.762330386806E+00
 -2.669653760786E+00 -2.580968737431E+00 -2.496410529965E+00 -2.416103981905E+00
 -2.340162460062E+00 -2.268686783058E+00 -2.201764193349E+00 -2.139467380531E+00
 -2.081853563537E+00 -2.028963639185E+00 -1.980821404394E+00 -1.937432859221E+00
 -1.898785597675E+00 -1.864848292997E+00 -1.835570283719E+00 -1.810881266400E+00
 -1.790691100327E+00 -1.774889728803E+00 -1.763347220928E+00 -1.755913936783E+00
 -1.752420818019E+00 -1.752679804726E+00 -1.756484378525E+00 -1.763610230466E+00
 -1.773816051320E+00 -1.786844440639E+00 -1.802422930256E+00 -1.820265116413E+00
 -1.840071894206E+00 -1.861532787251E+00 -1.884327364880E+00 -1.908126738677E+00
 -1.932595130222E+00 -1.957391501616E+00 -1.982171240652E+00 -2.006587893339E+00
 -2.030294936137E+00 -2.052947582015E+00 -2.074204615688E+00 -2.093730252819E+00
 -2.111196021710E+00 -2.126282668167E+00 -2.138682072867E+00 -2.148099162598E+00
 -2.154251005138E+00 -2.156871518643E+00 -2.155808791015E+00 -2.150645714202E+00
 -2.140997084947E+00 -2.127852345921E+00 -2.112900403056E+00 -2.097816107706E+00
 -2.083301915530E+00 -2.068989600510E+00 -2.054799252096E+00 -2.040820934065E+00
 -2.027031808792E+00 -2.013427620135E+00 -2.000004846937E+00 -1.986759934263E+00
 -1.973689352547E+00 -1.960789686338E+00 -1.948057614968E+00 -1.935489899598E+00
 -1.923083383636E+00 -1.910834990006E+00 -1.898741717993E+00 -1.886800640482E+00
 -1.875008901237E+00 -1.863363712291E+00 -1.851862351458E+00 -1.840502159997E+00
 -1.829280540442E+00 -1.818194954645E+00 -1.807242922031E+00 -1.796422018139E+00
 -1.785729873401E+00 -1.775164172256E+00 -1.764722652503E+00 -1.754403104973E+00
 -1.744203373387E+00 -1.734121354409E+00 -1.724154997780E+00 -1.714302306374E+00
 -1.704561336169E+00 -1.694930195822E+00 -1.685407045867E+00 -1.675990097410E+00
 -1.666677610014E+00 -1.657467889364E+00 -1.648359283891E+00 -1.639350181511E+00
 -1.630439005914E+00 -1.621624212849E+00 -1.612904287223E+00 -1.604277740044E+00
 -1.595743106698E+00 -1.587298945582E+00 -1.578943837434E+00 -1.570676385470E+00
 -1.562495215693E+00 -1.554398977457E+00 -1.546386344432E+00 -1.538456014964E+00
 -1.530606712824E+00 -1.522837187433E+00 -1.515146213941E+00 -1.507532593213E+00
 -1.499995151453E+00 -1.492532739809E+00 -1.485144233822E+00 -1.477828532782E+00
 -1.470584559060E+00 -1.463411257435E+00 -1.456307594353E+00 -1.449272557293E+00
 -1.442305154071E+00 -1.435404412222E+00 -1.428569378402E+00 -1.421799117809E+00
 -1.415092713652E+00 -1.408449266643E+00 -1.401867894514E+00 -1.395347731568E+00
 -1.388887928245E+00 -1.382487650715E+00 -1.376146080487E+00 -1.369862414039E+00
 -1.363635862455E+00 -1.357465651090E+00 -1.351351019232E+00 -1.345291219787E+00
 -1.339285518973E+00 -1.333333196018E+00 -1.327433542871E+00 -1.321585863927E+00
 -1.315789475747E+00 -1.310043706800E+00 -1.304347897204E+00 -1.298701398470E+00
 -1.293103573268E+00 -1.287553795179E+00 -1.282051448472E+00 -1.276595927873E+00
 -1.271186638348E+00 -1.265822994887E+00 -1.260504422295E+00 -1.255230354990E+00
 -1.250000236800E+00 -1.244813520773E+00 -1.239669668986E+00 -1.234568152360E+00
 -1.229508450479E+00 -1.224490051416E+00 -1.219512451560E+00 -1.214575155449E+00
 -1.209677675603E+00 -1.204819532371E+00 -1.200000253769E+00 -1.195219375329E+00
 -1.190476439953E+00 -1.185770997765E+00 -1.181102605969E+00 -1.176470828713E+00
 -1.171875236950E+00 -1.167315408312E+00 -1.162790926972E+00 -1.158301383526E+00
 -1.153846374865E+00 -1.149425504057E+00 -1.145038380227E+00 -1.140684618444E+00
 -1.136363839608E+00 -1.132075670339E+00 -1.127819742872E+00 -1.123595694950E+00
 -1.119403169720E+00 -1.115241815637E+00 -1.111111286361E+00 -1.107011240666E+00
 -1.102941342341E+00 -1.098901260101E+00 -1.094890667496E+00 -1.090909242827E+00
 -1.086956669053E+00 -1.083032633712E+00 -1.079136828839E+00 -1.075268950882E+00
 -1.071428700625E+00 -1.067615783114E+00 -1.063829907575E+00 -1.060070787344E+00
 -1.056338139797E+00 -1.052631686273E+00 -1.048951152012E+00 -1.045296266079E+00
 -1.041666761305E+00 -1.038062374218E+00 -1.034482844979E+00 -1.030927917322E+00
 -1.027397338489E+00 -1.023890859176E+00 -1.020408233469E+00 -1.016949218787E+00
 -1.013513575830E+00 -1.010101068519E+00 -1.006711463943E+00 -1.003344532309E+00
 -1.000000046888E+00 -9.966777839607E-01 -9.933775227746E-01 -9.900990454896E-01
 -9.868421371323E-01 -9.836065855489E-01 -9.803921813583E-01 -9.771987179080E-01
 -9.740259912290E-01 -9.708737999930E-01 -9.677419454692E-01 -9.646302314829E-01
 -9.615384643747E-01 -9.584664529600E-01 -9.554140084894E-01 -9.523809446108E-01
 -9.493670773307E-01 -9.463722249775E-01 -9.433962081647E-01 -9.404388497552E-01
 -9.374999748262E-01 -9.345794106345E-01 -9.316769865831E-01 -9.287925341873E-01
 -9.259258870428E-01 -9.230768807932E-01 -9.202453530989E-01 -9.174311436061E-01
 -9.146340939165E-01 -9.118540475577E-01 -9.090908499540E-01 -9.063443483975E-01
 -9.036143920206E-01 -9.009008317675E-01 -8.982035203677E-01 -8.955223123093E-01
 -8.928570638127E-01 -8.902076328047E-01 -8.875738788936E-01 -8.849556633443E-01
 -8.823528490538E-01 -8.797653005276E-01 -8.771928838555E-01 -8.746354666895E-01
 -8.720929182202E-01 -8.695651091550E-01 -8.670519116959E-01 -8.645531995184E-01
 -8.620688477496E-01 -8.595987329481E-01 -8.571427330832E-01 -8.547007275150E-01
 -8.522725969745E-01 -8.498582235439E-01 -8.474574906383E-01 -8.450702829861E-01
 -8.426964866110E-01 -8.403359888139E-01 -8.379886781548E-01 -8.356544444353E-01
 -8.333331786816E-01 -8.310247731273E-01 -8.287291211969E-01 -8.264461174891E-01
 -8.241756577611E-01 -8.219176389123E-01 -8.196719589691E-01 -8.174385170691E-01
 -8.152172134464E-01 -8.130079494166E-01 -8.108106273621E-01 -8.086251507178E-01
 -8.064514239568E-01 -8.042893525770E-01 -8.021388430866E-01 -7.999998029914E-01
 -7.978721407809E-01 -7.957557659157E-01 -7.936505888145E-01 -7.915565208414E-01
 -7.894734742935E-01 -7.874013623886E-01 -7.853400992535E-01 -7.832895999115E-01
 -7.812497802712E-01 -7.792205571149E-01 -7.772018480874E-01 -7.751935716844E-01
 -7.731956472421E-01 -7.712079949260E-01 -7.692305357205E-01 -7.672631914182E-01
 -7.653058846101E-01 -7.633585386745E-01 -7.614210777680E-01 -7.594934268152E-01
 -7.575755114988E-01 -7.556672582504E-01 -7.537685942411E-01 -7.518794473720E-01
</data>
</radfunc>
</slps>
<slps n="2" l="p" rc="1.10934588670" flavor="Hamann&apos;s oncvpsp">
<radfunc>
<data>
 -9.429086094480E+00 -9.426980568522E+00 -9.420671301629E+00 -9.410180168969E+00
 -9.395543325319E+00 -9.376810768622E+00 -9.354045740720E+00 -9.327323983321E+00
 -9.296732867228E+00 -9.262370415089E+00 -9.224344239071E+00 -9.182770415364E+00
 -9.137772317022E+00 -9.089479425740E+00 -9.038026141556E+00 -8.983550607653E+00
 -8.926193565405E+00 -8.866097252715E+00 -8.803404356453E+00 -8.738257028154E+00
 -8.670795970127E+00 -8.601159597819E+00 -8.529483282861E+00 -8.455898680226E+00
 -8.380533141962E+00 -8.303509219361E+00 -8.224944254552E+00 -8.144950062170E+00
 -8.063632701007E+00 -7.981092335112E+00 -7.897423183130E+00 -7.812713554103E+00
 -7.727045967211E+00 -7.640497352224E+00 -7.553139326623E+00 -7.465038544518E+00
 -7.376257111625E+00 -7.286853059702E+00 -7.196880872991E+00 -7.106392058368E+00
 -7.015435750167E+00 -6.924059339912E+00 -6.832309120640E+00 -6.740230934985E+00
 -6.647870815896E+00 -6.555275608670E+00 -6.462493563010E+00 -6.369574884011E+00
 -6.276572231418E+00 -6.183541157117E+00 -6.090540471733E+00 -5.997632532279E+00
 -5.904883444170E+00 -5.812363172422E+00 -5.720145558651E+00 -5.628308242292E+00
 -5.536932486539E+00 -5.446102911438E+00 -5.355907138643E+00 -5.266435354203E+00
 -5.177779797409E+00 -5.090034185243E+00 -5.003293082979E+00 -4.917651232237E+00
 -4.833202848064E+00 -4.750040896474E+00 -4.668256363391E+00 -4.587937525041E+00
 -4.509169228846E+00 -4.432032192574E+00 -4.356602328345E+00 -4.282950096929E+00
 -4.211139896849E+00 -4.141229492138E+00 -4.073269482215E+00 -4.007302817311E+00
 -3.943364363085E+00 -3.881480518506E+00 -3.821668891643E+00 -3.763938038580E+00
 -3.708287271208E+00 -3.654706539950E+00 -3.603176397570E+00 -3.553668049966E+00
 -3.506143499253E+00 -3.460555783473E+00 -3.416849315985E+00 -3.374960325978E+00
 -3.334817399714E+00 -3.296342120100E+00 -3.259449800114E+00 -3.224050303495E+00
 -3.190048944112E+00 -3.157347453574E+00 -3.125845004951E+00 -3.095439279148E+00
 -3.066027559332E+00 -3.037507838096E+00 -3.009779921579E+00 -2.982746514670E+00
 -2.956314271679E+00 -2.930394797329E+00 -2.904905583773E+00 -2.879770870356E+00
 -2.854922414155E+00 -2.830300160628E+00 -2.805852805471E+00 -2.781538240334E+00
 -2.757323319586E+00 -2.733191255043E+00 -2.709104772856E+00 -2.685106957863E+00
 -2.661379905940E+00 -2.638129034113E+00 -2.615374458120E+00 -2.593060811709E+00
 -2.571187425130E+00 -2.549739527832E+00 -2.528703383095E+00 -2.508065378496E+00
 -2.487811778355E+00 -2.467928800252E+00 -2.448402637191E+00 -2.429219480879E+00
 -2.410365546641E+00 -2.391827100376E+00 -2.373590487746E+00 -2.355642165745E+00
 -2.337968736700E+00 -2.320556984612E+00 -2.303393914020E+00 -2.286466791312E+00
 -2.269763188917E+00 -2.253271034999E+00 -2.236978659346E+00 -2.220874815156E+00
 -2.204948989369E+00 -2.189191043636E+00 -2.173591450922E+00 -2.158140839837E+00
 -2.142833860329E+00 -2.127676162745E+00 -2.112687346342E+00 -2.097903816440E+00
 -2.083337528651E+00 -2.068971345601E+00 -2.054799256321E+00 -2.040820974518E+00
 -2.027031808792E+00 -2.013427620135E+00 -2.000004846937E+00 -1.986759934263E+00
 -1.973689352547E+00 -1.960789686338E+00 -1.948057614968E+00 -1.935489899598E+00
 -1.923083383636E+00 -1.910834990006E+00 -1.898741717993E+00 -1.886800640482E+00
 -1.875008901237E+00 -1.863363712291E+00 -1.851862351458E+00 -1.840502159997E+00
 -1.829280540442E+00 -1.818194954645E+00 -1.807242922031E+00 -1.796422018139E+00
 -1.785729873401E+00 -1.775164172256E+00 -1.764722652503E+00 -1.754403104973E+00
 -1.744203373387E+00 -1.734121354409E+00 -1.724154997780E+00 -1.714302306374E+00
 -1.704561336169E+00 -1.694930195822E+00 -1.685407045867E+00 -1.675990097410E+00
 -1.666677610014E+00 -1.657467889364E+00 -1.648359283891E+00 -1.639350181511E+00
 -1.630439005914E+00 -1.621624212849E+00 -1.612904287223E+00 -1.604277740044E+00
 -1.595743106698E+00 -1.587298945582E+00 -1.578943837434E+00 -1.570676385470E+00
 -1.562495215693E+00 -1.554398977457E+00 -1.546386344432E+00 -1.538456014964E+00
 -1.530606712824E+00 -1.522837187433E+00 -1.515146213941E+00 -1.507532593213E+00
 -1.499995151453E+00 -1.492532739809E+00 -1.485144233822E+00 -1.477828532782E+00
 -1.470584559060E+00 -1.463411257435E+00 -1.456307594353E+00 -1.449272557293E+00
 -1.442305154071E+00 -1.435404412222E+00 -1.428569378402E+00 -1.421799117809E+00
 -1.415092713652E+00 -1.408449266643E+00 -1.401867894514E+00 -1.395347731568E+00
 -1.388887928245E+00 -1.382487650715E+00 -1.376146080487E+00 -1.369862414039E+00
 -1.363635862455E+00 -1.357465651090E+00 -1.351351019232E+00 -1.345291219787E+00
 -1.339285518973E+00 -1.333333196018E+00 -1.327433542871E+00 -1.321585863927E+00
 -1.315789475747E+00 -1.310043706800E+00 -1.304347897204E+00 -1.298701398470E+00
 -1.293103573268E+00 -1.287553795179E+00 -1.282051448472E+00 -1.276595927873E+00
 -1.271186638348E+00 -1.265822994887E+00 -1.260504422295E+00 -1.255230354990E+00
 -1.250000236800E+00 -1.244813520773E+00 -1.239669668986E+00 -1.234568152360E+00
 -1.229508450479E+00 -1.224490051416E+00 -1.219512451560E+00 -1.214575155449E+00
 -1.209677675603E+00 -1.204819532371E+00 -1.200000253769E+00 -1.195219375329E+00
 -1.190476439953E+00 -1.185770997765E+00 -1.181102605969E+00 -1.176470828713E+00
 -1.171875236950E+00 -1.167315408312E+00 -1.162790926972E+00 -1.158301383526E+00
 -1.153846374865E+00 -1.149425504057E+00 -1.145038380227E+00 -1.140684618444E+00
 -1.136363839608E+00 -1.132075670339E+00 -1.127819742872E+00 -1.123595694950E+00
 -1.119403169720E+00 -1.115241815637E+00 -1.111111286361E+00 -1.107011240666E+00
 -1.102941342341E+00 -1.098901260101E+00 -1.094890667496E+00 -1.090909242827E+00
 -1.086956669053E+00 -1.083032633712E+00 -1.079136828839E+00 -1.075268950882E+00
 -1.071428700625E+00 -1.067615783114E+00 -1.063829907575E+00 -1.060070787344E+00
 -1.056338139797E+00 -1.052631686273E+00 -1.048951152012E+00 -1.045296266079E+00
 -1.041666761305E+00 -1.038062374218E+00 -1.034482844979E+00 -1.030927917322E+00
 -1.027397338489E+00 -1.023890859176E+00 -1.020408233469E+00 -1.016949218787E+00
 -1.013513575830E+00 -1.010101068519E+00 -1.006711463943E+00 -1.003344532309E+00
 -1.000000046888E+00 -9.966777839607E-01 -9.933775227746E-01 -9.900990454896E-01
 -9.868421371323E-01 -9.836065855489E-01 -9.803921813583E-01 -9.771987179080E-01
 -9.740259912290E-01 -9.708737999930E-01 -9.677419454692E-01 -9.646302314829E-01
 -9.615384643747E-01 -9.584664529600E-01 -9.554140084894E-01 -9.523809446108E-01
 -9.493670773307E-01 -9.463722249775E-01 -9.433962081647E-01 -9.404388497552E-01
 -9.374999748262E-01 -9.345794106345E-01 -9.316769865831E-01 -9.287925341873E-01
 -9.259258870428E-01 -9.230768807932E-01 -9.202453530989E-01 -9.174311436061E-01
 -9.146340939165E-01 -9.118540475577E-01 -9.090908499540E-01 -9.063443483975E-01
 -9.036143920206E-01 -9.009008317675E-01 -8.982035203677E-01 -8.955223123093E-01
 -8.928570638127E-01 -8.902076328047E-01 -8.875738788936E-01 -8.849556633443E-01
 -8.823528490538E-01 -8.797653005276E-01 -8.771928838555E-01 -8.746354666895E-01
 -8.720929182202E-01 -8.695651091550E-01 -8.670519116959E-01 -8.645531995184E-01
 -8.620688477496E-01 -8.595987329481E-01 -8.571427330832E-01 -8.547007275150E-01
 -8.522725969745E-01 -8.498582235439E-01 -8.474574906383E-01 -8.450702829861E-01
 -8.426964866110E-01 -8.403359888139E-01 -8.379886781548E-01 -8.356544444353E-01
 -8.333331786816E-01 -8.310247731273E-01 -8.287291211969E-01 -8.264461174891E-01
 -8.241756577611E-01 -8.219176389123E-01 -8.196719589691E-01 -8.174385170691E-01
 -8.152172134464E-01 -8.130079494166E-01 -8.108106273621E-01 -8.086251507178E-01
 -8.064514239568E-01 -8.042893525770E-01 -8.021388430866E-01 -7.999998029914E-01
 -7.978721407809E-01 -7.957557659157E-01 -7.936505888145E-01 -7.915565208414E-01
 -7.894734742935E-01 -7.874013623886E-01 -7.853400992535E-01 -7.832895999115E-01
 -7.812497802712E-01 -7.792205571149E-01 -7.772018480874E-01 -7.751935716844E-01
 -7.731956472421E-01 -7.712079949260E-01 -7.692305357205E-01 -7.672631914182E-01
 -7.653058846101E-01 -7.633585386745E-01 -7.614210777680E-01 -7.594934268152E-01
 -7.575755114988E-01 -7.556672582504E-01 -7.537685942411E-01 -7.518794473720E-01
</data>
</radfunc>
</slps>
</semilocal-potentials>
<valence-charge total-charge="3">
<radfunc>
<grid npts="1944">
<annotation type="linear with r=0" oncvpsp-nrl-adjusted="1944"
 oncvpsp-drl="0.100000000000E-01" />
<grid-data>
  0.000000000000E+00  1.000000000000E-02  2.000000000000E-02  3.000000000000E-02
  4.000000000000E-02  5.000000000000E-02  6.000000000000E-02  7.000000000000E-02
  8.000000000000E-02  9.000000000000E-02  1.000000000000E-01  1.100000000000E-01
  1.200000000000E-01  1.300000000000E-01  1.400000000000E-01  1.500000000000E-01
  1.600000000000E-01  1.700000000000E-01  1.800000000000E-01  1.900000000000E-01
  2.000000000000E-01  2.100000000000E-01  2.200000000000E-01  2.300000000000E-01
  2.400000000000E-01  2.500000000000E-01  2.600000000000E-01  2.700000000000E-01
  2.800000000000E-01  2.900000000000E-01  3.000000000000E-01  3.100000000000E-01
  3.200000000000E-01  3.300000000000E-01  3.400000000000E-01  3.500000000000E-01
  3.600000000000E-01  3.700000000000E-01  3.800000000000E-01  3.900000000000E-01
  4.000000000000E-01  4.100000000000E-01  4.200000000000E-01  4.300000000000E-01
  4.400000000000E-01  4.500000000000E-01  4.600000000000E-01  4.700000000000E-01
  4.800000000000E-01  4.900000000000E-01  5.000000000000E-01  5.100000000000E-01
  5.200000000000E-01  5.300000000000E-01  5.400000000000E-01  5.500000000000E-01
  5.600000000000E-01  5.700000000000E-01  5.800000000000E-01  5.900000000000E-01
  6.000000000000E-01  6.100000000000E-01  6.200000000000E-01  6.300000000000E-01
  6.400000000000E-01  6.500000000000E-01  6.600000000000E-01  6.700000000000E-01
  6.800000000000E-01  6.900000000000E-01  7.000000000000E-01  7.100000000000E-01
  7.200000000000E-01  7.300000000000E-01  7.400000000000E-01  7.500000000000E-01
  7.600000000000E-01  7.700000000000E-01  7.800000000000E-01  7.900000000000E-01
  8.000000000000E-01  8.100000000000E-01  8.200000000000E-01  8.300000000000E-01
  8.400000000000E-01  8.500000000000E-01  8.600000000000E-01  8.700000000000E-01
  8.800000000000E-01  8.900000000000E-01  9.000000000000E-01  9.100000000000E-01
  9.200000000000E-01  9.300000000000E-01  9.400000000000E-01  9.500000000000E-01
  9.600000000000E-01  9.700000000000E-01  9.800000000000E-01  9.900000000000E-01
  1.000000000000E+00  1.010000000000E+00  1.020000000000E+00  1.030000000000E+00
  1.040000000000E+00  1.050000000000E+00  1.060000000000E+00  1.070000000000E+00
  1.080000000000E+00  1.090000000000E+00  1.100000000000E+00  1.110000000000E+00
  1.120000000000E+00  1.130000000000E+00  1.140000000000E+00  1.150000000000E+00
  1.160000000000E+00  1.170000000000E+00  1.180000000000E+00  1.190000000000E+00
  1.200000000000E+00  1.210000000000E+00  1.220000000000E+00  1.230000000000E+00
  1.240000000000E+00  1.250000000000E+00  1.260000000000E+00  1.270000000000E+00
  1.280000000000E+00  1.290000000000E+00  1.300000000000E+00  1.310000000000E+00
  1.320000000000E+00  1.330000000000E+00  1.340000000000E+00  1.350000000000E+00
  1.360000000000E+00  1.370000000000E+00  1.380000000000E+00  1.390000000000E+00
  1.400000000000E+00  1.410000000000E+00  1.420000000000E+00  1.430000000000E+00
  1.440000000000E+00  1.450000000000E+00  1.460000000000E+00  1.470000000000E+00
  1.480000000000E+00  1.490000000000E+00  1.500000000000E+00  1.510000000000E+00
  1.520000000000E+00  1.530000000000E+00  1.540000000000E+00  1.550000000000E+00
  1.560000000000E+00  1.570000000000E+00  1.580000000000E+00  1.590000000000E+00
  1.600000000000E+00  1.610000000000E+00  1.620000000000E+00  1.630000000000E+00
  1.640000000000E+00  1.650000000000E+00  1.660000000000E+00  1.670000000000E+00
  1.680000000000E+00  1.690000000000E+00  1.700000000000E+00  1.710000000000E+00
  1.720000000000E+00  1.730000000000E+00  1.740000000000E+00  1.750000000000E+00
  1.760000000000E+00  1.770000000000E+00  1.780000000000E+00  1.790000000000E+00
  1.800000000000E+00  1.810000000000E+00  1.820000000000E+00  1.830000000000E+00
  1.840000000000E+00  1.850000000000E+00  1.860000000000E+00  1.870000000000E+00