<?xml version="1.0" encoding="UTF-8" ?>
<psml version="1.0" energy_unit="hartree" length_unit="bohr"
 uuid="f5d95d60-2456-11e7-430f-57fcbf776763">
<provenance creator="ONCVPSP-3.2.3+psml-51" date="2017-04-18">
<input-file name="oncvpsp-input">
<![CDATA[# atsym z nc nv iexc psfile
Li 3 0 2 4 psp8
# n l f
1 0 2.0
2 0 1.0
# lmax
1
# l rc ep ncon nbas qcut
0 1.2 0.0 4 8 9.8
1 1.0 0.0 4 8 9.2
# lloc lpopt rc5 dvloc0
4 5 0.9 0.0
# l nproj debl
0 2 1.0
1 2 1.0
# icmod fcfact
0 0.25
# epsh1 epsh2 depsh
-12.0 12.0 0.02
# rlmax drl
4.0 0.01
 0
]]>
</input-file>
</provenance>
<header atomic-label="Li" atomic-number="3" z-pseudo="3"
 flavor="Hamann&apos;s oncvpsp" relativity="scalar" polarized="no"
 core-corrections="no">
<exchange-correlation>
<annotation oncvpsp-xc-code="4" oncvpsp-xc-type="GGA -- Perdew-Burke-Ernzerhof" />
<libxc-info number-of-functionals="2">
<functional name="Perdew, Burke &amp; Ernzerhof (GGA)" type="exchange" id="101" />
<functional name="Perdew, Burke &amp; Ernzerhof (GGA)" type="correlation"
 id="130" />
</libxc-info>
</exchange-correlation>
<valence-configuration total-valence-charge="3">
<shell n="1" l="s" occupation="2" />
<shell n="2" l="s" occupation="1" />
</valence-configuration>
</header>
<grid npts="400">
<annotation type="linear with r=0" oncvpsp-nrl="400"
 oncvpsp-drl="0.100000000000E-01" />
<grid-data>
  0.000000000000E+00  1.000000000000E-02  2.000000000000E-02  3.000000000000E-02
  4.000000000000E-02  5.000000000000E-02  6.000000000000E-02  7.000000000000E-02
  8.000000000000E-02  9.000000000000E-02  1.000000000000E-01  1.100000000000E-01
  1.200000000000E-01  1.300000000000E-01  1.400000000000E-01  1.500000000000E-01
  1.600000000000E-01  1.700000000000E-01  1.800000000000E-01  1.900000000000E-01
  2.000000000000E-01  2.100000000000E-01  2.200000000000E-01  2.300000000000E-01
  2.400000000000E-01  2.500000000000E-01  2.600000000000E-01  2.700000000000E-01
  2.800000000000E-01  2.900000000000E-01  3.000000000000E-01  3.100000000000E-01
  3.200000000000E-01  3.300000000000E-01  3.400000000000E-01  3.500000000000E-01
  3.600000000000E-01  3.700000000000E-01  3.800000000000E-01  3.900000000000E-01
  4.000000000000E-01  4.100000000000E-01  4.200000000000E-01  4.300000000000E-01
  4.400000000000E-01  4.500000000000E-01  4.600000000000E-01  4.700000000000E-01
  4.800000000000E-01  4.900000000000E-01  5.000000000000E-01  5.100000000000E-01
  5.200000000000E-01  5.300000000000E-01  5.400000000000E-01  5.500000000000E-01
  5.600000000000E-01  5.700000000000E-01  5.800000000000E-01  5.900000000000E-01
  6.000000000000E-01  6.100000000000E-01  6.200000000000E-01  6.300000000000E-01
  6.400000000000E-01  6.500000000000E-01  6.600000000000E-01  6.700000000000E-01
  6.800000000000E-01  6.900000000000E-01  7.000000000000E-01  7.100000000000E-01
  7.200000000000E-01  7.300000000000E-01  7.400000000000E-01  7.500000000000E-01
  7.600000000000E-01  7.700000000000E-01  7.800000000000E-01  7.900000000000E-01
  8.000000000000E-01  8.100000000000E-01  8.200000000000E-01  8.300000000000E-01
  8.400000000000E-01  8.500000000000E-01  8.600000000000E-01  8.700000000000E-01
  8.800000000000E-01  8.900000000000E-01  9.000000000000E-01  9.100000000000E-01
  9.200000000000E-01  9.300000000000E-01  9.400000000000E-01  9.500000000000E-01
  9.600000000000E-01  9.700000000000E-01  9.800000000000E-01  9.900000000000E-01
  1.000000000000E+00  1.010000000000E+00  1.020000000000E+00  1.030000000000E+00
  1.040000000000E+00  1.050000000000E+00  1.060000000000E+00  1.070000000000E+00
  1.080000000000E+00  1.090000000000E+00  1.100000000000E+00  1.110000000000E+00
  1.120000000000E+00  1.130000000000E+00  1.140000000000E+00  1.150000000000E+00
  1.160000000000E+00  1.170000000000E+00  1.180000000000E+00  1.190000000000E+00
  1.200000000000E+00  1.210000000000E+00  1.220000000000E+00  1.230000000000E+00
  1.240000000000E+00  1.250000000000E+00  1.260000000000E+00  1.270000000000E+00
  1.280000000000E+00  1.290000000000E+00  1.300000000000E+00  1.310000000000E+00
  1.320000000000E+00  1.330000000000E+00  1.340000000000E+00  1.350000000000E+00
  1.360000000000E+00  1.370000000000E+00  1.380000000000E+00  1.390000000000E+00
  1.400000000000E+00  1.410000000000E+00  1.420000000000E+00  1.430000000000E+00
  1.440000000000E+00  1.450000000000E+00  1.460000000000E+00  1.470000000000E+00
  1.480000000000E+00  1.490000000000E+00  1.500000000000E+00  1.510000000000E+00
  1.520000000000E+00  1.530000000000E+00  1.540000000000E+00  1.550000000000E+00
  1.560000000000E+00  1.570000000000E+00  1.580000000000E+00  1.590000000000E+00
  1.600000000000E+00  1.610000000000E+00  1.620000000000E+00  1.630000000000E+00
  1.640000000000E+00  1.650000000000E+00  1.660000000000E+00  1.670000000000E+00
  1.680000000000E+00  1.690000000000E+00  1.700000000000E+00  1.710000000000E+00
  1.720000000000E+00  1.730000000000E+00  1.740000000000E+00  1.750000000000E+00
  1.760000000000E+00  1.770000000000E+00  1.780000000000E+00  1.790000000000E+00
  1.800000000000E+00  1.810000000000E+00  1.820000000000E+00  1.830000000000E+00
  1.840000000000E+00  1.850000000000E+00  1.860000000000E+00  1.870000000000E+00
  1.880000000000E+00  1.890000000000E+00  1.900000000000E+00  1.910000000000E+00
  1.920000000000E+00  1.930000000000E+00  1.940000000000E+00  1.950000000000E+00
  1.960000000000E+00  1.970000000000E+00  1.980000000000E+00  1.990000000000E+00
  2.000000000000E+00  2.010000000000E+00  2.020000000000E+00  2.030000000000E+00
  2.040000000000E+00  2.050000000000E+00  2.060000000000E+00  2.070000000000E+00
  2.080000000000E+00  2.090000000000E+00  2.100000000000E+00  2.110000000000E+00
  2.120000000000E+00  2.130000000000E+00  2.140000000000E+00  2.150000000000E+00
  2.160000000000E+00  2.170000000000E+00  2.180000000000E+00  2.190000000000E+00
  2.200000000000E+00  2.210000000000E+00  2.220000000000E+00  2.230000000000E+00
  2.240000000000E+00  2.250000000000E+00  2.260000000000E+00  2.270000000000E+00
  2.280000000000E+00  2.290000000000E+00  2.300000000000E+00  2.310000000000E+00
  2.320000000000E+00  2.330000000000E+00  2.340000000000E+00  2.350000000000E+00
  2.360000000000E+00  2.370000000000E+00  2.380000000000E+00  2.390000000000E+00
  2.400000000000E+00  2.410000000000E+00  2.420000000000E+00  2.430000000000E+00
  2.440000000000E+00  2.450000000000E+00  2.460000000000E+00  2.470000000000E+00
  2.480000000000E+00  2.490000000000E+00  2.500000000000E+00  2.510000000000E+00
  2.520000000000E+00  2.530000000000E+00  2.540000000000E+00  2.550000000000E+00
  2.560000000000E+00  2.570000000000E+00  2.580000000000E+00  2.590000000000E+00
  2.600000000000E+00  2.610000000000E+00  2.620000000000E+00  2.630000000000E+00
  2.640000000000E+00  2.650000000000E+00  2.660000000000E+00  2.670000000000E+00
  2.680000000000E+00  2.690000000000E+00  2.700000000000E+00  2.710000000000E+00
  2.720000000000E+00  2.730000000000E+00  2.740000000000E+00  2.750000000000E+00
  2.760000000000E+00  2.770000000000E+00  2.780000000000E+00  2.790000000000E+00
  2.800000000000E+00  2.810000000000E+00  2.820000000000E+00  2.830000000000E+00
  2.840000000000E+00  2.850000000000E+00  2.860000000000E+00  2.870000000000E+00
  2.880000000000E+00  2.890000000000E+00  2.900000000000E+00  2.910000000000E+00
  2.920000000000E+00  2.930000000000E+00  2.940000000000E+00  2.950000000000E+00
  2.960000000000E+00  2.970000000000E+00  2.980000000000E+00  2.990000000000E+00
  3.000000000000E+00  3.010000000000E+00  3.020000000000E+00  3.030000000000E+00
  3.040000000000E+00  3.050000000000E+00  3.060000000000E+00  3.070000000000E+00
  3.080000000000E+00  3.090000000000E+00  3.100000000000E+00  3.110000000000E+00
  3.120000000000E+00  3.130000000000E+00  3.140000000000E+00  3.150000000000E+00
  3.160000000000E+00  3.170000000000E+00  3.180000000000E+00  3.190000000000E+00
  3.200000000000E+00  3.210000000000E+00  3.220000000000E+00  3.230000000000E+00
  3.240000000000E+00  3.250000000000E+00  3.260000000000E+00  3.270000000000E+00
  3.280000000000E+00  3.290000000000E+00  3.300000000000E+00  3.310000000000E+00
  3.320000000000E+00  3.330000000000E+00  3.340000000000E+00  3.350000000000E+00
  3.360000000000E+00  3.370000000000E+00  3.380000000000E+00  3.390000000000E+00
  3.400000000000E+00  3.410000000000E+00  3.420000000000E+00  3.430000000000E+00
  3.440000000000E+00  3.450000000000E+00  3.460000000000E+00  3.470000000000E+00
  3.480000000000E+00  3.490000000000E+00  3.500000000000E+00  3.510000000000E+00
  3.520000000000E+00  3.530000000000E+00  3.540000000000E+00  3.550000000000E+00
  3.560000000000E+00  3.570000000000E+00  3.580000000000E+00  3.590000000000E+00
  3.600000000000E+00  3.610000000000E+00  3.620000000000E+00  3.630000000000E+00
  3.640000000000E+00  3.650000000000E+00  3.660000000000E+00  3.670000000000E+00
  3.680000000000E+00  3.690000000000E+00  3.700000000000E+00  3.710000000000E+00
  3.720000000000E+00  3.730000000000E+00  3.740000000000E+00  3.750000000000E+00
  3.760000000000E+00  3.770000000000E+00  3.780000000000E+00  3.790000000000E+00
  3.800000000000E+00  3.810000000000E+00  3.820000000000E+00  3.830000000000E+00
  3.840000000000E+00  3.850000000000E+00  3.860000000000E+00  3.870000000000E+00
  3.880000000000E+00  3.890000000000E+00  3.900000000000E+00  3.910000000000E+00
  3.920000000000E+00  3.930000000000E+00  3.940000000000E+00  3.950000000000E+00
  3.960000000000E+00  3.970000000000E+00  3.980000000000E+00  3.990000000000E+00
</grid-data>
</grid>
<semilocal-potentials set="scalar_relativistic">
<slps n="1" l="s" rc="1.20595350732" flavor="Hamann&apos;s oncvpsp">
<radfunc>
<data>
 -1.332473804147E+01 -1.332213091324E+01 -1.331431476942E+01 -1.330130528932E+01
 -1.328312807756E+01 -1.325981793861E+01 -1.323141791354E+01 -1.319797814390E+01
 -1.315955462741E+01 -1.311620793208E+01 -1.306800193266E+01 -1.301500262622E+01
 -1.295727707393E+01 -1.289489250407E+01 -1.282791559890E+01 -1.275641197589E+01
 -1.268044586295E+01 -1.260007995843E+01 -1.251537545949E+01 -1.242639223796E+01
 -1.233318914000E+01 -1.223582438464E+01 -1.213435603714E+01 -1.202884253414E+01
 -1.191934324001E+01 -1.180591901624E+01 -1.168863278848E+01 -1.156755009845E+01
 -1.144273963064E+01 -1.131427370565E+01 -1.118222873437E+01 -1.104668562863E+01
 -1.090773016537E+01 -1.076545330257E+01 -1.061995144603E+01 -1.047132666678E+01
 -1.031968686949E+01 -1.016514591272E+01 -1.000782368213E+01 -9.847846118237E+00
 -9.685345200653E+00 -9.520458890834E+00 -9.353331036078E+00 -9.184111237683E+00
 -9.012954686698E+00 -8.840021971214E+00 -8.665478859594E+00 -8.489496064618E+00
 -8.312248993944E+00 -8.133917492734E+00 -7.954685584534E+00 -7.774741216618E+00
 -7.594276015854E+00 -7.413485060679E+00 -7.232566674058E+00 -7.051722241088E+00
 -6.871156053539E+00 -6.691075181676E+00 -6.511689371789E+00 -6.333210965487E+00
 -6.155854834584E+00 -5.979838323144E+00 -5.805381186206E+00 -5.632705513015E+00
 -5.462035621278E+00 -5.293597908227E+00 -5.127620644031E+00 -4.964333693440E+00
 -4.803968152459E+00 -4.646755888144E+00 -4.492928971401E+00 -4.342718994657E+00
 -4.196356268536E+00 -4.054068893982E+00 -3.916081708656E+00 -3.782615108784E+00
 -3.653883749919E+00 -3.530095132288E+00 -3.411448078599E+00 -3.298131114217E+00
 -3.190320761740E+00 -3.088179764012E+00 -2.991855251710E+00 -2.901476873615E+00
 -2.817154909775E+00 -2.738978389707E+00 -2.667013239685E+00 -2.601300484913E+00
 -2.541854533857E+00 -2.488661573266E+00 -2.441678103155E+00 -2.400829641445E+00
 -2.366009627700E+00 -2.337078554668E+00 -2.313863354819E+00 -2.296157067023E+00
 -2.283718805863E+00 -2.276274052746E+00 -2.273515284283E+00 -2.275102949027E+00
 -2.280666799236E+00 -2.289807579581E+00 -2.302099069950E+00 -2.317090474810E+00
 -2.334309147077E+00 -2.353263630416E+00 -2.373446999835E+00 -2.394340477287E+00
 -2.415417296047E+00 -2.436146785188E+00 -2.455998643707E+00 -2.474447372095E+00
 -2.490976828330E+00 -2.505084874600E+00 -2.516288082795E+00 -2.524126448916E+00
 -2.528168104496E+00 -2.528001653547E+00 -2.523339031072E+00 -2.513749665977E+00
 -2.498691306485E+00 -2.479630381646E+00 -2.459043405509E+00 -2.438957283048E+00
 -2.419379569350E+00 -2.400008928088E+00 -2.380961002392E+00 -2.362213146165E+00
 -2.343758127848E+00 -2.325589253535E+00 -2.307699907761E+00 -2.290083680990E+00
 -2.272734368811E+00 -2.255645950564E+00 -2.238812585346E+00 -2.222228605604E+00
 -2.205888510639E+00 -2.189786960566E+00 -2.173918770525E+00 -2.158278905135E+00
 -2.142862473199E+00 -2.127664722628E+00 -2.112681035582E+00 -2.097906923811E+00
 -2.083338024193E+00 -2.068970094443E+00 -2.054799008997E+00 -2.040820755047E+00
 -2.027031428722E+00 -2.013427231404E+00 -2.000004466163E+00 -1.986759534310E+00
 -1.973688932040E+00 -1.960789247177E+00 -1.948057155995E+00 -1.935489420122E+00
 -1.923082883505E+00 -1.910834469464E+00 -1.898741177796E+00 -1.886800081972E+00
 -1.875008326414E+00 -1.863363123872E+00 -1.851861752926E+00 -1.840501555620E+00
 -1.829279935272E+00 -1.818194354476E+00 -1.807242333326E+00 -1.796421447907E+00
 -1.785729329033E+00 -1.775163661313E+00 -1.764722182461E+00 -1.754402682936E+00
 -1.744203005777E+00 -1.734121046648E+00 -1.724154753983E+00 -1.714302129079E+00
 -1.704561226127E+00 -1.694930151871E+00 -1.685407064899E+00 -1.675990174454E+00
 -1.666677738432E+00 -1.657468061153E+00 -1.648359490052E+00 -1.639350412498E+00
 -1.630439252074E+00 -1.621624464860E+00 -1.612904536473E+00 -1.604277978932E+00
 -1.595743328845E+00 -1.587299145944E+00 -1.578944012321E+00 -1.570676532491E+00
 -1.562495333635E+00 -1.554399066132E+00 -1.546386404496E+00 -1.538456047731E+00
 -1.530606720092E+00 -1.522837171322E+00 -1.515146176757E+00 -1.507532537332E+00
 -1.499995079232E+00 -1.492532653516E+00 -1.485144135594E+00 -1.477828424587E+00
 -1.470584442685E+00 -1.463411134479E+00 -1.456307466225E+00 -1.449272425223E+00
 -1.442305019121E+00 -1.435404275298E+00 -1.428569240271E+00 -1.421798979108E+00
 -1.415092574912E+00 -1.408449128293E+00 -1.401867756903E+00 -1.395347594970E+00
 -1.388887792874E+00 -1.382487516732E+00 -1.376145948010E+00 -1.369862283147E+00
 -1.363635733200E+00 -1.357465523495E+00 -1.351350893303E+00 -1.345291095512E+00
 -1.339285396326E+00 -1.333333074963E+00 -1.327433423365E+00 -1.321585745919E+00
 -1.315789359183E+00 -1.310043591622E+00 -1.304347783350E+00 -1.298701285879E+00
 -1.293103461875E+00 -1.287553684923E+00 -1.282051339289E+00 -1.276595819702E+00
 -1.271186531127E+00 -1.265822888556E+00 -1.260504316795E+00 -1.255230250263E+00
 -1.250000132791E+00 -1.244813417427E+00 -1.239669566250E+00 -1.234568050182E+00
 -1.229508348811E+00 -1.224489950209E+00 -1.219512350768E+00 -1.214575055025E+00
 -1.209677575506E+00 -1.204819432558E+00 -1.200000154199E+00 -1.195219275964E+00
 -1.190476340756E+00 -1.185770898698E+00 -1.181102506998E+00 -1.176470729805E+00
 -1.171875138073E+00 -1.167315309434E+00 -1.162790828063E+00 -1.158301284558E+00
 -1.153846275811E+00 -1.149425404890E+00 -1.145038280922E+00 -1.140684518977E+00
 -1.136363739956E+00 -1.132075570480E+00 -1.127819642784E+00 -1.123595594613E+00
 -1.119403069115E+00 -1.115241714745E+00 -1.111111185165E+00 -1.107011139149E+00
 -1.102941240487E+00 -1.098901157895E+00 -1.094890564924E+00 -1.090909139875E+00
 -1.086956565707E+00 -1.083032529961E+00 -1.079136724671E+00 -1.075268846286E+00
 -1.071428595591E+00 -1.067615677631E+00 -1.063829801633E+00 -1.060070680936E+00
 -1.056338032914E+00 -1.052631578908E+00 -1.048951044157E+00 -1.045296157727E+00
 -1.041666652450E+00 -1.038062264854E+00 -1.034482735100E+00 -1.030927806922E+00
 -1.027397227565E+00 -1.023890747722E+00 -1.020408121481E+00 -1.016949106262E+00
 -1.013513462763E+00 -1.010100954907E+00 -1.006711349784E+00 -1.003344417599E+00
 -9.999999316243E-01 -9.966776681417E-01 -9.933774063978E-01 -9.900989285530E-01
 -9.868420196342E-01 -9.836064674876E-01 -9.803920627324E-01 -9.771985987162E-01
 -9.740258714703E-01 -9.708736796663E-01 -9.677418245737E-01 -9.646301100179E-01
 -9.615383423395E-01 -9.584663303541E-01 -9.554138853125E-01 -9.523808208625E-01
 -9.493669530109E-01 -9.463721000860E-01 -9.433960827015E-01 -9.404387237204E-01
 -9.374998482199E-01 -9.345792834569E-01 -9.316768588344E-01 -9.287924058679E-01
 -9.259257581531E-01 -9.230767513337E-01 -9.202452230701E-01 -9.174310130086E-01
 -9.146339627510E-01 -9.118539158248E-01 -9.090907176544E-01 -9.063442155322E-01
 -9.036142585903E-01 -9.009006977731E-01 -8.982033858103E-01 -8.955221771899E-01
 -8.928569281323E-01 -8.902074965645E-01 -8.875737420947E-01 -8.849555259881E-01
 -8.823527111416E-01 -8.797651620606E-01 -8.771927448354E-01 -8.746353271176E-01
 -8.720927780982E-01 -8.695649684844E-01 -8.670517704785E-01 -8.645530577558E-01
 -8.620687054438E-01 -8.595985901010E-01 -8.571425896968E-01 -8.547005835914E-01
 -8.522724525158E-01 -8.498580785524E-01 -8.474573451162E-01 -8.450701369360E-01
 -8.426963400354E-01 -8.403358417153E-01 -8.379885305359E-01 -8.356542962989E-01
 -8.333330300306E-01 -8.310246239648E-01 -8.287289715259E-01 -8.264459673128E-01
 -8.241755070829E-01 -8.219174877356E-01 -8.196718072975E-01 -8.174383649062E-01
 -8.152170607961E-01 -8.130077962827E-01 -8.108104737486E-01 -8.086249966288E-01
 -8.064512693967E-01 -8.042891975501E-01 -8.021386875974E-01 -7.999996470446E-01
 -7.978719843813E-01 -7.957556090683E-01 -7.936504315243E-01 -7.915563631135E-01
 -7.894733161332E-01 -7.874012038015E-01 -7.853399402450E-01 -7.832894404874E-01
 -7.812496204374E-01 -7.792203968774E-01 -7.772016874522E-01 -7.751934106579E-01
 -7.731954858307E-01 -7.712078331362E-01 -7.692303735589E-01 -7.672630288918E-01
 -7.653057217257E-01 -7.633583754392E-01 -7.614209141890E-01 -7.594932628998E-01
 -7.575753472546E-01 -7.556670936850E-01 -7.537684293621E-01 -7.518792821873E-01
</data>
</radfunc>
</slps>
<slps n="2" l="p" rc="1.00837687474" flavor="Hamann&apos;s oncvpsp">
<radfunc>
<data>
 -1.067580867968E+01 -1.067157232476E+01 -1.065889767942E+01 -1.063788763640E+01
 -1.060871164938E+01 -1.057160281505E+01 -1.052685387001E+01 -1.047481222653E+01
 -1.041587417089E+01 -1.035047836226E+01 -1.027909877791E+01 -1.020223725428E+01
 -1.012041577221E+01 -1.003416863039E+01 -9.944034644595E+00 -9.850549502353E+00
 -9.754238393904E+00 -9.655609031376E+00 -9.555145158665E+00 -9.453300645236E+00
 -9.350494247046E+00 -9.247105107474E+00 -9.143469059795E+00 -9.039875780621E+00
 -8.936566830387E+00 -8.833734602772E+00 -8.731522189631E+00 -8.630024152340E+00
 -8.529288174084E+00 -8.429317551643E+00 -8.330074469390E+00 -8.231483983373E+00
 -8.133438629812E+00 -8.035803560324E+00 -7.938422096215E+00 -7.841121586384E+00
 -7.743719448052E+00 -7.646029266655E+00 -7.547866831050E+00 -7.449055982519E+00
 -7.349434160893E+00 -7.248857538382E+00 -7.147205641144E+00 -7.044385370071E+00
 -6.940334345495E+00 -6.835023515250E+00 -6.728458981393E+00 -6.620683017754E+00
 -6.511774267754E+00 -6.401847129580E+00 -6.291050353112E+00 -6.179564889892E+00
 -6.067601053334E+00 -5.955395060980E+00 -5.843205043564E+00 -5.731306616596E+00
 -5.619988118793E+00 -5.509545627804E+00 -5.400277867035E+00 -5.292481117959E+00
 -5.186444250013E+00 -5.082443975170E+00 -4.980740426673E+00 -4.881573151392E+00
 -4.785157593248E+00 -4.691682131388E+00 -4.601305721707E+00 -4.514156174414E+00
 -4.430329083970E+00 -4.349887411386E+00 -4.272861703018E+00 -4.199250915083E+00
 -4.129023799420E+00 -4.062120794022E+00 -3.998456351845E+00 -3.937921633495E+00
 -3.880387483924E+00 -3.825707610176E+00 -3.773721876668E+00 -3.724259636281E+00
 -3.677143019622E+00 -3.632190110912E+00 -3.589217946861E+00 -3.548045284186E+00
 -3.508495091865E+00 -3.470396735290E+00 -3.433587830890E+00 -3.397915761103E+00
 -3.363238850420E+00 -3.329427213263E+00 -3.296363293437E+00 -3.263942122491E+00
 -3.232071330439E+00 -3.200670946742E+00 -3.169673032079E+00 -3.139021182441E+00
 -3.108669946476E+00 -3.078584194674E+00 -3.048737930168E+00 -3.019119574204E+00
 -2.989703128154E+00 -2.960530026915E+00 -2.931795034383E+00 -2.903715626917E+00
 -2.876250629833E+00 -2.849355907589E+00 -2.823019572930E+00 -2.797216948316E+00
 -2.771925113283E+00 -2.747120792733E+00 -2.722780591959E+00 -2.698881140843E+00
 -2.675399252404E+00 -2.652312092844E+00 -2.629597361328E+00 -2.607233458453E+00
 -2.585199659001E+00 -2.563476487404E+00 -2.542045233466E+00 -2.520887951177E+00
 -2.499991495134E+00 -2.479360177154E+00 -2.459025785915E+00 -2.439031552804E+00
 -2.419364890077E+00 -2.400008927559E+00 -2.380960986741E+00 -2.362213146165E+00
 -2.343758127848E+00 -2.325589253535E+00 -2.307699907761E+00 -2.290083680990E+00
 -2.272734368811E+00 -2.255645950564E+00 -2.238812585346E+00 -2.222228605604E+00
 -2.205888510639E+00 -2.189786960566E+00 -2.173918770525E+00 -2.158278905135E+00
 -2.142862473199E+00 -2.127664722628E+00 -2.112681035582E+00 -2.097906923811E+00
 -2.083338024193E+00 -2.068970094443E+00 -2.054799008997E+00 -2.040820755047E+00
 -2.027031428722E+00 -2.013427231404E+00 -2.000004466163E+00 -1.986759534310E+00
 -1.973688932040E+00 -1.960789247177E+00 -1.948057155995E+00 -1.935489420122E+00
 -1.923082883505E+00 -1.910834469464E+00 -1.898741177796E+00 -1.886800081972E+00
 -1.875008326414E+00 -1.863363123872E+00 -1.851861752926E+00 -1.840501555620E+00
 -1.829279935272E+00 -1.818194354476E+00 -1.807242333326E+00 -1.796421447907E+00
 -1.785729329033E+00 -1.775163661313E+00 -1.764722182461E+00 -1.754402682936E+00
 -1.744203005777E+00 -1.734121046648E+00 -1.724154753983E+00 -1.714302129079E+00
 -1.704561226127E+00 -1.694930151871E+00 -1.685407064899E+00 -1.675990174454E+00
 -1.666677738432E+00 -1.657468061153E+00 -1.648359490052E+00 -1.639350412498E+00
 -1.630439252074E+00 -1.621624464860E+00 -1.612904536473E+00 -1.604277978932E+00
 -1.595743328845E+00 -1.587299145944E+00 -1.578944012321E+00 -1.570676532491E+00
 -1.562495333635E+00 -1.554399066132E+00 -1.546386404496E+00 -1.538456047731E+00
 -1.530606720092E+00 -1.522837171322E+00 -1.515146176757E+00 -1.507532537332E+00
 -1.499995079232E+00 -1.492532653516E+00 -1.485144135594E+00 -1.477828424587E+00
 -1.470584442685E+00 -1.463411134479E+00 -1.456307466225E+00 -1.449272425223E+00
 -1.442305019121E+00 -1.435404275298E+00 -1.428569240271E+00 -1.421798979108E+00
 -1.415092574912E+00 -1.408449128293E+00 -1.401867756903E+00 -1.395347594970E+00
 -1.388887792874E+00 -1.382487516732E+00 -1.376145948010E+00 -1.369862283147E+00
 -1.363635733200E+00 -1.357465523495E+00 -1.351350893303E+00 -1.345291095512E+00
 -1.339285396326E+00 -1.333333074963E+00 -1.327433423365E+00 -1.321585745919E+00
 -1.315789359183E+00 -1.310043591622E+00 -1.304347783350E+00 -1.298701285879E+00
 -1.293103461875E+00 -1.287553684923E+00 -1.282051339289E+00 -1.276595819702E+00
 -1.271186531127E+00 -1.265822888556E+00 -1.260504316795E+00 -1.255230250263E+00
 -1.250000132791E+00 -1.244813417427E+00 -1.239669566250E+00 -1.234568050182E+00
 -1.229508348811E+00 -1.224489950209E+00 -1.219512350768E+00 -1.214575055025E+00
 -1.209677575506E+00 -1.204819432558E+00 -1.200000154199E+00 -1.195219275964E+00
 -1.190476340756E+00 -1.185770898698E+00 -1.181102506998E+00 -1.176470729805E+00
 -1.171875138073E+00 -1.167315309434E+00 -1.162790828063E+00 -1.158301284558E+00
 -1.153846275811E+00 -1.149425404890E+00 -1.145038280922E+00 -1.140684518977E+00
 -1.136363739956E+00 -1.132075570480E+00 -1.127819642784E+00 -1.123595594613E+00
 -1.119403069115E+00 -1.115241714745E+00 -1.111111185165E+00 -1.107011139149E+00
 -1.102941240487E+00 -1.098901157895E+00 -1.094890564924E+00 -1.090909139875E+00
 -1.086956565707E+00 -1.083032529961E+00 -1.079136724671E+00 -1.075268846286E+00
 -1.071428595591E+00 -1.067615677631E+00 -1.063829801633E+00 -1.060070680936E+00
 -1.056338032914E+00 -1.052631578908E+00 -1.048951044157E+00 -1.045296157727E+00
 -1.041666652450E+00 -1.038062264854E+00 -1.034482735100E+00 -1.030927806922E+00
 -1.027397227565E+00 -1.023890747722E+00 -1.020408121481E+00 -1.016949106262E+00
 -1.013513462763E+00 -1.010100954907E+00 -1.006711349784E+00 -1.003344417599E+00
 -9.999999316243E-01 -9.966776681417E-01 -9.933774063978E-01 -9.900989285530E-01
 -9.868420196342E-01 -9.836064674876E-01 -9.803920627324E-01 -9.771985987162E-01
 -9.740258714703E-01 -9.708736796663E-01 -9.677418245737E-01 -9.646301100179E-01
 -9.615383423395E-01 -9.584663303541E-01 -9.554138853125E-01 -9.523808208625E-01
 -9.493669530109E-01 -9.463721000860E-01 -9.433960827015E-01 -9.404387237204E-01
 -9.374998482199E-01 -9.345792834569E-01 -9.316768588344E-01 -9.287924058679E-01
 -9.259257581531E-01 -9.230767513337E-01 -9.202452230701E-01 -9.174310130086E-01
 -9.146339627510E-01 -9.118539158248E-01 -9.090907176544E-01 -9.063442155322E-01
 -9.036142585903E-01 -9.009006977731E-01 -8.982033858103E-01 -8.955221771899E-01
 -8.928569281323E-01 -8.902074965645E-01 -8.875737420947E-01 -8.849555259881E-01
 -8.823527111416E-01 -8.797651620606E-01 -8.771927448354E-01 -8.746353271176E-01
 -8.720927780982E-01 -8.695649684844E-01 -8.670517704785E-01 -8.645530577558E-01
 -8.620687054438E-01 -8.595985901010E-01 -8.571425896968E-01 -8.547005835914E-01
 -8.522724525158E-01 -8.498580785524E-01 -8.474573451162E-01 -8.450701369360E-01
 -8.426963400354E-01 -8.403358417153E-01 -8.379885305359E-01 -8.356542962989E-01
 -8.333330300306E-01 -8.310246239648E-01 -8.287289715259E-01 -8.264459673128E-01
 -8.241755070829E-01 -8.219174877356E-01 -8.196718072975E-01 -8.174383649062E-01
 -8.152170607961E-01 -8.130077962827E-01 -8.108104737486E-01 -8.086249966288E-01
 -8.064512693967E-01 -8.042891975501E-01 -8.021386875974E-01 -7.999996470446E-01
 -7.978719843813E-01 -7.957556090683E-01 -7.936504315243E-01 -7.915563631135E-01
 -7.894733161332E-01 -7.874012038015E-01 -7.853399402450E-01 -7.832894404874E-01
 -7.812496204374E-01 -7.792203968774E-01 -7.772016874522E-01 -7.751934106579E-01
 -7.731954858307E-01 -7.712078331362E-01 -7.692303735589E-01 -7.672630288918E-01
 -7.653057217257E-01 -7.633583754392E-01 -7.614209141890E-01 -7.594932628998E-01
 -7.575753472546E-01 -7.556670936850E-01 -7.537684293621E-01 -7.518792821873E-01
</data>
</radfunc>
</slps>
</semilocal-potentials>
<valence-charge total-charge="3">
<radfunc>
<grid npts="1944">
<annotation type="linear with r=0" oncvpsp-nrl-adjusted="1944"
 oncvpsp-drl="0.100000000000E-01" />
<grid-data>
  0.000000000000E+00  1.000000000000E-02  2.000000000000E-02  3.000000000000E-02
  4.000000000000E-02  5.000000000000E-02  6.000000000000E-02  7.000000000000E-02
  8.000000000000E-02  9.000000000000E-02  1.000000000000E-01  1.100000000000E-01
  1.200000000000E-01  1.300000000000E-01  1.400000000000E-01  1.500000000000E-01
  1.600000000000E-01  1.700000000000E-01  1.800000000000E-01  1.900000000000E-01
  2.000000000000E-01  2.100000000000E-01  2.200000000000E-01  2.300000000000E-01
  2.400000000000E-01  2.500000000000E-01  2.600000000000E-01  2.700000000000E-01
  2.800000000000E-01  2.900000000000E-01  3.000000000000E-01  3.100000000000E-01
  3.200000000000E-01  3.300000000000E-01  3.400000000000E-01  3.500000000000E-01
  3.600000000000E-01  3.700000000000E-01  3.800000000000E-01  3.900000000000E-01
  4.000000000000E-01  4.100000000000E-01  4.200000000000E-01  4.300000000000E-01
  4.400000000000E-01  4.500000000000E-01  4.600000000000E-01  4.700000000000E-01
  4.800000000000E-01  4.900000000000E-01  5.000000000000E-01  5.100000000000E-01
  5.200000000000E-01  5.300000000000E-01  5.400000000000E-01  5.500000000000E-01
  5.600000000000E-01  5.700000000000E-01  5.800000000000E-01  5.900000000000E-01
  6.000000000000E-01  6.100000000000E-01  6.200000000000E-01  6.300000000000E-01
  6.400000000000E-01  6.500000000000E-01  6.600000000000E-01  6.700000000000E-01
  6.800000000000E-01  6.900000000000E-01  7.000000000000E-01  7.100000000000E-01
  7.200000000000E-01  7.300000000000E-01  7.400000000000E-01  7.500000000000E-01
  7.600000000000E-01  7.700000000000E-01  7.800000000000E-01  7.900000000000E-01
  8.000000000000E-01  8.100000000000E-01  8.200000000000E-01  8.300000000000E-01
  8.400000000000E-01  8.500000000000E-01  8.600000000000E-01  8.700000000000E-01
  8.800000000000E-01  8.900000000000E-01  9.000000000000E-01  9.100000000000E-01
  9.200000000000E-01  9.300000000000E-01  9.400000000000E-01  9.500000000000E-01
  9.600000000000E-01  9.700000000000E-01  9.800000000000E-01  9.900000000000E-01
  1.000000000000E+00  1.010000000000E+00  1.020000000000E+00  1.030000000000E+00
  1.040000000000E+00  1.050000000000E+00  1.060000000000E+00  1.070000000000E+00
  1.080000000000E+00  1.090000000000E+00  1.100000000000E+00  1.110000000000E+00
  1.120000000000E+00  1.130000000000E+00  1.140000000000E+00  1.150000000000E+00
  1.160000000000E+00  1.170000000000E+00  1.180000000000E+00  1.190000000000E+00
  1.200000000000E+00  1.210000000000E+00  1.220000000000E+00  1.230000000000E+00
  1.240000000000E+00  1.250000000000E+00  1.260000000000E+00  1.270000000000E+00
  1.280000000000E+00  1.290000000000E+00  1.300000000000E+00  1.310000000000E+00
  1.320000000000E+00  1.330000000000E+00  1.340000000000E+00  1.350000000000E+00
  1.360000000000E+00  1.370000000000E+00  1.380000000000E+00  1.390000000000E+00
  1.400000000000E+00  1.410000000000E+00  1.420000000000E+00  1.430000000000E+00
  1.440000000000E+00  1.450000000000E+00  1.460000000000E+00  1.470000000000E+00
  1.480000000000E+00  1.490000000000E+00  1.500000000000E+00  1.510000000000E+00
  1.520000000000E+00  1.530000000000E+00  1.540000000000E+00  1.550000000000E+00
  1.560000000000E+00  1.570000000000E+00  1.580000000000E+00  1.590000000000E+00
  1.600000000000E+00  1.610000000000E+00  1.620000000000E+00  1.630000000000E+00
  1.640000000000E+00  1.650000000000E+00  1.660000000000E+00  1.670000000000E+00
  1.680000000000E+00  1.690000000000E+00  1.700000000000E+00  1.710000000000E+00
  1.720000000000E+00  1.730000000000E+00  1.740000000000E+00  1.750000000000E+00
  1.760000000000E+00  1.770000000000E+00  1.780000000000E+00  1.790000000000E+00
  1.800000000000E+00  1.810000000000E+00  1.820000000000E+00  1.830000000000E+00
  1.840000000000E+00  1.850000000000E+00  1.860000000000E+00  1.870000000000E+00