Se    ONCVPSP  r_core=  1.82  1.50  1.91
34.0000     16.0000      151028    zatom,zion,pspd
8   -1013   2     4   600     0    pspcod,pspxc,lmax,lloc,mmax,r2well
5.99000000  5.00000000  0.00000000    rchrg fchrg qchrg
2     2     2     0     0    nproj
0                 extension_switch
0                         8.7285116458991D+00  9.8357118762532D-01
1  0.0000000000000D+00 -2.1733559396608D-11  1.3753473360190D-10
2  1.0000000000000D-02  3.6705556008859D-02 -2.2891560500385D-02
3  2.0000000000000D-02  7.3386115088795D-02 -4.5713481272923D-02
4  3.0000000000000D-02  1.1001670664407D-01 -6.8396506267907D-02
5  4.0000000000000D-02  1.4657241233695D-01 -9.0872143178160D-02
6  5.0000000000000D-02  1.8302839120129D-01 -1.1307303631107D-01
7  6.0000000000000D-02  2.1935990355328D-01 -1.3493332875974D-01
8  7.0000000000000D-02  2.5554233332395D-01 -1.5638901046878D-01
9  8.0000000000000D-02  2.9155120846007D-01 -1.7737824892803D-01
10  9.0000000000000D-02  3.2736221906648D-01 -1.9784169939676D-01
11  1.0000000000000D-01  3.6295123299465D-01 -2.1772279176107D-01
12  1.1000000000000D-01  3.9829430861793D-01 -2.3696799135584D-01
13  1.2000000000000D-01  4.3336770457395D-01 -2.5552703133788D-01
14  1.3000000000000D-01  4.6814788629820D-01 -2.7335311447665D-01
15  1.4000000000000D-01  5.0261152921944D-01 -2.9040308252980D-01
16  1.5000000000000D-01  5.3673551853724D-01 -3.0663755169172D-01
17  1.6000000000000D-01  5.7049694555309D-01 -3.2202101293881D-01
18  1.7000000000000D-01  6.0387310058024D-01 -3.3652189644500D-01
19  1.8000000000000D-01  6.3684146251124D-01 -3.5011259959967D-01
20  1.9000000000000D-01  6.6937968517709D-01 -3.6276947852538D-01
21  2.0000000000000D-01  7.0146558068628D-01 -3.7447280336112D-01
22  2.1000000000000D-01  7.3307709998597D-01 -3.8520667794447D-01
23  2.2000000000000D-01  7.6419231093995D-01 -3.9495892488960D-01
24  2.3000000000000D-01  7.9478937426840D-01 -4.0372093741453D-01
25  2.4000000000000D-01  8.2484651774256D-01 -4.1148749961618D-01
26  2.5000000000000D-01  8.5434200907210D-01 -4.1825657722302D-01
27  2.6000000000000D-01  8.8325412796432D-01 -4.2402908116874D-01
28  2.7000000000000D-01  9.1156113787081D-01 -4.2880860662341D-01
29  2.8000000000000D-01  9.3924125797000D-01 -4.3260115038826D-01
30  2.9000000000000D-01  9.6627263596042D-01 -4.3541480980319D-01
31  3.0000000000000D-01  9.9263332226165D-01 -4.3725946653106D-01
32  3.1000000000000D-01  1.0183012462348D+00 -4.3814645876542D-01
33  3.2000000000000D-01  1.0432541950440D+00 -4.3808824555907D-01
34  3.3000000000000D-01  1.0674697957833D+00 -4.3709806708554D-01
35  3.4000000000000D-01  1.0909255014885D+00 -4.3518960472458D-01
36  3.5000000000000D-01  1.1135985816438D+00 -4.3237664490393D-01
37  3.6000000000000D-01  1.1354661177737D+00 -4.2867275063222D-01
38  3.7000000000000D-01  1.1565050046875D+00 -4.2409094462236D-01
39  3.8000000000000D-01  1.1766919579107D+00 -4.1864340782934D-01
40  3.9000000000000D-01  1.1960035277987D+00 -4.1234119711316D-01
41  4.0000000000000D-01  1.2144161207847D+00 -4.0519398558554D-01
42  4.1000000000000D-01  1.2319060281604D+00 -3.9720982901040D-01
43  4.2000000000000D-01  1.2484494627300D+00 -3.8839496140342D-01
44  4.3000000000000D-01  1.2640226036173D+00 -3.7875362271662D-01
45  4.4000000000000D-01  1.2786016494340D+00 -3.6828792120348D-01
46  4.5000000000000D-01  1.2921628799455D+00 -3.5699773273838D-01
47  4.6000000000000D-01  1.3046827262922D+00 -3.4488063901649D-01
48  4.7000000000000D-01  1.3161378497447D+00 -3.3193190618680D-01
49  4.8000000000000D-01  1.3265052288851D+00 -3.1814450507798D-01
50  4.9000000000000D-01  1.3357622550212D+00 -3.0350917376436D-01
51  5.0000000000000D-01  1.3438868355544D+00 -2.8801452279366D-01
52  5.1000000000000D-01  1.3508575049305D+00 -2.7164718296209D-01
53  5.2000000000000D-01  1.3566535427162D+00 -2.5439199507942D-01
54  5.3000000000000D-01  1.3612550982582D+00 -2.3623224072175D-01
55  5.4000000000000D-01  1.3646433212917D+00 -2.1714991252640D-01
56  5.5000000000000D-01  1.3668004977869D+00 -1.9712602214629D-01
57  5.6000000000000D-01  1.3677101902399D+00 -1.7614094355369D-01
58  5.7000000000000D-01  1.3673573815381D+00 -1.5417478897100D-01
59  5.8000000000000D-01  1.3657286214627D+00 -1.3120781431167D-01
60  5.9000000000000D-01  1.3628121748236D+00 -1.0722085064294D-01
61  6.0000000000000D-01  1.3585981701650D+00 -8.2195757836213D-02
62  6.1000000000000D-01  1.3530787479290D+00 -5.6115896256070D-02
63  6.2000000000000D-01  1.3462482069213D+00 -2.8966612056442D-02
64  6.3000000000000D-01  1.3381031478895D+00 -7.3573140763843D-04
65  6.4000000000000D-01  1.3286426129962D+00  2.8585941228183D-02
66  6.5000000000000D-01  1.3178682199574D+00  5.9004125818754D-02
67  6.6000000000000D-01  1.3057842896060D+00  9.0520575645576D-02
68  6.7000000000000D-01  1.2923979656471D+00  1.2313259758774D-01
69  6.8000000000000D-01  1.2777193253856D+00  1.5683258906826D-01
70  6.9000000000000D-01  1.2617614802293D+00  1.9160759690230D-01
71  7.0000000000000D-01  1.2445406648111D+00  2.2743890321284D-01
72  7.1000000000000D-01  1.2260763136132D+00  2.6430164345676D-01
73  7.2000000000000D-01  1.2063911240403D+00  3.0216446143188D-01
74  7.3000000000000D-01  1.1855111049484D+00  3.4098920591482D-01
75  7.4000000000000D-01  1.1634656097180D+00  3.8073067331096D-01
76  7.5000000000000D-01  1.1402873530434D+00  4.2133640038326D-01
77  7.6000000000000D-01  1.1160124107065D+00  4.6274651076919D-01
78  7.7000000000000D-01  1.0906802017060D+00  5.0489361859506D-01
79  7.8000000000000D-01  1.0643334522253D+00  5.4770279206032D-01
80  7.9000000000000D-01  1.0370181410397D+00  5.9109157939098D-01
81  8.0000000000000D-01  1.0087834260883D+00  6.3497009905741D-01
82  8.1000000000000D-01  9.7968155206626D-01  6.7924119562224D-01
83  8.2000000000000D-01  9.4976773902493D-01  7.2380066202785D-01
84  8.3000000000000D-01  9.1910005210787D-01  7.6853752856219D-01
85  8.4000000000000D-01  8.8773925268686D-01  8.1333441815588D-01
86  8.5000000000000D-01  8.5574863130465D-01  8.5806796706955D-01
87  8.6000000000000D-01  8.2319382297074D-01  9.0260930943348D-01
88  8.7000000000000D-01  7.9014260549607D-01  9.4682462350722D-01
89  8.8000000000000D-01  7.5666468168923D-01  9.9057573693935D-01
90  8.9000000000000D-01  7.2283144637038D-01  1.0337207877343D+00
91  9.0000000000000D-01  6.8871573928768D-01  1.0761149370773D+00
92  9.1000000000000D-01  6.5439158514406D-01  1.1176111296362D+00
93  9.2000000000000D-01  6.1993392205843D-01  1.1580608964556D+00
94  9.3000000000000D-01  5.8541831989263D-01  1.1973151950934D+00
95  9.4000000000000D-01  5.5092068997598D-01  1.2352252812114D+00
96  9.5000000000000D-01  5.1651698784722D-01  1.2716436054506D+00
97  9.6000000000000D-01  4.8228291071290D-01  1.3064247290771D+00
98  9.7000000000000D-01  4.4829359138760D-01  1.3394262515953D+00
99  9.8000000000000D-01  4.1462329053629D-01  1.3705097432885D+00
100  9.9000000000000D-01  3.8134508908062D-01  1.3995416754668D+00
101  1.0000000000000D+00  3.4853058265916D-01  1.4263943410821D+00
102  1.0100000000000D+00  3.1624958004578D-01  1.4509467583133D+00
103  1.0200000000000D+00  2.8456980743122D-01  1.4730855497219D+00
104  1.0300000000000D+00  2.5355662045837D-01  1.4927057896502D+00
105  1.0400000000000D+00  2.2327272587344D-01  1.5097118126617D+00
106  1.0500000000000D+00  1.9377791461299D-01  1.5240179760144D+00
107  1.0600000000000D+00  1.6512880808824D-01  1.5355493694211D+00
108  1.0700000000000D+00  1.3737861935893D-01  1.5442424656597D+00
109  1.0800000000000D+00  1.1057693080744D-01  1.5500457059593D+00
110  1.0900000000000D+00  8.4769489820734D-02  1.5529200145479D+00
111  1.1000000000000D+00  5.9998023885468D-02  1.5528392371996D+00
112  1.1100000000000D+00  3.6300076369250D-02  1.5497904992038D+00
113  1.1200000000000D+00  1.3708864152358D-02  1.5437744786614D+00
114  1.1300000000000D+00 -7.7468418898964D-03  1.5348055917302D+00
115  1.1400000000000D+00 -2.8042812689548D-02  1.5229120870416D+00
116  1.1500000000000D+00 -4.7159432381396D-02  1.5081360472616D+00
117  1.1600000000000D+00 -6.5081744728412D-02  1.4905332963322D+00
118  1.1700000000000D+00 -8.1799474217284D-02  1.4701732118133D+00
119  1.1800000000000D+00 -9.7307021619107D-02  1.4471384424090D+00
120  1.1900000000000D+00 -1.1160343400750D-01  1.4215245316139D+00
121  1.2000000000000D+00 -1.2469234932852D-01  1.3934394488509D+00
122  1.2100000000000D+00 -1.3658191588958D-01  1.3630030306346D+00
123  1.2200000000000D+00 -1.4728468725747D-01  1.3303463348070D+00
124  1.2300000000000D+00 -1.5681749319497D-01  1.2956109114771D+00
125  1.2400000000000D+00 -1.6520128747572D-01  1.2589479951781D+00
126  1.2500000000000D+00 -1.7246097358284D-01  1.2205176234209D+00
127  1.2600000000000D+00 -1.7862520939761D-01  1.1804876872362D+00
128  1.2700000000000D+00 -1.8372619214462D-01  1.1390329199459D+00
129  1.2800000000000D+00 -1.8779942504673D-01  1.0963338311252D+00
130  1.2900000000000D+00 -1.9088346718341D-01  1.0525755928598D+00
131  1.3000000000000D+00 -1.9301966818611D-01  1.0079468859551D+00
132  1.3100000000000D+00 -1.9425188955547D-01  9.6263871426160D-01
133  1.3200000000000D+00 -1.9462621437371D-01  9.1684319522766D-01
134  1.3300000000000D+00 -1.9419064732526D-01  8.7075233529363D-01
135  1.3400000000000D+00 -1.9299480699051D-01  8.2455679877124D-01
136  1.3500000000000D+00 -1.9108961236554D-01  7.7844467887146D-01
137  1.3600000000000D+00 -1.8852696566489D-01  7.3260027975730D-01
138  1.3700000000000D+00 -1.8535943339074D-01  6.8720291801432D-01
139  1.3800000000000D+00 -1.8163992773272D-01  6.4242575244422D-01
140  1.3900000000000D+00 -1.7742139026609D-01  5.9843465014614D-01
141  1.4000000000000D+00 -1.7275647990802D-01  5.5538709700210D-01
142  1.4100000000000D+00 -1.6769726712176D-01  5.1343116063772D-01
143  1.4200000000000D+00 -1.6229493606194D-01  4.7270451222995D-01
144  1.4300000000000D+00 -1.5659949664967D-01  4.3333351523020D-01
145  1.4400000000000D+00 -1.5065950806919D-01  3.9543238616080D-01
146  1.4500000000000D+00 -1.4452181534669D-01  3.5910243370124D-01
147  1.4600000000000D+00 -1.3823129983281D-01  3.2443137738151D-01
148  1.4700000000000D+00 -1.3183064799903D-01  2.9149276855393D-01
149  1.4800000000000D+00 -1.2536013321747D-01  2.6034547711342D-01
150  1.4900000000000D+00 -1.1885744366266D-01  2.3103343207123D-01
151  1.5000000000000D+00 -1.1235741417455D-01  2.0358481192542D-01
152  1.5100000000000D+00 -1.0589196990828D-01  1.7801240642526D-01
153  1.5200000000000D+00 -9.9490279505470D-02  1.5431519327386D-01
154  1.5300000000000D+00 -9.3178915949298D-02  1.3247973574037D-01
155  1.5400000000000D+00 -8.6982142382977D-02  1.1248217266058D-01
156  1.5500000000000D+00 -8.0921913696929D-02  9.4288543286078D-02
157  1.5600000000000D+00 -7.5017860965151D-02  7.7854937677228D-02
158  1.5700000000000D+00 -6.9287380381336D-02  6.3128290611994D-02
159  1.5800000000000D+00 -6.3745687673482D-02  5.0046934088689D-02
160  1.5900000000000D+00 -5.8405902983240D-02  3.8541316108929D-02
161  1.6000000000000D+00 -5.3279142782337D-02  2.8534743425665D-02
162  1.6100000000000D+00 -4.8374623917126D-02  1.9944179108008D-02
163  1.6200000000000D+00 -4.3699777379318D-02  1.2681081571941D-02
164  1.6300000000000D+00 -3.9260370703347D-02  6.6522790886453D-03
165  1.6400000000000D+00 -3.5060637465862D-02  1.7608716648522D-03
166  1.6500000000000D+00 -3.1103412549079D-02 -2.0928468328154D-03
167  1.6600000000000D+00 -2.7390271618763D-02 -5.0104545409359D-03
168  1.6700000000000D+00 -2.3921673402831D-02 -7.0944628898344D-03
169  1.6800000000000D+00 -2.0697103141068D-02 -8.4473819542651D-03
170  1.6900000000000D+00 -1.7715215864739D-02 -9.1707968694703D-03
171  1.7000000000000D+00 -1.4973977771743D-02 -9.3644644601717D-03
172  1.7100000000000D+00 -1.2470804536142D-02 -9.1254361219825D-03
173  1.7200000000000D+00 -1.0202694742022D-02 -8.5472164547752D-03
174  1.7300000000000D+00 -8.1663575001703D-03 -7.7189625387267D-03
175  1.7400000000000D+00 -6.3583324667248D-03 -6.7247331550776D-03
176  1.7500000000000D+00 -4.7751014896346D-03 -5.6427919799737D-03
177  1.7600000000000D+00 -3.4134341638363D-03 -4.5466791783160D-03
178  1.7700000000000D+00 -2.2696294495366D-03 -3.4986985490815D-03
179  1.7800000000000D+00 -1.3399108957167D-03 -2.5437022166912D-03
180  1.7900000000000D+00 -6.2233845113414D-04 -1.7444761374605D-03
181  1.8000000000000D+00 -1.1380711354872D-04 -1.1996309836624D-03
182  1.8100000000000D+00  1.8926061375107D-04 -9.1637739304778D-04
183  1.8200000000000D+00  2.7734330522923D-04 -6.8990113338239D-04
184  1.8300000000000D+00  1.6957167873933D-04 -3.4180810100229D-04
185  1.8400000000000D+00  1.6112661509351D-05 -2.9777711915490D-05
186  1.8500000000000D+00 -3.7062872027664D-05  6.5883069239473D-05
187  1.8600000000000D+00 -1.4092776789630D-05  2.4194342101393D-05
188  1.8700000000000D+00  7.0130507821906D-06 -1.3406431663744D-05
189  1.8800000000000D+00  5.3675546952486D-06 -1.0099834546521D-05
190  1.8900000000000D+00 -4.9221470082347D-07  1.2482205793292D-06
191  1.9000000000000D+00 -7.0184822327015D-07  1.7798359016621D-06
192  1.9100000000000D+00  0.0000000000000D+00  0.0000000000000D+00
193  1.9200000000000D+00  0.0000000000000D+00  0.0000000000000D+00
194  1.9300000000000D+00  0.0000000000000D+00  0.0000000000000D+00
195  1.9400000000000D+00  0.0000000000000D+00  0.0000000000000D+00
196  1.9500000000000D+00  0.0000000000000D+00  0.0000000000000D+00
197  1.9600000000000D+00  0.0000000000000D+00  0.0000000000000D+00
198  1.9700000000000D+00  0.0000000000000D+00  0.0000000000000D+00
199  1.9800000000000D+00  0.0000000000000D+00  0.0000000000000D+00
200  1.9900000000000D+00  0.0000000000000D+00  0.0000000000000D+00
201  2.0000000000000D+00  0.0000000000000D+00  0.0000000000000D+00
202  2.0100000000000D+00  0.0000000000000D+00  0.0000000000000D+00
203  2.0200000000000D+00  0.0000000000000D+00  0.0000000000000D+00
204  2.0300000000000D+00  0.0000000000000D+00  0.0000000000000D+00
205  2.0400000000000D+00  0.0000000000000D+00  0.0000000000000D+00
206  2.0500000000000D+00  0.0000000000000D+00  0.0000000000000D+00
207  2.0600000000000D+00  0.0000000000000D+00  0.0000000000000D+00
208  2.0700000000000D+00  0.0000000000000D+00  0.0000000000000D+00
209  2.0800000000000D+00  0.0000000000000D+00  0.0000000000000D+00
210  2.0900000000000D+00  0.0000000000000D+00  0.0000000000000D+00
211  2.1000000000000D+00  0.0000000000000D+00  0.0000000000000D+00
212  2.1100000000000D+00  0.0000000000000D+00  0.0000000000000D+00
213  2.1200000000000D+00  0.0000000000000D+00  0.0000000000000D+00
214  2.1300000000000D+00  0.0000000000000D+00  0.0000000000000D+00
215  2.1400000000000D+00  0.0000000000000D+00  0.0000000000000D+00
216  2.1500000000000D+00  0.0000000000000D+00  0.0000000000000D+00
217  2.1600000000000D+00  0.0000000000000D+00  0.0000000000000D+00
218  2.1700000000000D+00  0.0000000000000D+00  0.0000000000000D+00
219  2.1800000000000D+00  0.0000000000000D+00  0.0000000000000D+00
220  2.1900000000000D+00  0.0000000000000D+00  0.0000000000000D+00
221  2.2000000000000D+00  0.0000000000000D+00  0.0000000000000D+00
222  2.2100000000000D+00  0.0000000000000D+00  0.0000000000000D+00
223  2.2200000000000D+00  0.0000000000000D+00  0.0000000000000D+00
224  2.2300000000000D+00  0.0000000000000D+00  0.0000000000000D+00
225  2.2400000000000D+00  0.0000000000000D+00  0.0000000000000D+00
226  2.2500000000000D+00  0.0000000000000D+00  0.0000000000000D+00
227  2.2600000000000D+00  0.0000000000000D+00  0.0000000000000D+00
228  2.2700000000000D+00  0.0000000000000D+00  0.0000000000000D+00
229  2.2800000000000D+00  0.0000000000000D+00  0.0000000000000D+00
230  2.2900000000000D+00  0.0000000000000D+00  0.0000000000000D+00
231  2.3000000000000D+00  0.0000000000000D+00  0.0000000000000D+00
232  2.3100000000000D+00  0.0000000000000D+00  0.0000000000000D+00
233  2.3200000000000D+00  0.0000000000000D+00  0.0000000000000D+00
234  2.3300000000000D+00  0.0000000000000D+00  0.0000000000000D+00
235  2.3400000000000D+00  0.0000000000000D+00  0.0000000000000D+00
236  2.3500000000000D+00  0.0000000000000D+00  0.0000000000000D+00
237  2.3600000000000D+00  0.0000000000000D+00  0.0000000000000D+00
238  2.3700000000000D+00  0.0000000000000D+00  0.0000000000000D+00
239  2.3800000000000D+00  0.0000000000000D+00  0.0000000000000D+00
240  2.3900000000000D+00  0.0000000000000D+00  0.0000000000000D+00
241  2.4000000000000D+00  0.0000000000000D+00  0.0000000000000D+00
242  2.4100000000000D+00  0.0000000000000D+00  0.0000000000000D+00
243  2.4200000000000D+00  0.0000000000000D+00  0.0000000000000D+00
244  2.4300000000000D+00  0.0000000000000D+00  0.0000000000000D+00
245  2.4400000000000D+00  0.0000000000000D+00  0.0000000000000D+00
246  2.4500000000000D+00  0.0000000000000D+00  0.0000000000000D+00
247  2.4600000000000D+00  0.0000000000000D+00  0.0000000000000D+00
248  2.4700000000000D+00  0.0000000000000D+00  0.0000000000000D+00
249  2.4800000000000D+00  0.0000000000000D+00  0.0000000000000D+00
250  2.4900000000000D+00  0.0000000000000D+00  0.0000000000000D+00
251  2.5000000000000D+00  0.0000000000000D+00  0.0000000000000D+00
252  2.5100000000000D+00  0.0000000000000D+00  0.0000000000000D+00
253  2.5200000000000D+00  0.0000000000000D+00  0.0000000000000D+00
254  2.5300000000000D+00  0.0000000000000D+00  0.0000000000000D+00
255  2.5400000000000D+00  0.0000000000000D+00  0.0000000000000D+00
256  2.5500000000000D+00  0.0000000000000D+00  0.0000000000000D+00
257  2.5600000000000D+00  0.0000000000000D+00  0.0000000000000D+00
258  2.5700000000000D+00  0.0000000000000D+00  0.0000000000000D+00
259  2.5800000000000D+00  0.0000000000000D+00  0.0000000000000D+00
260  2.5900000000000D+00  0.0000000000000D+00  0.0000000000000D+00
261  2.6000000000000D+00  0.0000000000000D+00  0.0000000000000D+00
262  2.6100000000000D+00  0.0000000000000D+00  0.0000000000000D+00
263  2.6200000000000D+00  0.0000000000000D+00  0.0000000000000D+00
264  2.6300000000000D+00  0.0000000000000D+00  0.0000000000000D+00
265  2.6400000000000D+00  0.0000000000000D+00  0.0000000000000D+00
266  2.6500000000000D+00  0.0000000000000D+00  0.0000000000000D+00
267  2.6600000000000D+00  0.0000000000000D+00  0.0000000000000D+00
268  2.6700000000000D+00  0.0000000000000D+00  0.0000000000000D+00
269  2.6800000000000D+00  0.0000000000000D+00  0.0000000000000D+00
270  2.6900000000000D+00  0.0000000000000D+00  0.0000000000000D+00
271  2.7000000000000D+00  0.0000000000000D+00  0.0000000000000D+00
272  2.7100000000000D+00  0.0000000000000D+00  0.0000000000000D+00
273  2.7200000000000D+00  0.0000000000000D+00  0.0000000000000D+00
274  2.7300000000000D+00  0.0000000000000D+00  0.0000000000000D+00
275  2.7400000000000D+00  0.0000000000000D+00  0.0000000000000D+00
276  2.7500000000000D+00  0.0000000000000D+00  0.0000000000000D+00
277  2.7600000000000D+00  0.0000000000000D+00  0.0000000000000D+00
278  2.7700000000000D+00  0.0000000000000D+00  0.0000000000000D+00
279  2.7800000000000D+00  0.0000000000000D+00  0.0000000000000D+00
280  2.7900000000000D+00  0.0000000000000D+00  0.0000000000000D+00
281  2.8000000000000D+00  0.0000000000000D+00  0.0000000000000D+00
282  2.8100000000000D+00  0.0000000000000D+00  0.0000000000000D+00
283  2.8200000000000D+00  0.0000000000000D+00  0.0000000000000D+00
284  2.8300000000000D+00  0.0000000000000D+00  0.0000000000000D+00
285  2.8400000000000D+00  0.0000000000000D+00  0.0000000000000D+00
286  2.8500000000000D+00  0.0000000000000D+00  0.0000000000000D+00
287  2.8600000000000D+00  0.0000000000000D+00  0.0000000000000D+00
288  2.8700000000000D+00  0.0000000000000D+00  0.0000000000000D+00
289  2.8800000000000D+00  0.0000000000000D+00  0.0000000000000D+00
290  2.8900000000000D+00  0.0000000000000D+00  0.0000000000000D+00
291  2.9000000000000D+00  0.0000000000000D+00  0.0000000000000D+00
292  2.9100000000000D+00  0.0000000000000D+00  0.0000000000000D+00
293  2.9200000000000D+00  0.0000000000000D+00  0.0000000000000D+00
294  2.9300000000000D+00  0.0000000000000D+00  0.0000000000000D+00
295  2.9400000000000D+00  0.0000000000000D+00  0.0000000000000D+00
296  2.9500000000000D+00  0.0000000000000D+00  0.0000000000000D+00
297  2.9600000000000D+00  0.0000000000000D+00  0.0000000000000D+00
298  2.9700000000000D+00  0.0000000000000D+00  0.0000000000000D+00
299  2.9800000000000D+00  0.0000000000000D+00  0.0000000000000D+00
300  2.9900000000000D+00  0.0000000000000D+00  0.0000000000000D+00
301  3.0000000000000D+00  0.0000000000000D+00  0.0000000000000D+00
302  3.0100000000000D+00  0.0000000000000D+00  0.0000000000000D+00
303  3.0200000000000D+00  0.0000000000000D+00  0.0000000000000D+00
304  3.0300000000000D+00  0.0000000000000D+00  0.0000000000000D+00
305  3.0400000000000D+00  0.0000000000000D+00  0.0000000000000D+00
306  3.0500000000000D+00  0.0000000000000D+00  0.0000000000000D+00
307  3.0600000000000D+00  0.0000000000000D+00  0.0000000000000D+00
308  3.0700000000000D+00  0.0000000000000D+00  0.0000000000000D+00
309  3.0800000000000D+00  0.0000000000000D+00  0.0000000000000D+00
310  3.0900000000000D+00  0.0000000000000D+00  0.0000000000000D+00
311  3.1000000000000D+00  0.0000000000000D+00  0.0000000000000D+00
312  3.1100000000000D+00  0.0000000000000D+00  0.0000000000000D+00
313  3.1200000000000D+00  0.0000000000000D+00  0.0000000000000D+00
314  3.1300000000000D+00  0.0000000000000D+00  0.0000000000000D+00
315  3.1400000000000D+00  0.0000000000000D+00  0.0000000000000D+00
316  3.1500000000000D+00  0.0000000000000D+00  0.0000000000000D+00
317  3.1600000000000D+00  0.0000000000000D+00  0.0000000000000D+00
318  3.1700000000000D+00  0.0000000000000D+00  0.0000000000000D+00
319  3.1800000000000D+00  0.0000000000000D+00  0.0000000000000D+00
320  3.1900000000000D+00  0.0000000000000D+00  0.0000000000000D+00
321  3.2000000000000D+00  0.0000000000000D+00  0.0000000000000D+00
322  3.2100000000000D+00  0.0000000000000D+00  0.0000000000000D+00
323  3.2200000000000D+00  0.0000000000000D+00  0.0000000000000D+00
324  3.2300000000000D+00  0.0000000000000D+00  0.0000000000000D+00
325  3.2400000000000D+00  0.0000000000000D+00  0.0000000000000D+00
326  3.2500000000000D+00  0.0000000000000D+00  0.0000000000000D+00
327  3.2600000000000D+00  0.0000000000000D+00  0.0000000000000D+00
328  3.2700000000000D+00  0.0000000000000D+00  0.0000000000000D+00
329  3.2800000000000D+00  0.0000000000000D+00  0.0000000000000D+00
330  3.2900000000000D+00  0.0000000000000D+00  0.0000000000000D+00
331  3.3000000000000D+00  0.0000000000000D+00  0.0000000000000D+00
332  3.3100000000000D+00  0.0000000000000D+00  0.0000000000000D+00
333  3.3200000000000D+00  0.0000000000000D+00  0.0000000000000D+00
334  3.3300000000000D+00  0.0000000000000D+00  0.0000000000000D+00
335  3.3400000000000D+00  0.0000000000000D+00  0.0000000000000D+00
336  3.3500000000000D+00  0.0000000000000D+00  0.0000000000000D+00
337  3.3600000000000D+00  0.0000000000000D+00  0.0000000000000D+00
338  3.3700000000000D+00  0.0000000000000D+00  0.0000000000000D+00
339  3.3800000000000D+00  0.0000000000000D+00  0.0000000000000D+00
340  3.3900000000000D+00  0.0000000000000D+00  0.0000000000000D+00
341  3.4000000000000D+00  0.0000000000000D+00  0.0000000000000D+00
342  3.4100000000000D+00  0.0000000000000D+00  0.0000000000000D+00
343  3.4200000000000D+00  0.0000000000000D+00  0.0000000000000D+00
344  3.4300000000000D+00  0.0000000000000D+00  0.0000000000000D+00
345  3.4400000000000D+00  0.0000000000000D+00  0.0000000000000D+00
346  3.4500000000000D+00  0.0000000000000D+00  0.0000000000000D+00
347  3.4600000000000D+00  0.0000000000000D+00  0.0000000000000D+00
348  3.4700000000000D+00  0.0000000000000D+00  0.0000000000000D+00
349  3.4800000000000D+00  0.0000000000000D+00  0.0000000000000D+00
350  3.4900000000000D+00  0.0000000000000D+00  0.0000000000000D+00
351  3.5000000000000D+00  0.0000000000000D+00  0.0000000000000D+00
352  3.5100000000000D+00  0.0000000000000D+00  0.0000000000000D+00
353  3.5200000000000D+00  0.0000000000000D+00  0.0000000000000D+00
354  3.5300000000000D+00  0.0000000000000D+00  0.0000000000000D+00
355  3.5400000000000D+00  0.0000000000000D+00  0.0000000000000D+00
356  3.5500000000000D+00  0.0000000000000D+00  0.0000000000000D+00
357  3.5600000000000D+00  0.0000000000000D+00  0.0000000000000D+00
358  3.5700000000000D+00  0.0000000000000D+00  0.0000000000000D+00
359  3.5800000000000D+00  0.0000000000000D+00  0.0000000000000D+00
360  3.5900000000000D+00  0.0000000000000D+00  0.0000000000000D+00
361  3.6000000000000D+00  0.0000000000000D+00  0.0000000000000D+00
362  3.6100000000000D+00  0.0000000000000D+00  0.0000000000000D+00
363  3.6200000000000D+00  0.0000000000000D+00  0.0000000000000D+00
364  3.6300000000000D+00  0.0000000000000D+00  0.0000000000000D+00
365  3.6400000000000D+00  0.0000000000000D+00  0.0000000000000D+00
366  3.6500000000000D+00  0.0000000000000D+00  0.0000000000000D+00
367  3.6600000000000D+00  0.0000000000000D+00  0.0000000000000D+00
368  3.6700000000000D+00  0.0000000000000D+00  0.0000000000000D+00
369  3.6800000000000D+00  0.0000000000000D+00  0.0000000000000D+00
370  3.6900000000000D+00  0.0000000000000D+00  0.0000000000000D+00
371  3.7000000000000D+00  0.0000000000000D+00  0.0000000000000D+00
372  3.7100000000000D+00  0.0000000000000D+00  0.0000000000000D+00
373  3.7200000000000D+00  0.0000000000000D+00  0.0000000000000D+00
374  3.7300000000000D+00  0.0000000000000D+00  0.0000000000000D+00
375  3.7400000000000D+00  0.0000000000000D+00  0.0000000000000D+00
376  3.7500000000000D+00  0.0000000000000D+00  0.0000000000000D+00
377  3.7600000000000D+00  0.0000000000000D+00  0.0000000000000D+00
378  3.7700000000000D+00  0.0000000000000D+00  0.0000000000000D+00
379  3.7800000000000D+00  0.0000000000000D+00  0.0000000000000D+00
380  3.7900000000000D+00  0.0000000000000D+00  0.0000000000000D+00
381  3.8000000000000D+00  0.0000000000000D+00  0.0000000000000D+00
382  3.8100000000000D+00  0.0000000000000D+00  0.0000000000000D+00
383  3.8200000000000D+00  0.0000000000000D+00  0.0000000000000D+00
384  3.8300000000000D+00  0.0000000000000D+00  0.0000000000000D+00
385  3.8400000000000D+00  0.0000000000000D+00  0.0000000000000D+00
386  3.8500000000000D+00  0.0000000000000D+00  0.0000000000000D+00
387  3.8600000000000D+00  0.0000000000000D+00  0.0000000000000D+00
388  3.8700000000000D+00  0.0000000000000D+00  0.0000000000000D+00
389  3.8800000000000D+00  0.0000000000000D+00  0.0000000000000D+00
390  3.8900000000000D+00  0.0000000000000D+00  0.0000000000000D+00
391  3.9000000000000D+00  0.0000000000000D+00  0.0000000000000D+00
392  3.9100000000000D+00  0.0000000000000D+00  0.0000000000000D+00
393  3.9200000000000D+00  0.0000000000000D+00  0.0000000000000D+00
394  3.9300000000000D+00  0.0000000000000D+00  0.0000000000000D+00
395  3.9400000000000D+00  0.0000000000000D+00  0.0000000000000D+00
396  3.9500000000000D+00  0.0000000000000D+00  0.0000000000000D+00
397  3.9600000000000D+00  0.0000000000000D+00  0.0000000000000D+00
398  3.9700000000000D+00  0.0000000000000D+00  0.0000000000000D+00
399  3.9800000000000D+00  0.0000000000000D+00  0.0000000000000D+00
400  3.9900000000000D+00  0.0000000000000D+00  0.0000000000000D+00
401  4.0000000000000D+00  0.0000000000000D+00  0.0000000000000D+00
402  4.0100000000000D+00  0.0000000000000D+00  0.0000000000000D+00
403  4.0200000000000D+00  0.0000000000000D+00  0.0000000000000D+00
404  4.0300000000000D+00  0.0000000000000D+00  0.0000000000000D+00
405  4.0400000000000D+00  0.0000000000000D+00  0.0000000000000D+00
406  4.0500000000000D+00  0.0000000000000D+00  0.0000000000000D+00
407  4.0600000000000D+00  0.0000000000000D+00  0.0000000000000D+00
408  4.0700000000000D+00  0.0000000000000D+00  0.0000000000000D+00
409  4.0800000000000D+00  0.0000000000000D+00  0.0000000000000D+00
410  4.0900000000000D+00  0.0000000000000D+00  0.0000000000000D+00
411  4.1000000000000D+00  0.0000000000000D+00  0.0000000000000D+00
412  4.1100000000000D+00  0.0000000000000D+00  0.0000000000000D+00
413  4.1200000000000D+00  0.0000000000000D+00  0.0000000000000D+00
414  4.1300000000000D+00  0.0000000000000D+00  0.0000000000000D+00
415  4.1400000000000D+00  0.0000000000000D+00  0.0000000000000D+00
416  4.1500000000000D+00  0.0000000000000D+00  0.0000000000000D+00
417  4.1600000000000D+00  0.0000000000000D+00  0.0000000000000D+00
418  4.1700000000000D+00  0.0000000000000D+00  0.0000000000000D+00
419  4.1800000000000D+00  0.0000000000000D+00  0.0000000000000D+00
420  4.1900000000000D+00  0.0000000000000D+00  0.0000000000000D+00
421  4.2000000000000D+00  0.0000000000000D+00  0.0000000000000D+00
422  4.2100000000000D+00  0.0000000000000D+00  0.0000000000000D+00
423  4.2200000000000D+00  0.0000000000000D+00  0.0000000000000D+00
424  4.2300000000000D+00  0.0000000000000D+00  0.0000000000000D+00
425  4.2400000000000D+00  0.0000000000000D+00  0.0000000000000D+00
426  4.2500000000000D+00  0.0000000000000D+00  0.0000000000000D+00
427  4.2600000000000D+00  0.0000000000000D+00  0.0000000000000D+00
428  4.2700000000000D+00  0.0000000000000D+00  0.0000000000000D+00
429  4.2800000000000D+00  0.0000000000000D+00  0.0000000000000D+00
430  4.2900000000000D+00  0.0000000000000D+00  0.0000000000000D+00
431  4.3000000000000D+00  0.0000000000000D+00  0.0000000000000D+00
432  4.3100000000000D+00  0.0000000000000D+00  0.0000000000000D+00
433  4.3200000000000D+00  0.0000000000000D+00  0.0000000000000D+00
434  4.3300000000000D+00  0.0000000000000D+00  0.0000000000000D+00
435  4.3400000000000D+00  0.0000000000000D+00  0.0000000000000D+00
436  4.3500000000000D+00  0.0000000000000D+00  0.0000000000000D+00
437  4.3600000000000D+00  0.0000000000000D+00  0.0000000000000D+00
438  4.3700000000000D+00  0.0000000000000D+00  0.0000000000000D+00
439  4.3800000000000D+00  0.0000000000000D+00  0.0000000000000D+00
440  4.3900000000000D+00  0.0000000000000D+00  0.0000000000000D+00
441  4.4000000000000D+00  0.0000000000000D+00  0.0000000000000D+00
442  4.4100000000000D+00  0.0000000000000D+00  0.0000000000000D+00
443  4.4200000000000D+00  0.0000000000000D+00  0.0000000000000D+00
444  4.4300000000000D+00  0.0000000000000D+00  0.0000000000000D+00