Sb    ONCVPSP  r_core=  2.51  2.15  2.60
51.0000      5.0000      161004    zatom,zion,pspd
8 -116133   2     4   600     0    pspcod,pspxc,lmax,lloc,mmax,r2well
5.99000000  7.00000000  0.00000000    rchrg fchrg qchrg
2     2     2     0     0    nproj
1                 extension_switch
0                         4.5540127042471D+00  4.9761029995617D-01
1  0.0000000000000D+00  1.0258710547717D-11 -4.4751929592635D-11
2  1.0000000000000D-02  1.9955644551465D-02 -1.1518133870916D-03
3  2.0000000000000D-02  3.9915765461139D-02 -2.3376135506286D-03
4  3.0000000000000D-02  5.9884771520878D-02 -3.5911279440683D-03
5  4.0000000000000D-02  7.9866936801755D-02 -4.9455670858235D-03
6  5.0000000000000D-02  9.9866334320881D-02 -6.4333703577101D-03
7  6.0000000000000D-02  1.1988677093359D-01 -8.0859568907992D-03
8  7.0000000000000D-02  1.3993172384742D-01 -9.9334831818099D-03
9  8.0000000000000D-02  1.6000427914392D-01 -1.2004609038431D-02
10  9.0000000000000D-02  1.8010707268194D-01 -1.4326273396657D-02
11  1.0000000000000D-01  2.0024223374057D-01 -1.6923481487632D-02
12  1.1000000000000D-01  2.2041133174310D-01 -1.9819104756079D-02
13  1.2000000000000D-01  2.4061532638352D-01 -2.3033694847660D-02
14  1.3000000000000D-01  2.6085452145585D-01 -2.6585312889177D-02
15  1.4000000000000D-01  2.8112852266324D-01 -3.0489375183837D-02
16  1.5000000000000D-01  3.0143619965860D-01 -3.4758516334722D-02
17  1.6000000000000D-01  3.2177565254204D-01 -3.9402470693841D-02
18  1.7000000000000D-01  3.4214418301223D-01 -4.4427972912250D-02
19  1.8000000000000D-01  3.6253827033975D-01 -4.9838678239801D-02
20  1.9000000000000D-01  3.8295355230004D-01 -5.5635103091777D-02
21  2.0000000000000D-01  4.0338481117262D-01 -6.1814586264972D-02
22  2.1000000000000D-01  4.2382596488154D-01 -6.8371271048419D-02
23  2.2000000000000D-01  4.4427006331994D-01 -7.5296108335120D-02
24  2.3000000000000D-01  4.6470928986914D-01 -8.2576880701431D-02
25  2.4000000000000D-01  4.8513496809048D-01 -9.0198247281404D-02
26  2.5000000000000D-01  5.0553757353617D-01 -9.8141809125151D-02
27  2.6000000000000D-01  5.2590675059337D-01 -1.0638619459398D-01
28  2.7000000000000D-01  5.4623133424497D-01 -1.1490716421211D-01
29  2.8000000000000D-01  5.6649937660035D-01 -1.2367773426517D-01
30  2.9000000000000D-01  5.8669817801985D-01 -1.3266831831150D-01
31  3.0000000000000D-01  6.0681432262917D-01 -1.4184688565297D-01
32  3.1000000000000D-01  6.2683371799298D-01 -1.5117913569969D-01
33  3.2000000000000D-01  6.4674163869231D-01 -1.6062868705762D-01
34  3.3000000000000D-01  6.6652277352664D-01 -1.7015728007033D-01
35  3.4000000000000D-01  6.8616127604073D-01 -1.7972499145732D-01
36  3.5000000000000D-01  7.0564081805637D-01 -1.8929045961164D-01
37  3.6000000000000D-01  7.2494464587245D-01 -1.9881111904887D-01
38  3.7000000000000D-01  7.4405563878142D-01 -2.0824344244009D-01
39  3.8000000000000D-01  7.6295636953791D-01 -2.1754318861168D-01
40  3.9000000000000D-01  7.8162916640511D-01 -2.2666565485654D-01
41  4.0000000000000D-01  8.0005617639657D-01 -2.3556593187383D-01
42  4.1000000000000D-01  8.1821942932635D-01 -2.4419915963877D-01
43  4.2000000000000D-01  8.3610090227783D-01 -2.5252078249949D-01
44  4.3000000000000D-01  8.5368258410136D-01 -2.6048680180511D-01
45  4.4000000000000D-01  8.7094653955393D-01 -2.6805402438846D-01
46  4.5000000000000D-01  8.8787497269913D-01 -2.7518030525644D-01
47  4.6000000000000D-01  9.0445028919341D-01 -2.8182478288310D-01
48  4.7000000000000D-01  9.2065515709511D-01 -2.8794810555263D-01
49  4.8000000000000D-01  9.3647256584508D-01 -2.9351264726270D-01
50  4.9000000000000D-01  9.5188588308326D-01 -2.9848271177196D-01
51  5.0000000000000D-01  9.6687890898211D-01 -3.0282472345855D-01
52  5.1000000000000D-01  9.8143592779770D-01 -3.0650740374907D-01
53  5.2000000000000D-01  9.9554175636030D-01 -3.0950193197790D-01
54  5.3000000000000D-01  1.0091817892493D+00 -3.1178208964619D-01
55  5.4000000000000D-01  1.0223420404222D+00 -3.1332438716558D-01
56  5.5000000000000D-01  1.0350091810943D+00 -3.1410817229434D-01
57  5.6000000000000D-01  1.0471705736914D+00 -3.1411571960153D-01
58  5.7000000000000D-01  1.0588143017286D+00 -3.1333230042806D-01
59  5.8000000000000D-01  1.0699291954978D+00 -3.1174623294967D-01
60  5.9000000000000D-01  1.0805048534742D+00 -3.0934891208689D-01
61  6.0000000000000D-01  1.0905316593866D+00 -3.0613481914838D-01
62  6.1000000000000D-01  1.1000007949249D+00 -3.0210151123646D-01
63  6.2000000000000D-01  1.1089042480903D+00 -2.9724959058679D-01
64  6.3000000000000D-01  1.1172348172244D+00 -2.9158265415474D-01
65  6.4000000000000D-01  1.1249861107854D+00 -2.8510722390162D-01
66  6.5000000000000D-01  1.1321525429678D+00 -2.7783265837028D-01
67  6.6000000000000D-01  1.1387293252919D+00 -2.6977104627180D-01
68  6.7000000000000D-01  1.1447124543198D+00 -2.6093708293431D-01
69  6.8000000000000D-01  1.1500986956789D+00 -2.5134793058614D-01
70  6.9000000000000D-01  1.1548855646012D+00 -2.4102306356154D-01
71  7.0000000000000D-01  1.1590713032104D+00 -2.2998409962611D-01
72  7.1000000000000D-01  1.1626548548130D+00 -2.1825461871818D-01
73  7.2000000000000D-01  1.1656358354668D+00 -2.0585997049477D-01
74  7.3000000000000D-01  1.1680145031222D+00 -1.9282707215125D-01
75  7.4000000000000D-01  1.1697917246455D+00 -1.7918419805608D-01
76  7.5000000000000D-01  1.1709689410495D+00 -1.6496076280258D-01
77  7.6000000000000D-01  1.1715481312665D+00 -1.5018709932876D-01
78  7.7000000000000D-01  1.1715317748089D+00 -1.3489423379466D-01
79  7.8000000000000D-01  1.1709228136691D+00 -1.1911365893254D-01
80  7.9000000000000D-01  1.1697246138133D+00 -1.0287710759875D-01
81  8.0000000000000D-01  1.1679409266274D+00 -8.6216328258147D-02
82  8.1000000000000D-01  1.1655758506684D+00 -6.9162864120839D-02
83  8.2000000000000D-01  1.1626337940732D+00 -5.1747837627823D-02
84  8.3000000000000D-01  1.1591194379684D+00 -3.4001741946693D-02
85  8.4000000000000D-01  1.1550377012168D+00 -1.5954241091055D-02
86  8.5000000000000D-01  1.1503937068219D+00  2.3660197822118D-03
87  8.6000000000000D-01  1.1451927502987D+00  2.0931592414175D-02
88  8.7000000000000D-01  1.1394402703031D+00  3.9716390422358D-02
89  8.8000000000000D-01  1.1331418217904D+00  5.8695839906853D-02
90  8.9000000000000D-01  1.1263030519535D+00  7.7847014477669D-02
91  9.0000000000000D-01  1.1189296791690D+00  9.7148753607423D-02
92  9.1000000000000D-01  1.1110274751512D+00  1.1658176333476D-01
93  9.2000000000000D-01  1.1026022504897D+00  1.3612869847093D-01
94  9.3000000000000D-01  1.0936598437170D+00  1.5577422559685D-01
95  9.4000000000000D-01  1.0842061140208D+00  1.7550506627923D-01
96  9.5000000000000D-01  1.0742469376891D+00  1.9531002007988D-01
97  9.6000000000000D-01  1.0637882083383D+00  2.1517996708233D-01
98  9.7000000000000D-01  1.0528358409483D+00  2.3510784981276D-01
99  9.8000000000000D-01  1.0413957796909D+00  2.5508863458729D-01
100  9.9000000000000D-01  1.0294740095071D+00  2.7511925247370D-01
101  1.0000000000000D+00  1.0170765713551D+00  2.9519852021092D-01
102  1.0100000000000D+00  1.0042095810179D+00  3.1532704158620D-01
103  1.0200000000000D+00  9.9087925132789D-01  3.3550708991585D-01
104  1.0300000000000D+00  9.7709191763267D-01  3.5574247243286D-01
105  1.0400000000000D+00  9.6285406629773D-01  3.7603837752198D-01
106  1.0500000000000D+00  9.4817236601098D-01  3.9640120588396D-01
107  1.0600000000000D+00  9.3305370162635D-01  4.1683838684389D-01
108  1.0700000000000D+00  9.1750521025831D-01  4.3735818113959D-01
109  1.0800000000000D+00  9.0153431931440D-01  4.5796947164295D-01
110  1.0900000000000D+00  8.8514878612977D-01  4.7868154357768D-01
111  1.1000000000000D+00  8.6835673884889D-01  4.9950385588754D-01
112  1.1100000000000D+00  8.5116671818084D-01  5.2044580550076D-01
113  1.1200000000000D+00  8.3358771964143D-01  5.4151648629920D-01
114  1.1300000000000D+00  8.1562923588025D-01  5.6272444467668D-01
115  1.1400000000000D+00  7.9730129868319D-01  5.8407743360999D-01
116  1.1500000000000D+00  7.7861452023375D-01  6.0558216720369D-01
117  1.1600000000000D+00  7.5958013321308D-01  6.2724407769038D-01
118  1.1700000000000D+00  7.4021002931684D-01  6.4906707688136D-01
119  1.1800000000000D+00  7.2051679577059D-01  6.7105332405204D-01
120  1.1900000000000D+00  7.0051374943254D-01  6.9320300221821D-01
121  1.2000000000000D+00  6.8021496807561D-01  7.1551410474938D-01
122  1.2100000000000D+00  6.5963531845838D-01  7.3798223419198D-01
123  1.2200000000000D+00  6.3879048080900D-01  7.6060041511260D-01
124  1.2300000000000D+00  6.1769696935802D-01  7.8335892272249D-01
125  1.2400000000000D+00  5.9637214858048D-01  8.0624512893723D-01
126  1.2500000000000D+00  5.7483424483633D-01  8.2924336740299D-01
127  1.2600000000000D+00  5.5310235311482D-01  8.5233481894458D-01
128  1.2700000000000D+00  5.3119643861613D-01  8.7549741877282D-01
129  1.2800000000000D+00  5.0913733295106D-01  8.9870578657691D-01
130  1.2900000000000D+00  4.8694672475362D-01  9.2193118056530D-01
131  1.3000000000000D+00  4.6464714453436D-01  9.4514147637316D-01
132  1.3100000000000D+00  4.4226194366913D-01  9.6830117145746D-01
133  1.3200000000000D+00  4.1981526741644D-01  9.9137141560614D-01
134  1.3300000000000D+00  3.9733202191024D-01  1.0143100679501D+00
135  1.3400000000000D+00  3.7483783514818D-01  1.0370717805384D+00
136  1.3500000000000D+00  3.5235901196687D-01  1.0596081086650D+00
137  1.3600000000000D+00  3.2992248309818D-01  1.0818676476773D+00
138  1.3700000000000D+00  3.0755574844201D-01  1.1037961958078D+00
139  1.3800000000000D+00  2.8528681465141D-01  1.1253369427521D+00
140  1.3900000000000D+00  2.6314412729510D-01  1.1464306829521D+00
141  1.4000000000000D+00  2.4115649779446D-01  1.1670160528512D+00
142  1.4100000000000D+00  2.1935302540362D-01  1.1870297910639D+00
143  1.4200000000000D+00  1.9776301460477D-01  1.2064070199383D+00
144  1.4300000000000D+00  1.7641588818262D-01  1.2250815474729D+00
145  1.4400000000000D+00  1.5534109644967D-01  1.2429861876165D+00
146  1.4500000000000D+00  1.3456802299054D-01  1.2600530974398D+00
147  1.4600000000000D+00  1.1412588737963D-01  1.2762141292845D+00
148  1.4700000000000D+00  9.4043645391362D-02  1.2914011956923D+00
149  1.4800000000000D+00  7.4349887134965D-02  1.3055466453199D+00
150  1.4900000000000D+00  5.5072733722286D-02  1.3185836472336D+00
151  1.5000000000000D+00  3.6239732943171D-02  1.3304465815924D+00
152  1.5100000000000D+00  1.7877754561915D-02  1.3410714340893D+00
153  1.5200000000000D+00  1.2885779407945D-05  1.3503961918324D+00
154  1.5300000000000D+00 -1.7329672537332D-02  1.3583612380897D+00
155  1.5400000000000D+00 -3.4125708280990D-02  1.3649097434156D+00
156  1.5500000000000D+00 -5.0352098571798D-02  1.3699880505369D+00
157  1.5600000000000D+00 -6.5986907713928D-02  1.3735460505996D+00
158  1.5700000000000D+00 -8.1009481996166D-02  1.3755375480219D+00
159  1.5800000000000D+00 -9.5400540835937D-02  1.3759206117743D+00
160  1.5900000000000D+00 -1.0914226361870D-01  1.3746579103056D+00
161  1.6000000000000D+00 -1.2221837176907D-01  1.3717170281020D+00
162  1.6100000000000D+00 -1.3461420545212D-01  1.3670707612879D+00
163  1.6200000000000D+00 -1.4631679445881D-01  1.3606973903333D+00
164  1.6300000000000D+00 -1.5731492276608D-01  1.3525809276715D+00
165  1.6400000000000D+00 -1.6759918632850D-01  1.3427113383055D+00
166  1.6500000000000D+00 -1.7716204372056D-01  1.3310847317613D+00
167  1.6600000000000D+00 -1.8599785918418D-01  1.3177035234581D+00
168  1.6700000000000D+00 -1.9410293785162D-01  1.3025765645088D+00
169  1.6800000000000D+00 -2.0147555270330D-01  1.2857192380435D+00
170  1.6900000000000D+00 -2.0811596318667D-01  1.2671535217472D+00
171  1.7000000000000D+00 -2.1402642508378D-01  1.2469080148290D+00
172  1.7100000000000D+00 -2.1921119169334D-01  1.2250179297220D+00
173  1.7200000000000D+00 -2.2367650598388D-01  1.2015250470318D+00
174  1.7300000000000D+00 -2.2743058388503D-01  1.1764776344773D+00
175  1.7400000000000D+00 -2.3048358850022D-01  1.1499303288921D+00
176  1.7500000000000D+00 -2.3284759545019D-01  1.1219439822168D+00
177  1.7600000000000D+00 -2.3453654932896D-01  1.0925854714173D+00
178  1.7700000000000D+00 -2.3556621144856D-01  1.0619274731128D+00
179  1.7800000000000D+00 -2.3595409913138D-01  1.0300482040613D+00
180  1.7900000000000D+00 -2.3571941661200D-01  9.9703112778538D-01
181  1.8000000000000D+00 -2.3488297815613D-01  9.6296463000543D-01
182  1.8100000000000D+00 -2.3346712327411D-01  9.2794166236430D-01
183  1.8200000000000D+00 -2.3149562502947D-01  8.9205935881237D-01
184  1.8300000000000D+00 -2.2899359110121D-01  8.5541862319702D-01
185  1.8400000000000D+00 -2.2598735897495D-01  8.1812369403575D-01
186  1.8500000000000D+00 -2.2250438478358D-01  7.8028168443910D-01
187  1.8600000000000D+00 -2.1857312730479D-01  7.4200210370913D-01
188  1.8700000000000D+00 -2.1422292685816D-01  7.0339635956506D-01
189  1.8800000000000D+00 -2.0948388033306D-01  6.6457724630341D-01
190  1.8900000000000D+00 -2.0438671258319D-01  6.2565841998341D-01
191  1.9000000000000D+00 -1.9896264500943D-01  5.8675386417833D-01
192  1.9100000000000D+00 -1.9324326201384D-01  5.4797734927797D-01
193  1.9200000000000D+00 -1.8726037587686D-01  5.0944188777327D-01
194  1.9300000000000D+00 -1.8104589091463D-01  4.7125918915860D-01
195  1.9400000000000D+00 -1.7463166751387D-01  4.3353911718877D-01
196  1.9500000000000D+00 -1.6804938670517D-01  3.9638915215125D-01
197  1.9600000000000D+00 -1.6133041617761D-01  3.5991386228092D-01
198  1.9700000000000D+00 -1.5450567811442D-01  3.2421438574316D-01
199  1.9800000000000D+00 -1.4760551981443D-01  2.8938792747998D-01
200  1.9900000000000D+00 -1.4065958768245D-01  2.5552727339026D-01
201  2.0000000000000D+00 -1.3369670492870D-01  2.2272032316872D-01
202  2.0100000000000D+00 -1.2674475439851D-01  1.9104964817279D-01
203  2.0200000000000D+00 -1.1983056588133D-01  1.6059207108342D-01
204  2.0300000000000D+00 -1.1297980990884D-01  1.3141827639335D-01
205  2.0400000000000D+00 -1.0621689734523D-01  1.0359244832587D-01
206  2.0500000000000D+00 -9.9564885804346D-02  7.7171940716248D-02
207  2.0600000000000D+00 -9.3045393867390D-02  5.2206983101222D-02
208  2.0700000000000D+00 -8.6678521757910D-02  2.8740416728043D-02
209  2.0800000000000D+00 -8.0482780915749D-02  6.8074709564568D-03
210  2.0900000000000D+00 -7.4475033249237D-02 -1.3564414341845D-02
211  2.1000000000000D+00 -6.8670436281445D-02 -3.2355741735661D-02
212  2.1100000000000D+00 -6.3082389187231D-02 -4.9555109728538D-02
213  2.1200000000000D+00 -5.7722530264441D-02 -6.5159110997704D-02
214  2.1300000000000D+00 -5.2600679735899D-02 -7.9172506418236D-02
215  2.1400000000000D+00 -4.7724790961838D-02 -9.1608379825984D-02
216  2.1500000000000D+00 -4.3100970805279D-02 -1.0248793004979D-01
217  2.1600000000000D+00 -3.8733573417485D-02 -1.1183989303146D-01
218  2.1700000000000D+00 -3.4625256207145D-02 -1.1970013310079D-01
219  2.1800000000000D+00 -3.0777067459096D-02 -1.2611117912570D-01
220  2.1900000000000D+00 -2.7188565336634D-02 -1.3112156613706D-01
221  2.2000000000000D+00 -2.3857924392889D-02 -1.3478526435034D-01
222  2.2100000000000D+00 -2.0781954986094D-02 -1.3716157273694D-01
223  2.2200000000000D+00 -1.7956153200217D-02 -1.3831487923965D-01
224  2.2300000000000D+00 -1.5374794155510D-02 -1.3831417368722D-01
225  2.2400000000000D+00 -1.3031015491661D-02 -1.3723262489989D-01
226  2.2500000000000D+00 -1.0916896427538D-02 -1.3514718887423D-01
227  2.2600000000000D+00 -9.0235542720485D-03 -1.3213812803456D-01
228  2.2700000000000D+00 -7.3412390518261D-03 -1.2828854497004D-01
229  2.2800000000000D+00 -5.8594332652875D-03 -1.2368389321650D-01
230  2.2900000000000D+00 -4.5669551752958D-03 -1.1841147333474D-01
231  2.3000000000000D+00 -3.4520640007102D-03 -1.1255992155786D-01
232  2.3100000000000D+00 -2.5025673610743D-03 -1.0621868968918D-01
233  2.3200000000000D+00 -1.7059297637174D-03 -9.9477521637271D-02
234  2.3300000000000D+00 -1.0493815831999D-03 -9.2425929014325D-02
235  2.3400000000000D+00 -5.2002769134491D-04 -8.5152669927707D-02
236  2.3500000000000D+00 -1.0495533450128D-04 -7.7745232534913D-02
237  2.3600000000000D+00  2.0865937811351D-04 -7.0289326359924D-02
238  2.3700000000000D+00  4.3344793772504D-04 -6.2868388600251D-02
239  2.3800000000000D+00  5.8174796310004D-04 -5.5563101206739D-02
240  2.3900000000000D+00  6.6550553623708D-04 -4.8450926791200D-02
241  2.4000000000000D+00  6.9618251081350D-04 -4.1605668681291D-02
242  2.4100000000000D+00  6.8466700856491D-04 -3.5097046898572D-02
243  2.4200000000000D+00  6.4119036438113D-04 -2.8990304994945D-02
244  2.4300000000000D+00  5.7549871904550D-04 -2.3350895960455D-02
245  2.4400000000000D+00  4.9590970905937D-04 -1.8226435664268D-02
246  2.4500000000000D+00  4.0996820695377D-04 -1.3661028010349D-02
247  2.4600000000000D+00  3.2307476823932D-04 -9.6764943491956D-03
248  2.4700000000000D+00  2.4436594760925D-04 -6.3626404492407D-03
249  2.4800000000000D+00  1.8069264400403D-04 -3.7843366293426D-03
250  2.4900000000000D+00  1.3936336706143D-04 -1.9976316663060D-03
251  2.5000000000000D+00  1.1168078830307D-04 -8.8082031926442D-04
252  2.5100000000000D+00  8.8970822518331D-05 -2.8301393967769D-04
253  2.5200000000000D+00  5.8559794987090D-05 -1.8513786532258D-05
254  2.5300000000000D+00  2.7608489767338D-05  3.9565846702175D-05
255  2.5400000000000D+00  2.3400218224238D-06  5.7783600884143D-06
256  2.5500000000000D+00 -7.1029451503929D-06 -2.1377342693892D-05
257  2.5600000000000D+00 -6.4678533348727D-06 -2.3519132204540D-05
258  2.5700000000000D+00 -1.0172889575916D-06 -4.1850518843552D-06
259  2.5800000000000D+00  1.5132467385997D-06  2.6297971922527D-06
260  2.5900000000000D+00  1.6692876692942D-06  3.2859035865527D-06
261  2.6000000000000D+00  4.1280922124754D-07  8.9328767892202D-07
262  2.6100000000000D+00 -1.8193470185141D-07  5.1213232297091D-07
263  2.6200000000000D+00 -2.3674241805523D-07  6.6641186794258D-07
264  2.6300000000000D+00 -8.5431964086740D-08  2.4048446930945D-07
265  2.6400000000000D+00  0.0000000000000D+00  0.0000000000000D+00
266  2.6500000000000D+00  0.0000000000000D+00  0.0000000000000D+00
267  2.6600000000000D+00  0.0000000000000D+00  0.0000000000000D+00
268  2.6700000000000D+00  0.0000000000000D+00  0.0000000000000D+00
269  2.6800000000000D+00  0.0000000000000D+00  0.0000000000000D+00
270  2.6900000000000D+00  0.0000000000000D+00  0.0000000000000D+00
271  2.7000000000000D+00  0.0000000000000D+00  0.0000000000000D+00
272  2.7100000000000D+00  0.0000000000000D+00  0.0000000000000D+00
273  2.7200000000000D+00  0.0000000000000D+00  0.0000000000000D+00
274  2.7300000000000D+00  0.0000000000000D+00  0.0000000000000D+00
275  2.7400000000000D+00  0.0000000000000D+00  0.0000000000000D+00
276  2.7500000000000D+00  0.0000000000000D+00  0.0000000000000D+00
277  2.7600000000000D+00  0.0000000000000D+00  0.0000000000000D+00
278  2.7700000000000D+00  0.0000000000000D+00  0.0000000000000D+00
279  2.7800000000000D+00  0.0000000000000D+00  0.0000000000000D+00
280  2.7900000000000D+00  0.0000000000000D+00  0.0000000000000D+00
281  2.8000000000000D+00  0.0000000000000D+00  0.0000000000000D+00
282  2.8100000000000D+00  0.0000000000000D+00  0.0000000000000D+00
283  2.8200000000000D+00  0.0000000000000D+00  0.0000000000000D+00
284  2.8300000000000D+00  0.0000000000000D+00  0.0000000000000D+00
285  2.8400000000000D+00  0.0000000000000D+00  0.0000000000000D+00
286  2.8500000000000D+00  0.0000000000000D+00  0.0000000000000D+00
287  2.8600000000000D+00  0.0000000000000D+00  0.0000000000000D+00
288  2.8700000000000D+00  0.0000000000000D+00  0.0000000000000D+00
289  2.8800000000000D+00  0.0000000000000D+00  0.0000000000000D+00
290  2.8900000000000D+00  0.0000000000000D+00  0.0000000000000D+00
291  2.9000000000000D+00  0.0000000000000D+00  0.0000000000000D+00
292  2.9100000000000D+00  0.0000000000000D+00  0.0000000000000D+00
293  2.9200000000000D+00  0.0000000000000D+00  0.0000000000000D+00
294  2.9300000000000D+00  0.0000000000000D+00  0.0000000000000D+00
295  2.9400000000000D+00  0.0000000000000D+00  0.0000000000000D+00
296  2.9500000000000D+00  0.0000000000000D+00  0.0000000000000D+00
297  2.9600000000000D+00  0.0000000000000D+00  0.0000000000000D+00
298  2.9700000000000D+00  0.0000000000000D+00  0.0000000000000D+00
299  2.9800000000000D+00  0.0000000000000D+00  0.0000000000000D+00
300  2.9900000000000D+00  0.0000000000000D+00  0.0000000000000D+00
301  3.0000000000000D+00  0.0000000000000D+00  0.0000000000000D+00
302  3.0100000000000D+00  0.0000000000000D+00  0.0000000000000D+00
303  3.0200000000000D+00  0.0000000000000D+00  0.0000000000000D+00
304  3.0300000000000D+00  0.0000000000000D+00  0.0000000000000D+00
305  3.0400000000000D+00  0.0000000000000D+00  0.0000000000000D+00
306  3.0500000000000D+00  0.0000000000000D+00  0.0000000000000D+00
307  3.0600000000000D+00  0.0000000000000D+00  0.0000000000000D+00
308  3.0700000000000D+00  0.0000000000000D+00  0.0000000000000D+00
309  3.0800000000000D+00  0.0000000000000D+00  0.0000000000000D+00
310  3.0900000000000D+00  0.0000000000000D+00  0.0000000000000D+00
311  3.1000000000000D+00  0.0000000000000D+00  0.0000000000000D+00
312  3.1100000000000D+00  0.0000000000000D+00  0.0000000000000D+00
313  3.1200000000000D+00  0.0000000000000D+00  0.0000000000000D+00
314  3.1300000000000D+00  0.0000000000000D+00  0.0000000000000D+00
315  3.1400000000000D+00  0.0000000000000D+00  0.0000000000000D+00
316  3.1500000000000D+00  0.0000000000000D+00  0.0000000000000D+00
317  3.1600000000000D+00  0.0000000000000D+00  0.0000000000000D+00
318  3.1700000000000D+00  0.0000000000000D+00  0.0000000000000D+00
319  3.1800000000000D+00  0.0000000000000D+00  0.0000000000000D+00
320  3.1900000000000D+00  0.0000000000000D+00  0.0000000000000D+00
321  3.2000000000000D+00  0.0000000000000D+00  0.0000000000000D+00
322  3.2100000000000D+00  0.0000000000000D+00  0.0000000000000D+00
323  3.2200000000000D+00  0.0000000000000D+00  0.0000000000000D+00
324  3.2300000000000D+00  0.0000000000000D+00  0.0000000000000D+00
325  3.2400000000000D+00  0.0000000000000D+00  0.0000000000000D+00
326  3.2500000000000D+00  0.0000000000000D+00  0.0000000000000D+00
327  3.2600000000000D+00  0.0000000000000D+00  0.0000000000000D+00
328  3.2700000000000D+00  0.0000000000000D+00  0.0000000000000D+00
329  3.2800000000000D+00  0.0000000000000D+00  0.0000000000000D+00
330  3.2900000000000D+00  0.0000000000000D+00  0.0000000000000D+00
331  3.3000000000000D+00  0.0000000000000D+00  0.0000000000000D+00
332  3.3100000000000D+00  0.0000000000000D+00  0.0000000000000D+00
333  3.3200000000000D+00  0.0000000000000D+00  0.0000000000000D+00
334  3.3300000000000D+00  0.0000000000000D+00  0.0000000000000D+00
335  3.3400000000000D+00  0.0000000000000D+00  0.0000000000000D+00
336  3.3500000000000D+00  0.0000000000000D+00  0.0000000000000D+00
337  3.3600000000000D+00  0.0000000000000D+00  0.0000000000000D+00
338  3.3700000000000D+00  0.0000000000000D+00  0.0000000000000D+00
339  3.3800000000000D+00  0.0000000000000D+00  0.0000000000000D+00
340  3.3900000000000D+00  0.0000000000000D+00  0.0000000000000D+00
341  3.4000000000000D+00  0.0000000000000D+00  0.0000000000000D+00
342  3.4100000000000D+00  0.0000000000000D+00  0.0000000000000D+00
343  3.4200000000000D+00  0.0000000000000D+00  0.0000000000000D+00
344  3.4300000000000D+00  0.0000000000000D+00  0.0000000000000D+00
345  3.4400000000000D+00  0.0000000000000D+00  0.0000000000000D+00
346  3.4500000000000D+00  0.0000000000000D+00  0.0000000000000D+00
347  3.4600000000000D+00  0.0000000000000D+00  0.0000000000000D+00
348  3.4700000000000D+00  0.0000000000000D+00  0.0000000000000D+00
349  3.4800000000000D+00  0.0000000000000D+00  0.0000000000000D+00
350  3.4900000000000D+00  0.0000000000000D+00  0.0000000000000D+00
351  3.5000000000000D+00  0.0000000000000D+00  0.0000000000000D+00
352  3.5100000000000D+00  0.0000000000000D+00  0.0000000000000D+00
353  3.5200000000000D+00  0.0000000000000D+00  0.0000000000000D+00
354  3.5300000000000D+00  0.0000000000000D+00  0.0000000000000D+00
355  3.5400000000000D+00  0.0000000000000D+00  0.0000000000000D+00
356  3.5500000000000D+00  0.0000000000000D+00  0.0000000000000D+00
357  3.5600000000000D+00  0.0000000000000D+00  0.0000000000000D+00
358  3.5700000000000D+00  0.0000000000000D+00  0.0000000000000D+00
359  3.5800000000000D+00  0.0000000000000D+00  0.0000000000000D+00
360  3.5900000000000D+00  0.0000000000000D+00  0.0000000000000D+00
361  3.6000000000000D+00  0.0000000000000D+00  0.0000000000000D+00
362  3.6100000000000D+00  0.0000000000000D+00  0.0000000000000D+00
363  3.6200000000000D+00  0.0000000000000D+00  0.0000000000000D+00
364  3.6300000000000D+00  0.0000000000000D+00  0.0000000000000D+00
365  3.6400000000000D+00  0.0000000000000D+00  0.0000000000000D+00
366  3.6500000000000D+00  0.0000000000000D+00  0.0000000000000D+00
367  3.6600000000000D+00  0.0000000000000D+00  0.0000000000000D+00
368  3.6700000000000D+00  0.0000000000000D+00  0.0000000000000D+00
369  3.6800000000000D+00  0.0000000000000D+00  0.0000000000000D+00
370  3.6900000000000D+00  0.0000000000000D+00  0.0000000000000D+00
371  3.7000000000000D+00  0.0000000000000D+00  0.0000000000000D+00
372  3.7100000000000D+00  0.0000000000000D+00  0.0000000000000D+00
373  3.7200000000000D+00  0.0000000000000D+00  0.0000000000000D+00
374  3.7300000000000D+00  0.0000000000000D+00  0.0000000000000D+00
375  3.7400000000000D+00  0.0000000000000D+00  0.0000000000000D+00
376  3.7500000000000D+00  0.0000000000000D+00  0.0000000000000D+00
377  3.7600000000000D+00  0.0000000000000D+00  0.0000000000000D+00
378  3.7700000000000D+00  0.0000000000000D+00  0.0000000000000D+00
379  3.7800000000000D+00  0.0000000000000D+00  0.0000000000000D+00
380  3.7900000000000D+00  0.0000000000000D+00  0.0000000000000D+00
381  3.8000000000000D+00  0.0000000000000D+00  0.0000000000000D+00
382  3.8100000000000D+00  0.0000000000000D+00  0.0000000000000D+00
383  3.8200000000000D+00  0.0000000000000D+00  0.0000000000000D+00
384  3.8300000000000D+00  0.0000000000000D+00  0.0000000000000D+00
385  3.8400000000000D+00  0.0000000000000D+00  0.0000000000000D+00
386  3.8500000000000D+00  0.0000000000000D+00  0.0000000000000D+00
387  3.8600000000000D+00  0.0000000000000D+00  0.0000000000000D+00
388  3.8700000000000D+00  0.0000000000000D+00  0.0000000000000D+00
389  3.8800000000000D+00  0.0000000000000D+00  0.0000000000000D+00
390  3.8900000000000D+00  0.0000000000000D+00  0.0000000000000D+00
391  3.9000000000000D+00  0.0000000000000D+00  0.0000000000000D+00
392  3.9100000000000D+00  0.0000000000000D+00  0.0000000000000D+00
393  3.9200000000000D+00  0.0000000000000D+00  0.0000000000000D+00
394  3.9300000000000D+00  0.0000000000000D+00  0.0000000000000D+00
395  3.9400000000000D+00  0.0000000000000D+00  0.0000000000000D+00
396  3.9500000000000D+00  0.0000000000000D+00  0.0000000000000D+00
397  3.9600000000000D+00  0.0000000000000D+00  0.0000000000000D+00
398  3.9700000000000D+00  0.0000000000000D+00  0.0000000000000D+00
399  3.9800000000000D+00  0.0000000000000D+00  0.0000000000000D+00
400  3.9900000000000D+00  0.0000000000000D+00  0.0000000000000D+00
401  4.0000000000000D+00  0.0000000000000D+00  0.0000000000000D+00
402  4.0100000000000D+00  0.0000000000000D+00  0.0000000000000D+00
403  4.0200000000000D+00  0.0000000000000D+00  0.0000000000000D+00
404  4.0300000000000D+00  0.0000000000000D+00  0.0000000000000D+00
405  4.0400000000000D+00  0.0000000000000D+00  0.0000000000000D+00
406  4.0500000000000D+00  0.0000000000000D+00  0.0000000000000D+00
407  4.0600000000000D+00  0.0000000000000D+00  0.0000000000000D+00
408  4.0700000000000D+00  0.0000000000000D+00  0.0000000000000D+00
409  4.0800000000000D+00  0.0000000000000D+00  0.0000000000000D+00
410  4.0900000000000D+00  0.0000000000000D+00  0.0000000000000D+00
411  4.1000000000000D+00  0.0000000000000D+00  0.0000000000000D+00
412  4.1100000000000D+00  0.0000000000000D+00  0.0000000000000D+00
413  4.1200000000000D+00  0.0000000000000D+00  0.0000000000000D+00
414  4.1300000000000D+00  0.0000000000000D+00  0.0000000000000D+00
415  4.1400000000000D+00  0.0000000000000D+00  0.0000000000000D+00
416  4.1500000000000D+00  0.0000000000000D+00  0.0000000000000D+00
417  4.1600000000000D+00  0.0000000000000D+00  0.0000000000000D+00
418  4.1700000000000D+00  0.0000000000000D+00  0.0000000000000D+00
419  4.1800000000000D+00  0.0000000000000D+00  0.0000000000000D+00
420  4.1900000000000D+00  0.0000000000000D+00  0.0000000000000D+00
421  4.2000000000000D+00  0.0000000000000D+00  0.0000000000000D+00
422  4.2100000000000D+00  0.0000000000000D+00  0.0000000000000D+00
423  4.2200000000000D+00  0.0000000000000D+00  0.0000000000000D+00
424  4.2300000000000D+00  0.0000000000000D+00  0.0000000000000D+00
425  4.2400000000000D+00  0.0000000000000D+00  0.0000000000000D+00
426  4.2500000000000D+00  0.0000000000000D+00  0.0000000000000D+00
427  4.2600000000000D+00  0.0000000000000D+00  0.0000000000000D+00
428  4.2700000000000D+00  0.0000000000000D+00  0.0000000000000D+00
429  4.2800000000000D+00  0.0000000000000D+00  0.0000000000000D+00
430  4.2900000000000D+00  0.0000000000000D+00  0.0000000000000D+00
431  4.3000000000000D+00  0.0000000000000D+00  0.0000000000000D+00
432  4.3100000000000D+00  0.0000000000000D+00  0.0000000000000D+00
433  4.3200000000000D+00  0.0000000000000D+00  0.0000000000000D+00
434  4.3300000000000D+00  0.0000000000000D+00  0.0000000000000D+00
435  4.3400000000000D+00  0.0000000000000D+00  0.0000000000000D+00
436  4.3500000000000D+00  0.0000000000000D+00  0.0000000000000D+00
437  4.3600000000000D+00  0.0000000000000D+00  0.0000000000000D+00
438  4.3700000000000D+00  0.0000000000000D+00  0.0000000000000D+00
439  4.3800000000000D+00  0.0000000000000D+00  0.0000000000000D+00
440  4.3900000000000D+00  0.0000000000000D+00  0.0000000000000D+00
441  4.4000000000000D+00  0.0000000000000D+00  0.0000000000000D+00
442  4.4100000000000D+00  0.0000000000000D+00  0.0000000000000D+00
443  4.4200000000000D+00  0.0000000000000D+00  0.0000000000000D+00
444  4.4300000000000D+00  0.0000000000000D+00  0.0000000000000D+00