Lu    ONCVPSP-3.2.3  r_core=   1.56315   1.60089   1.45518   1.86943
71.0000     25.0000      170213    zatom,zion,pspd
8      11   3     4   600     0    pspcod,pspxc,lmax,lloc,mmax,r2well
5.99000000  4.00000000  0.00000000    rchrg fchrg qchrg
2     4     4     2    nproj
3     1           extension_switch
4     4     3    nprojso
0                         1.3336393158394D+00  1.2938983112216D+01
1  0.0000000000000D+00  5.8920313072974D-10 -1.0956380247507D-10
2  1.0000000000000D-02 -2.0361928244566D-02  4.7142514185343D-02
3  2.0000000000000D-02 -4.0640646865789D-02  9.4245398179247D-02
4  3.0000000000000D-02 -6.0753655494555D-02  1.4126904568164D-01
5  4.0000000000000D-02 -8.0619861470147D-02  1.8817389685933D-01
6  5.0000000000000D-02 -1.0016025684618D-01  2.3492045831824D-01
7  6.0000000000000D-02 -1.1929856360206D-01  2.8146931924116D-01
8  7.0000000000000D-02 -1.3796183716196D-01  3.2778116254361D-01
9  8.0000000000000D-02 -1.5608101891254D-01  3.7381677000956D-01
10  9.0000000000000D-02 -1.7359142913379D-01  4.1953702050321D-01
11  1.0000000000000D-01 -1.9043319260481D-01  4.6490288050943D-01
12  1.1000000000000D-01 -2.0655159010929D-01  5.0987538643223D-01
13  1.2000000000000D-01 -2.2189733013009D-01  5.5441561827575D-01
14  1.3000000000000D-01 -2.3642673617710D-01  5.9848466454165D-01
15  1.4000000000000D-01 -2.5010184642193D-01  6.4204357839849D-01
16  1.5000000000000D-01 -2.6289042360257D-01  6.8505332540891D-01
17  1.6000000000000D-01 -2.7476587449328D-01  7.2747472333576D-01
18  1.7000000000000D-01 -2.8570707959434D-01  7.6926837478525D-01
19  1.8000000000000D-01 -2.9569813506355D-01  8.1039459367970D-01
20  1.9000000000000D-01 -3.0472801027021D-01  8.5081332678165D-01
21  2.0000000000000D-01 -3.1279012568376D-01  8.9048407170971D-01
22  2.1000000000000D-01 -3.1988185709577D-01  9.2936579309272D-01
23  2.2000000000000D-01 -3.2600397339809D-01  9.6741683869711D-01
24  2.3000000000000D-01 -3.3116001628443D-01  1.0045948575307D+00
25  2.4000000000000D-01 -3.3535563129055D-01  1.0408567220701D+00
26  2.5000000000000D-01 -3.3859786052589D-01  1.0761584568779D+00
27  2.6000000000000D-01 -3.4089440825943D-01  1.1104551759597D+00
28  2.7000000000000D-01 -3.4225289119569D-01  1.1437010312724D+00
29  2.8000000000000D-01 -3.4268008579754D-01  1.1758491748096D+00
30  2.9000000000000D-01 -3.4218118537449D-01  1.2068517366805D+00
31  3.0000000000000D-01 -3.4075907984743D-01  1.2366598215433D+00
32  3.1000000000000D-01 -3.3841367111918D-01  1.2652235256641D+00
33  3.2000000000000D-01 -3.3514123682004D-01  1.2924919767423D+00
34  3.3000000000000D-01 -3.3093385485610D-01  1.3184133984782D+00
35  3.4000000000000D-01 -3.2577890066665D-01  1.3429352016480D+00
36  3.5000000000000D-01 -3.1965862839858D-01  1.3660041032145D+00
37  3.6000000000000D-01 -3.1254984633295D-01  1.3875662747188D+00
38  3.7000000000000D-01 -3.0442369586181D-01  1.4075675208920D+00
39  3.8000000000000D-01 -2.9524554211975D-01  1.4259534890829D+00
40  3.9000000000000D-01 -2.8497498303588D-01  1.4426699097312D+00
41  4.0000000000000D-01 -2.7356598210346D-01  1.4576628677240D+00
42  4.1000000000000D-01 -2.6096712858034D-01  1.4708791040654D+00
43  4.2000000000000D-01 -2.4712202715176D-01  1.4822663468625D+00
44  4.3000000000000D-01 -2.3196981732860D-01  1.4917736701973D+00
45  4.4000000000000D-01 -2.1544582103677D-01  1.4993518790169D+00
46  4.5000000000000D-01 -1.9748231500311D-01  1.5049539177347D+00
47  4.6000000000000D-01 -1.7800942267871D-01  1.5085352998042D+00
48  4.7000000000000D-01 -1.5695611858962D-01  1.5100545551099D+00
49  4.8000000000000D-01 -1.3425133618968D-01  1.5094736916160D+00
50  4.9000000000000D-01 -1.0982516853499D-01  1.5067586673398D+00
51  5.0000000000000D-01 -8.3610149431037D-02  1.5018798683665D+00
52  5.1000000000000D-01 -5.5542601142552D-02  1.4948125883113D+00
53  5.2000000000000D-01 -2.5564033328446D-02  1.4855375043645D+00
54  5.3000000000000D-01  6.3774234093812D-03  1.4740411448252D+00
55  5.4000000000000D-01  4.0325567072744D-02  1.4603163428564D+00
56  5.5000000000000D-01  7.6314675522946D-02  1.4443626710719D+00
57  5.6000000000000D-01  1.1436807875188D-01  1.4261868514986D+00
58  5.7000000000000D-01  1.5449677194090D-01  1.4058031354578D+00
59  5.8000000000000D-01  1.9669808930801D-01  1.3832336479663D+00
60  5.9000000000000D-01  2.4095445872375D-01  1.3585086913833D+00
61  6.0000000000000D-01  2.8723225680014D-01  1.3316670032200D+00
62  6.1000000000000D-01  3.3548078362448D-01  1.3027559632832D+00
63  6.2000000000000D-01  3.8563137551627D-01  1.2718317456473D+00
64  6.3000000000000D-01  4.3759667313574D-01  1.2389594113308D+00
65  6.4000000000000D-01  4.9127006097776D-01  1.2042129380021D+00
66  6.5000000000000D-01  5.4652529273950D-01  1.1676751835417D+00
67  6.6000000000000D-01  6.0321631528935D-01  1.1294377808460D+00
68  6.7000000000000D-01  6.6117730198649D-01  1.0896009618648D+00
69  6.8000000000000D-01  7.2022290392718D-01  1.0482733095152D+00
70  6.9000000000000D-01  7.8014872535432D-01  1.0055714368049D+00
71  7.0000000000000D-01  8.4073202699130D-01  9.6161959321274D-01
72  7.1000000000000D-01  9.0173265844521D-01  9.1654919911902D-01
73  7.2000000000000D-01  9.6289421814253D-01  8.7049830983562D-01
74  7.3000000000000D-01  1.0239454365116D+00  8.2361101154703D-01
75  7.4000000000000D-01  1.0846017753491D+00  7.7603675223835D-01
76  7.5000000000000D-01  1.1445672335591D+00  7.2792961143363D-01
77  7.6000000000000D-01  1.2035363467169D+00  6.7944751330335D-01
78  7.7000000000000D-01  1.2611963652861D+00  6.3075138839931D-01
79  7.8000000000000D-01  1.3172295937850D+00  5.8200428994096D-01
80  7.9000000000000D-01  1.3713158708222D+00  5.3337047119561D-01
81  8.0000000000000D-01  1.4231351677234D+00  4.8501443105863D-01
82  8.1000000000000D-01  1.4723702814835D+00  4.3709993544134D-01
83  8.2000000000000D-01  1.5187095960345D+00  3.8978902250583D-01
84  8.3000000000000D-01  1.5618498843350D+00  3.4324100014161D-01
85  8.4000000000000D-01  1.6014991226045D+00  2.9761144435230D-01
86  8.5000000000000D-01  1.6373792871423D+00  2.5305120740716D-01
87  8.6000000000000D-01  1.6692291036255D+00  2.0970544470792D-01
88  8.7000000000000D-01  1.6968067185722D+00  1.6771266932294D-01
89  8.8000000000000D-01  1.7198922627966D+00  1.2720384304695D-01
90  8.9000000000000D-01  1.7382902771842D+00  8.8301512654072D-02
91  9.0000000000000D-01  1.7518319719691D+00  5.1118999725540D-02
92  9.1000000000000D-01  1.7603772918989D+00  1.5759652052510D-02
93  9.2000000000000D-01  1.7638167612255D+00 -1.7683835857998D-02
94  9.3000000000000D-01  1.7620730843371D+00 -4.9130026206146D-02
95  9.4000000000000D-01  1.7551024800373D+00 -7.8509258926161D-02
96  9.5000000000000D-01  1.7428957299622D+00 -1.0576408471104D-01
97  9.6000000000000D-01  1.7254789243675D+00 -1.3084960521739D-01
98  9.7000000000000D-01  1.7029138915047D+00 -1.5373371648194D-01
99  9.8000000000000D-01  1.6752982999707D+00 -1.7439725247931D-01
100  9.9000000000000D-01  1.6427654268396D+00 -1.9283402671401D-01
101  1.0000000000000D+00  1.6054835876807D+00 -2.0905077066560D-01
102  1.0100000000000D+00  1.5636552283547D+00 -2.2306696896437D-01
103  1.0200000000000D+00  1.5175156819209D+00 -2.3491459213503D-01
104  1.0300000000000D+00  1.4673315976527D+00 -2.4463772876559D-01
105  1.0400000000000D+00  1.4133990526880D+00 -2.5229211993885D-01
106  1.0500000000000D+00  1.3560413604170D+00 -2.5794459975704D-01
107  1.0600000000000D+00  1.2956065927749D+00 -2.6167244663947D-01
108  1.0700000000000D+00  1.2324648370940D+00 -2.6356265104089D-01
109  1.0800000000000D+00  1.1670052109076D+00 -2.6371110599807D-01
110  1.0900000000000D+00  1.0996326608177D+00 -2.6222172766855D-01
111  1.1000000000000D+00  1.0307645740433D+00 -2.5920551372425D-01
112  1.1100000000000D+00  9.6082723302687D-01 -2.5477954795584D-01
113  1.1200000000000D+00  8.9025214564197D-01 -2.4906596005442D-01
114  1.1300000000000D+00  8.1947228455200D-01 -2.4219084982718D-01
115  1.1400000000000D+00  7.4891827032204D-01 -2.3428318541347D-01
116  1.1500000000000D+00  6.7901453339057D-01 -2.2547368522173D-01
117  1.1600000000000D+00  6.1017549023660D-01 -2.1589369339946D-01
118  1.1700000000000D+00  5.4280176868335D-01 -2.0567405856323D-01
119  1.1800000000000D+00  4.7727651627172D-01 -1.9494402527494D-01
120  1.1900000000000D+00  4.1396182525141D-01 -1.8383014766135D-01
121  1.2000000000000D+00  3.5319530537987D-01 -1.7245523398101D-01
122  1.2100000000000D+00  2.9528683394412D-01 -1.6093733048460D-01
123  1.2200000000000D+00  2.4051551051104D-01 -1.4938875242643D-01
124  1.2300000000000D+00  1.8912684120580D-01 -1.3791516938688D-01
125  1.2400000000000D+00  1.4133017361312D-01 -1.2661475110147D-01
126  1.2500000000000D+00  9.7296400726058D-02 -1.1557737929488D-01
127  1.2600000000000D+00  5.7155949995682D-02 -1.0488393040265D-01
128  1.2700000000000D+00  2.0997057606289D-02 -9.4605630574471D-02
129  1.2800000000000D+00 -1.1135640743859D-02 -8.4803489758239D-02
130  1.2900000000000D+00 -3.9242110434117D-02 -7.5527836273482D-02
131  1.3000000000000D+00 -6.3367667218836D-02 -6.6817914964119D-02
132  1.3100000000000D+00 -8.3604920892897D-02 -5.8701283369514D-02
133  1.3200000000000D+00 -1.0008818681236D-01 -5.1194663637974D-02
134  1.3300000000000D+00 -1.1298630496692D-01 -4.4305183210095D-02
135  1.3400000000000D+00 -1.2249387562058D-01 -3.8032067989859D-02
136  1.3500000000000D+00 -1.2882777922648D-01 -3.2367372236727D-02
137  1.3600000000000D+00 -1.3222584006588D-01 -2.7296349387519D-02
138  1.3700000000000D+00 -1.3294350036717D-01 -2.2798200047552D-02
139  1.3800000000000D+00 -1.3125099334560D-01 -1.8846750640632D-02
140  1.3900000000000D+00 -1.2743018526739D-01 -1.5411208033684D-02
141  1.4000000000000D+00 -1.2177135085709D-01 -1.2456939742297D-02
142  1.4100000000000D+00 -1.1456985921456D-01 -9.9462810325673D-03
143  1.4200000000000D+00 -1.0612281289089D-01 -7.8393584447662D-03
144  1.4300000000000D+00 -9.6725678094058D-02 -6.0949197782805D-03
145  1.4400000000000D+00 -8.6668940168234D-02 -4.6711615557699D-03
146  1.4500000000000D+00 -7.6234825596311D-02 -3.5265432645786D-03
147  1.4600000000000D+00 -6.5694121697385D-02 -2.6205801153788D-03
148  1.4700000000000D+00 -5.5303123458178D-02 -1.9146062855987D-03
149  1.4800000000000D+00 -4.5300753898019D-02 -1.3724970506717D-03
150  1.4900000000000D+00 -3.5905891553727D-02 -9.6134114700310D-04
151  1.5000000000000D+00 -2.7314916126075D-02 -6.5205947475511D-04
152  1.5100000000000D+00 -1.9701086869887D-02 -4.1997254428774D-04
153  1.5200000000000D+00 -1.3209942388083D-02 -2.4527000485447D-04
154  1.5300000000000D+00 -7.9278041790503D-03 -1.1369397485651D-04
155  1.5400000000000D+00 -3.9842810659084D-03 -1.5880029577687D-05
156  1.5500000000000D+00 -1.5517842158839D-03  5.5005300738980D-05
157  1.5600000000000D+00 -4.2028634053332D-04  8.7510372488656D-05
158  1.5700000000000D+00 -4.3657911444610D-05  6.0736192334261D-05
159  1.5800000000000D+00  4.3065438989008D-06  8.2983453351150D-06
160  1.5900000000000D+00 -1.0930847668292D-05 -1.0346166111591D-05
161  1.6000000000000D+00 -1.7264009708855D-06 -1.2002443399022D-06
162  1.6100000000000D+00  8.5932105237664D-07  2.2651721671224D-06
163  1.6200000000000D+00  1.8562692328382D-08  3.3454138199398D-08
164  1.6300000000000D+00  7.0459558569097D-07 -2.4451578983529D-07
165  1.6400000000000D+00  0.0000000000000D+00  0.0000000000000D+00
166  1.6500000000000D+00  0.0000000000000D+00  0.0000000000000D+00
167  1.6600000000000D+00  0.0000000000000D+00  0.0000000000000D+00
168  1.6700000000000D+00  0.0000000000000D+00  0.0000000000000D+00
169  1.6800000000000D+00  0.0000000000000D+00  0.0000000000000D+00
170  1.6900000000000D+00  0.0000000000000D+00  0.0000000000000D+00
171  1.7000000000000D+00  0.0000000000000D+00  0.0000000000000D+00
172  1.7100000000000D+00  0.0000000000000D+00  0.0000000000000D+00
173  1.7200000000000D+00  0.0000000000000D+00  0.0000000000000D+00
174  1.7300000000000D+00  0.0000000000000D+00  0.0000000000000D+00
175  1.7400000000000D+00  0.0000000000000D+00  0.0000000000000D+00
176  1.7500000000000D+00  0.0000000000000D+00  0.0000000000000D+00
177  1.7600000000000D+00  0.0000000000000D+00  0.0000000000000D+00
178  1.7700000000000D+00  0.0000000000000D+00  0.0000000000000D+00
179  1.7800000000000D+00  0.0000000000000D+00  0.0000000000000D+00
180  1.7900000000000D+00  0.0000000000000D+00  0.0000000000000D+00
181  1.8000000000000D+00  0.0000000000000D+00  0.0000000000000D+00
182  1.8100000000000D+00  0.0000000000000D+00  0.0000000000000D+00
183  1.8200000000000D+00  0.0000000000000D+00  0.0000000000000D+00
184  1.8300000000000D+00  0.0000000000000D+00  0.0000000000000D+00
185  1.8400000000000D+00  0.0000000000000D+00  0.0000000000000D+00
186  1.8500000000000D+00  0.0000000000000D+00  0.0000000000000D+00
187  1.8600000000000D+00  0.0000000000000D+00  0.0000000000000D+00
188  1.8700000000000D+00  0.0000000000000D+00  0.0000000000000D+00
189  1.8800000000000D+00  0.0000000000000D+00  0.0000000000000D+00
190  1.8900000000000D+00  0.0000000000000D+00  0.0000000000000D+00
191  1.9000000000000D+00  0.0000000000000D+00  0.0000000000000D+00
192  1.9100000000000D+00  0.0000000000000D+00  0.0000000000000D+00
193  1.9200000000000D+00  0.0000000000000D+00  0.0000000000000D+00
194  1.9300000000000D+00  0.0000000000000D+00  0.0000000000000D+00
195  1.9400000000000D+00  0.0000000000000D+00  0.0000000000000D+00
196  1.9500000000000D+00  0.0000000000000D+00  0.0000000000000D+00
197  1.9600000000000D+00  0.0000000000000D+00  0.0000000000000D+00
198  1.9700000000000D+00  0.0000000000000D+00  0.0000000000000D+00
199  1.9800000000000D+00  0.0000000000000D+00  0.0000000000000D+00
200  1.9900000000000D+00  0.0000000000000D+00  0.0000000000000D+00
201  2.0000000000000D+00  0.0000000000000D+00  0.0000000000000D+00
202  2.0100000000000D+00  0.0000000000000D+00  0.0000000000000D+00
203  2.0200000000000D+00  0.0000000000000D+00  0.0000000000000D+00
204  2.0300000000000D+00  0.0000000000000D+00  0.0000000000000D+00
205  2.0400000000000D+00  0.0000000000000D+00  0.0000000000000D+00
206  2.0500000000000D+00  0.0000000000000D+00  0.0000000000000D+00
207  2.0600000000000D+00  0.0000000000000D+00  0.0000000000000D+00
208  2.0700000000000D+00  0.0000000000000D+00  0.0000000000000D+00
209  2.0800000000000D+00  0.0000000000000D+00  0.0000000000000D+00
210  2.0900000000000D+00  0.0000000000000D+00  0.0000000000000D+00
211  2.1000000000000D+00  0.0000000000000D+00  0.0000000000000D+00
212  2.1100000000000D+00  0.0000000000000D+00  0.0000000000000D+00
213  2.1200000000000D+00  0.0000000000000D+00  0.0000000000000D+00
214  2.1300000000000D+00  0.0000000000000D+00  0.0000000000000D+00
215  2.1400000000000D+00  0.0000000000000D+00  0.0000000000000D+00
216  2.1500000000000D+00  0.0000000000000D+00  0.0000000000000D+00
217  2.1600000000000D+00  0.0000000000000D+00  0.0000000000000D+00
218  2.1700000000000D+00  0.0000000000000D+00  0.0000000000000D+00
219  2.1800000000000D+00  0.0000000000000D+00  0.0000000000000D+00
220  2.1900000000000D+00  0.0000000000000D+00  0.0000000000000D+00
221  2.2000000000000D+00  0.0000000000000D+00  0.0000000000000D+00
222  2.2100000000000D+00  0.0000000000000D+00  0.0000000000000D+00
223  2.2200000000000D+00  0.0000000000000D+00  0.0000000000000D+00
224  2.2300000000000D+00  0.0000000000000D+00  0.0000000000000D+00
225  2.2400000000000D+00  0.0000000000000D+00  0.0000000000000D+00
226  2.2500000000000D+00  0.0000000000000D+00  0.0000000000000D+00
227  2.2600000000000D+00  0.0000000000000D+00  0.0000000000000D+00
228  2.2700000000000D+00  0.0000000000000D+00  0.0000000000000D+00
229  2.2800000000000D+00  0.0000000000000D+00  0.0000000000000D+00
230  2.2900000000000D+00  0.0000000000000D+00  0.0000000000000D+00
231  2.3000000000000D+00  0.0000000000000D+00  0.0000000000000D+00
232  2.3100000000000D+00  0.0000000000000D+00  0.0000000000000D+00
233  2.3200000000000D+00  0.0000000000000D+00  0.0000000000000D+00
234  2.3300000000000D+00  0.0000000000000D+00  0.0000000000000D+00
235  2.3400000000000D+00  0.0000000000000D+00  0.0000000000000D+00
236  2.3500000000000D+00  0.0000000000000D+00  0.0000000000000D+00
237  2.3600000000000D+00  0.0000000000000D+00  0.0000000000000D+00
238  2.3700000000000D+00  0.0000000000000D+00  0.0000000000000D+00
239  2.3800000000000D+00  0.0000000000000D+00  0.0000000000000D+00
240  2.3900000000000D+00  0.0000000000000D+00  0.0000000000000D+00
241  2.4000000000000D+00  0.0000000000000D+00  0.0000000000000D+00
242  2.4100000000000D+00  0.0000000000000D+00  0.0000000000000D+00
243  2.4200000000000D+00  0.0000000000000D+00  0.0000000000000D+00
244  2.4300000000000D+00  0.0000000000000D+00  0.0000000000000D+00
245  2.4400000000000D+00  0.0000000000000D+00  0.0000000000000D+00
246  2.4500000000000D+00  0.0000000000000D+00  0.0000000000000D+00
247  2.4600000000000D+00  0.0000000000000D+00  0.0000000000000D+00
248  2.4700000000000D+00  0.0000000000000D+00  0.0000000000000D+00
249  2.4800000000000D+00  0.0000000000000D+00  0.0000000000000D+00
250  2.4900000000000D+00  0.0000000000000D+00  0.0000000000000D+00
251  2.5000000000000D+00  0.0000000000000D+00  0.0000000000000D+00
252  2.5100000000000D+00  0.0000000000000D+00  0.0000000000000D+00
253  2.5200000000000D+00  0.0000000000000D+00  0.0000000000000D+00
254  2.5300000000000D+00  0.0000000000000D+00  0.0000000000000D+00
255  2.5400000000000D+00  0.0000000000000D+00  0.0000000000000D+00
256  2.5500000000000D+00  0.0000000000000D+00  0.0000000000000D+00
257  2.5600000000000D+00  0.0000000000000D+00  0.0000000000000D+00
258  2.5700000000000D+00  0.0000000000000D+00  0.0000000000000D+00
259  2.5800000000000D+00  0.0000000000000D+00  0.0000000000000D+00
260  2.5900000000000D+00  0.0000000000000D+00  0.0000000000000D+00
261  2.6000000000000D+00  0.0000000000000D+00  0.0000000000000D+00
262  2.6100000000000D+00  0.0000000000000D+00  0.0000000000000D+00
263  2.6200000000000D+00  0.0000000000000D+00  0.0000000000000D+00
264  2.6300000000000D+00  0.0000000000000D+00  0.0000000000000D+00
265  2.6400000000000D+00  0.0000000000000D+00  0.0000000000000D+00
266  2.6500000000000D+00  0.0000000000000D+00  0.0000000000000D+00
267  2.6600000000000D+00  0.0000000000000D+00  0.0000000000000D+00
268  2.6700000000000D+00  0.0000000000000D+00  0.0000000000000D+00
269  2.6800000000000D+00  0.0000000000000D+00  0.0000000000000D+00
270  2.6900000000000D+00  0.0000000000000D+00  0.0000000000000D+00
271  2.7000000000000D+00  0.0000000000000D+00  0.0000000000000D+00
272  2.7100000000000D+00  0.0000000000000D+00  0.0000000000000D+00
273  2.7200000000000D+00  0.0000000000000D+00  0.0000000000000D+00
274  2.7300000000000D+00  0.0000000000000D+00  0.0000000000000D+00
275  2.7400000000000D+00  0.0000000000000D+00  0.0000000000000D+00
276  2.7500000000000D+00  0.0000000000000D+00  0.0000000000000D+00
277  2.7600000000000D+00  0.0000000000000D+00  0.0000000000000D+00
278  2.7700000000000D+00  0.0000000000000D+00  0.0000000000000D+00
279  2.7800000000000D+00  0.0000000000000D+00  0.0000000000000D+00
280  2.7900000000000D+00  0.0000000000000D+00  0.0000000000000D+00
281  2.8000000000000D+00  0.0000000000000D+00  0.0000000000000D+00
282  2.8100000000000D+00  0.0000000000000D+00  0.0000000000000D+00
283  2.8200000000000D+00  0.0000000000000D+00  0.0000000000000D+00
284  2.8300000000000D+00  0.0000000000000D+00  0.0000000000000D+00
285  2.8400000000000D+00  0.0000000000000D+00  0.0000000000000D+00
286  2.8500000000000D+00  0.0000000000000D+00  0.0000000000000D+00
287  2.8600000000000D+00  0.0000000000000D+00  0.0000000000000D+00
288  2.8700000000000D+00  0.0000000000000D+00  0.0000000000000D+00
289  2.8800000000000D+00  0.0000000000000D+00  0.0000000000000D+00
290  2.8900000000000D+00  0.0000000000000D+00  0.0000000000000D+00
291  2.9000000000000D+00  0.0000000000000D+00  0.0000000000000D+00
292  2.9100000000000D+00  0.0000000000000D+00  0.0000000000000D+00
293  2.9200000000000D+00  0.0000000000000D+00  0.0000000000000D+00
294  2.9300000000000D+00  0.0000000000000D+00  0.0000000000000D+00
295  2.9400000000000D+00  0.0000000000000D+00  0.0000000000000D+00
296  2.9500000000000D+00  0.0000000000000D+00  0.0000000000000D+00
297  2.9600000000000D+00  0.0000000000000D+00  0.0000000000000D+00
298  2.9700000000000D+00  0.0000000000000D+00  0.0000000000000D+00
299  2.9800000000000D+00  0.0000000000000D+00  0.0000000000000D+00
300  2.9900000000000D+00  0.0000000000000D+00  0.0000000000000D+00
301  3.0000000000000D+00  0.0000000000000D+00  0.0000000000000D+00
302  3.0100000000000D+00  0.0000000000000D+00  0.0000000000000D+00
303  3.0200000000000D+00  0.0000000000000D+00  0.0000000000000D+00
304  3.0300000000000D+00  0.0000000000000D+00  0.0000000000000D+00
305  3.0400000000000D+00  0.0000000000000D+00  0.0000000000000D+00
306  3.0500000000000D+00  0.0000000000000D+00  0.0000000000000D+00
307  3.0600000000000D+00  0.0000000000000D+00  0.0000000000000D+00
308  3.0700000000000D+00  0.0000000000000D+00  0.0000000000000D+00
309  3.0800000000000D+00  0.0000000000000D+00  0.0000000000000D+00
310  3.0900000000000D+00  0.0000000000000D+00  0.0000000000000D+00
311  3.1000000000000D+00  0.0000000000000D+00  0.0000000000000D+00
312  3.1100000000000D+00  0.0000000000000D+00  0.0000000000000D+00
313  3.1200000000000D+00  0.0000000000000D+00  0.0000000000000D+00
314  3.1300000000000D+00  0.0000000000000D+00  0.0000000000000D+00
315  3.1400000000000D+00  0.0000000000000D+00  0.0000000000000D+00
316  3.1500000000000D+00  0.0000000000000D+00  0.0000000000000D+00
317  3.1600000000000D+00  0.0000000000000D+00  0.0000000000000D+00
318  3.1700000000000D+00  0.0000000000000D+00  0.0000000000000D+00
319  3.1800000000000D+00  0.0000000000000D+00  0.0000000000000D+00
320  3.1900000000000D+00  0.0000000000000D+00  0.0000000000000D+00
321  3.2000000000000D+00  0.0000000000000D+00  0.0000000000000D+00
322  3.2100000000000D+00  0.0000000000000D+00  0.0000000000000D+00
323  3.2200000000000D+00  0.0000000000000D+00  0.0000000000000D+00
324  3.2300000000000D+00  0.0000000000000D+00  0.0000000000000D+00
325  3.2400000000000D+00  0.0000000000000D+00  0.0000000000000D+00
326  3.2500000000000D+00  0.0000000000000D+00  0.0000000000000D+00
327  3.2600000000000D+00  0.0000000000000D+00  0.0000000000000D+00
328  3.2700000000000D+00  0.0000000000000D+00  0.0000000000000D+00
329  3.2800000000000D+00  0.0000000000000D+00  0.0000000000000D+00
330  3.2900000000000D+00  0.0000000000000D+00  0.0000000000000D+00
331  3.3000000000000D+00  0.0000000000000D+00  0.0000000000000D+00
332  3.3100000000000D+00  0.0000000000000D+00  0.0000000000000D+00
333  3.3200000000000D+00  0.0000000000000D+00  0.0000000000000D+00
334  3.3300000000000D+00  0.0000000000000D+00  0.0000000000000D+00
335  3.3400000000000D+00  0.0000000000000D+00  0.0000000000000D+00
336  3.3500000000000D+00  0.0000000000000D+00  0.0000000000000D+00
337  3.3600000000000D+00  0.0000000000000D+00  0.0000000000000D+00
338  3.3700000000000D+00  0.0000000000000D+00  0.0000000000000D+00
339  3.3800000000000D+00  0.0000000000000D+00  0.0000000000000D+00
340  3.3900000000000D+00  0.0000000000000D+00  0.0000000000000D+00
341  3.4000000000000D+00  0.0000000000000D+00  0.0000000000000D+00
342  3.4100000000000D+00  0.0000000000000D+00  0.0000000000000D+00
343  3.4200000000000D+00  0.0000000000000D+00  0.0000000000000D+00
344  3.4300000000000D+00  0.0000000000000D+00  0.0000000000000D+00
345  3.4400000000000D+00  0.0000000000000D+00  0.0000000000000D+00
346  3.4500000000000D+00  0.0000000000000D+00  0.0000000000000D+00
347  3.4600000000000D+00  0.0000000000000D+00  0.0000000000000D+00
348  3.4700000000000D+00  0.0000000000000D+00  0.0000000000000D+00
349  3.4800000000000D+00  0.0000000000000D+00  0.0000000000000D+00
350  3.4900000000000D+00  0.0000000000000D+00  0.0000000000000D+00
351  3.5000000000000D+00  0.0000000000000D+00  0.0000000000000D+00
352  3.5100000000000D+00  0.0000000000000D+00  0.0000000000000D+00
353  3.5200000000000D+00  0.0000000000000D+00  0.0000000000000D+00
354  3.5300000000000D+00  0.0000000000000D+00  0.0000000000000D+00
355  3.5400000000000D+00  0.0000000000000D+00  0.0000000000000D+00
356  3.5500000000000D+00  0.0000000000000D+00  0.0000000000000D+00
357  3.5600000000000D+00  0.0000000000000D+00  0.0000000000000D+00
358  3.5700000000000D+00  0.0000000000000D+00  0.0000000000000D+00
359  3.5800000000000D+00  0.0000000000000D+00  0.0000000000000D+00
360  3.5900000000000D+00  0.0000000000000D+00  0.0000000000000D+00
361  3.6000000000000D+00  0.0000000000000D+00  0.0000000000000D+00
362  3.6100000000000D+00  0.0000000000000D+00  0.0000000000000D+00
363  3.6200000000000D+00  0.0000000000000D+00  0.0000000000000D+00
364  3.6300000000000D+00  0.0000000000000D+00  0.0000000000000D+00
365  3.6400000000000D+00  0.0000000000000D+00  0.0000000000000D+00
366  3.6500000000000D+00  0.0000000000000D+00  0.0000000000000D+00
367  3.6600000000000D+00  0.0000000000000D+00  0.0000000000000D+00
368  3.6700000000000D+00  0.0000000000000D+00  0.0000000000000D+00
369  3.6800000000000D+00  0.0000000000000D+00  0.0000000000000D+00
370  3.6900000000000D+00  0.0000000000000D+00  0.0000000000000D+00
371  3.7000000000000D+00  0.0000000000000D+00  0.0000000000000D+00
372  3.7100000000000D+00  0.0000000000000D+00  0.0000000000000D+00
373  3.7200000000000D+00  0.0000000000000D+00  0.0000000000000D+00
374  3.7300000000000D+00  0.0000000000000D+00  0.0000000000000D+00
375  3.7400000000000D+00  0.0000000000000D+00  0.0000000000000D+00
376  3.7500000000000D+00  0.0000000000000D+00  0.0000000000000D+00
377  3.7600000000000D+00  0.0000000000000D+00  0.0000000000000D+00
378  3.7700000000000D+00  0.0000000000000D+00  0.0000000000000D+00
379  3.7800000000000D+00  0.0000000000000D+00  0.0000000000000D+00
380  3.7900000000000D+00  0.0000000000000D+00  0.0000000000000D+00
381  3.8000000000000D+00  0.0000000000000D+00  0.0000000000000D+00
382  3.8100000000000D+00  0.0000000000000D+00  0.0000000000000D+00
383  3.8200000000000D+00  0.0000000000000D+00  0.0000000000000D+00
384  3.8300000000000D+00  0.0000000000000D+00  0.0000000000000D+00
385  3.8400000000000D+00  0.0000000000000D+00  0.0000000000000D+00
386  3.8500000000000D+00  0.0000000000000D+00  0.0000000000000D+00
387  3.8600000000000D+00  0.0000000000000D+00  0.0000000000000D+00
388  3.8700000000000D+00  0.0000000000000D+00  0.0000000000000D+00
389  3.8800000000000D+00  0.0000000000000D+00  0.0000000000000D+00
390  3.8900000000000D+00  0.0000000000000D+00  0.0000000000000D+00
391  3.9000000000000D+00  0.0000000000000D+00  0.0000000000000D+00
392  3.9100000000000D+00  0.0000000000000D+00  0.0000000000000D+00
393  3.9200000000000D+00  0.0000000000000D+00  0.0000000000000D+00
394  3.9300000000000D+00  0.0000000000000D+00  0.0000000000000D+00
395  3.9400000000000D+00  0.0000000000000D+00  0.0000000000000D+00
396  3.9500000000000D+00  0.0000000000000D+00  0.0000000000000D+00
397  3.9600000000000D+00  0.0000000000000D+00  0.0000000000000D+00
398  3.9700000000000D+00  0.0000000000000D+00  0.0000000000000D+00
399  3.9800000000000D+00  0.0000000000000D+00  0.0000000000000D+00
400  3.9900000000000D+00  0.0000000000000D+00  0.0000000000000D+00
401  4.0000000000000D+00  0.0000000000000D+00  0.0000000000000D+00
402  4.0100000000000D+00  0.0000000000000D+00  0.0000000000000D+00
403  4.0200000000000D+00  0.0000000000000D+00  0.0000000000000D+00
404  4.0300000000000D+00  0.0000000000000D+00  0.0000000000000D+00
405  4.0400000000000D+00  0.0000000000000D+00  0.0000000000000D+00
406  4.0500000000000D+00  0.0000000000000D+00  0.0000000000000D+00
407  4.0600000000000D+00  0.0000000000000D+00  0.0000000000000D+00
408  4.0700000000000D+00  0.0000000000000D+00  0.0000000000000D+00
409  4.0800000000000D+00  0.0000000000000D+00  0.0000000000000D+00
410  4.0900000000000D+00  0.0000000000000D+00  0.0000000000000D+00
411  4.1000000000000D+00  0.0000000000000D+00  0.0000000000000D+00
412  4.1100000000000D+00  0.0000000000000D+00  0.0000000000000D+00
413  4.1200000000000D+00  0.0000000000000D+00  0.0000000000000D+00
414  4.1300000000000D+00  0.0000000000000D+00  0.0000000000000D+00
415  4.1400000000000D+00  0.0000000000000D+00  0.0000000000000D+00
416  4.1500000000000D+00  0.0000000000000D+00  0.0000000000000D+00
417  4.1600000000000D+00  0.0000000000000D+00  0.0000000000000D+00
418  4.1700000000000D+00  0.0000000000000D+00  0.0000000000000D+00
419  4.1800000000000D+00  0.0000000000000D+00  0.0000000000000D+00
420  4.1900000000000D+00  0.0000000000000D+00  0.0000000000000D+00
421  4.2000000000000D+00  0.0000000000000D+00  0.0000000000000D+00
422  4.2100000000000D+00  0.0000000000000D+00  0.0000000000000D+00
423  4.2200000000000D+00  0.0000000000000D+00  0.0000000000000D+00
424  4.2300000000000D+00  0.0000000000000D+00  0.0000000000000D+00
425  4.2400000000000D+00  0.0000000000000D+00  0.0000000000000D+00
426  4.2500000000000D+00  0.0000000000000D+00  0.0000000000000D+00
427  4.2600000000000D+00  0.0000000000000D+00  0.0000000000000D+00
428  4.2700000000000D+00  0.0000000000000D+00  0.0000000000000D+00
429  4.2800000000000D+00  0.0000000000000D+00  0.0000000000000D+00
430  4.2900000000000D+00  0.0000000000000D+00  0.0000000000000D+00
431  4.3000000000000D+00  0.0000000000000D+00  0.0000000000000D+00
432  4.3100000000000D+00  0.0000000000000D+00  0.0000000000000D+00
433  4.3200000000000D+00  0.0000000000000D+00  0.0000000000000D+00
434  4.3300000000000D+00  0.0000000000000D+00  0.0000000000000D+00
435  4.3400000000000D+00  0.0000000000000D+00  0.0000000000000D+00
436  4.3500000000000D+00  0.0000000000000D+00  0.0000000000000D+00
437  4.3600000000000D+00  0.0000000000000D+00  0.0000000000000D+00
438  4.3700000000000D+00  0.0000000000000D+00  0.0000000000000D+00
439  4.3800000000000D+00  0.0000000000000D+00  0.0000000000000D+00
440  4.3900000000000D+00  0.0000000000000D+00  0.0000000000000D+00
441  4.4000000000000D+00  0.0000000000000D+00  0.0000000000000D+00
442  4.4100000000000D+00  0.0000000000000D+00  0.0000000000000D+00
443  4.4200000000000D+00  0.0000000000000D+00  0.0000000000000D+00