Ga    ONCVPSP-3.2.3.1  r_core=   1.66857   1.75011   1.90252
31.0000     13.0000      170504    zatom,zion,pspd
8      11   2     4   600     0    pspcod,pspxc,lmax,lloc,mmax,r2well
5.99000000  5.00000000  0.00000000    rchrg fchrg qchrg
2     2     2     0     0    nproj
1     1           extension_switch
0                         7.0297819100491D+00  1.1446754534975D+00
1  0.0000000000000D+00  1.6597837809024D-09 -3.1243767018019D-09
2  1.0000000000000D-02 -1.5150748519401D-03  4.6206510899994D-02
3  2.0000000000000D-02 -2.7215143336088D-03  9.1832522305198D-02
4  3.0000000000000D-02 -3.3143166159496D-03  1.3630430908401D-01
5  4.0000000000000D-02 -2.9957070991108D-03  1.7906162003531D-01
6  5.0000000000000D-02 -1.4786528200116D-03  2.1956422866591D-01
7  6.0000000000000D-02  1.5097410001354D-03  2.5729826277984D-01
8  7.0000000000000D-02  6.2249895876561D-03  2.9178224285340D-01
9  8.0000000000000D-02  1.2902178087130D-02  3.2257276229460D-01
10  9.0000000000000D-02  2.1753135488525D-02  3.4926974652896D-01
11  1.0000000000000D-01  3.2963864225617D-02  3.7152123237652D-01
12  1.1000000000000D-01  4.6692253922174D-02  3.8902761433887D-01
13  1.2000000000000D-01  6.3066104717172D-02  4.0154531014665D-01
14  1.3000000000000D-01  8.2181482280125D-02  4.0888980416671D-01
15  1.4000000000000D-01  1.0410142306721D-01  4.1093803396814D-01
16  1.5000000000000D-01  1.2885500460586D-01  4.0763009242804D-01
17  1.6000000000000D-01  1.5643679166921D-01  3.9897022514527D-01
18  1.7000000000000D-01  1.8680666515371D-01  3.8502711054674D-01
19  1.8000000000000D-01  2.1989003634610D-01  3.6593341783519D-01
20  1.9000000000000D-01  2.5557844510286D-01  3.4188464575776D-01
21  2.0000000000000D-01  2.9373053631101D-01  3.1313725298793D-01
22  2.1000000000000D-01  3.3417340489699D-01  2.8000609862728D-01
23  2.2000000000000D-01  3.7670429564432D-01  2.4286121886487D-01
24  2.3000000000000D-01  4.2109264021306D-01  2.0212397310192D-01
25  2.4000000000000D-01  4.6708241006667D-01  1.5826259977872D-01
26  2.5000000000000D-01  5.1439476054306D-01  1.1178722865664D-01
27  2.6000000000000D-01  5.6273093809497D-01  6.3244402338615D-02
28  2.7000000000000D-01  6.1177541980421D-01  1.3211165293199D-02
29  2.8000000000000D-01  6.6119925167629D-01 -3.7711216480670D-02
30  2.9000000000000D-01  7.1066354997559D-01 -8.8903837801539D-02
31  3.0000000000000D-01  7.5982312799074D-01 -1.3973696781921D-01
32  3.1000000000000D-01  8.0833020914636D-01 -1.8957702109593D-01
33  3.2000000000000D-01  8.5583818631769D-01 -2.3779361068491D-01
34  3.3000000000000D-01  9.0200538657078D-01 -2.8376660646795D-01
35  3.4000000000000D-01  9.4649880035207D-01 -3.2689312166425D-01
36  3.5000000000000D-01  9.8899773438941D-01 -3.6659435089762D-01
37  3.6000000000000D-01  1.0291973482420D+00 -4.0232218450732D-01
38  3.7000000000000D-01  1.0668120355426D+00 -4.3356552589758D-01
39  3.8000000000000D-01  1.1015786125036D+00 -4.5985624162261D-01
40  3.9000000000000D-01  1.1332592781892D+00 -4.8077467757094D-01
41  4.0000000000000D-01  1.1616443133794D+00 -4.9595467900753D-01
42  4.1000000000000D-01  1.1865544875325D+00 -5.0508805731140D-01
43  4.2000000000000D-01  1.2078431463743D+00 -5.0792845195923D-01
44  4.3000000000000D-01  1.2253979559717D+00 -5.0429454259290D-01
45  4.4000000000000D-01  1.2391422827401D+00 -4.9407257280687D-01
46  4.5000000000000D-01  1.2490361926759D+00 -4.7721815452970D-01
47  4.6000000000000D-01  1.2550770571254D+00 -4.5375732947765D-01
48  4.7000000000000D-01  1.2572997565874D+00 -4.2378687204735D-01
49  4.8000000000000D-01  1.2557764783352D+00 -3.8747382610844D-01
50  4.9000000000000D-01  1.2506161079968D+00 -3.4505427636542D-01
51  5.0000000000000D-01  1.2419632196065D+00 -2.9683136320277D-01
52  5.1000000000000D-01  1.2299966729814D+00 -2.4317255811026D-01
53  5.2000000000000D-01  1.2149278315486D+00 -1.8450622482998D-01
54  5.3000000000000D-01  1.1969984178936D+00 -1.2131749917293D-01
55  5.4000000000000D-01  1.1764780282852D+00 -5.4143527957411D-02
56  5.5000000000000D-01  1.1536613312077D+00  1.6431885382815D-02
57  5.6000000000000D-01  1.1288649784512D+00  8.9784174344269D-02
58  5.7000000000000D-01  1.1024242605561D+00  1.6525438178892D-01
59  5.8000000000000D-01  1.0746895413076D+00  2.4215594554818D-01
60  5.9000000000000D-01  1.0460225085466D+00  3.1978182666677D-01
61  6.0000000000000D-01  1.0167922807178D+00  3.9741190571074D-01
62  6.1000000000000D-01  9.8737141034840D-01  4.7432056926279D-01
63  6.2000000000000D-01  9.5813182696660D-01  5.4978440626761D-01
64  6.3000000000000D-01  9.2944076285755D-01  6.2308993225923D-01
65  6.4000000000000D-01  9.0165670546697D-01  6.9354125875041D-01
66  6.5000000000000D-01  8.7512542022141D-01  7.6046762518295D-01
67  6.6000000000000D-01  8.5017608701558D-01  8.2323071185039D-01
68  6.7000000000000D-01  8.2711759263540D-01  8.8123165409389D-01
69  6.8000000000000D-01  8.0623501995471D-01  9.3391768080719D-01
70  6.9000000000000D-01  7.8778637285273D-01  9.8078830388954D-01
71  7.0000000000000D-01  7.7199957349697D-01  1.0214009896647D+00
72  7.1000000000000D-01  7.5906976591549D-01  1.0553762484503D+00
73  7.2000000000000D-01  7.4915695670724D-01  1.0824020842964D+00
74  7.3000000000000D-01  7.4238402028461D-01  1.1022377534608D+00
75  7.4000000000000D-01  7.3883509230418D-01  1.1147167872686D+00
76  7.5000000000000D-01  7.3855437091823D-01  1.1197492426219D+00
77  7.6000000000000D-01  7.4154534122613D-01  1.1173231514745D+00
78  7.7000000000000D-01  7.4777043385818D-01  1.1075051489949D+00
79  7.8000000000000D-01  7.5715112405607D-01  1.0904402687799D+00
80  7.9000000000000D-01  7.6956847292412D-01  1.0663509023426D+00
81  8.0000000000000D-01  7.8486410781369D-01  1.0355349290028D+00
82  8.1000000000000D-01  8.0284163409182D-01  9.9836303119928D-01
83  8.2000000000000D-01  8.2326846588936D-01  9.5527521903648D-01
84  8.3000000000000D-01  8.4587805887653D-01  9.0677659645543D-01
85  8.4000000000000D-01  8.7037252372284D-01  8.5343240969903D-01
86  8.5000000000000D-01  8.9642559471224D-01  7.9586242663393D-01
87  8.6000000000000D-01  9.2368592404703D-01  7.3473470290652D-01
88  8.7000000000000D-01  9.5178066873218D-01  6.7075879776761D-01
89  8.8000000000000D-01  9.8031933362226D-01  6.0467850862382D-01
90  8.9000000000000D-01  1.0088978312765D+00  5.3726419889235D-01
91  9.0000000000000D-01  1.0371027167347D+00  4.6930479848696D-01
92  9.1000000000000D-01  1.0645155532287D+00  4.0159956019145D-01
93  9.2000000000000D-01  1.0907173632045D+00  3.3494965823716D-01
94  9.3000000000000D-01  1.1152931178691D+00  2.7014971755426D-01
95  9.4000000000000D-01  1.1378362178077D+00  2.0797936338938D-01
96  9.5000000000000D-01  1.1579529170653D+00  1.4919488122561D-01
97  9.6000000000000D-01  1.1752666434072D+00  9.4521076293602D-02
98  9.7000000000000D-01  1.1894221683478D+00  4.4643420262562D-02
99  9.8000000000000D-01  1.2000895818778D+00  2.0057012880041D-04
100  9.9000000000000D-01  1.2069680286613D+00 -3.8222659207831D-02
101  1.0000000000000D+00  1.2097891647852D+00 -7.0101791597613D-02
102  1.0100000000000D+00  1.2083202968936D+00 -9.4978583677913D-02
103  1.0200000000000D+00  1.2023671687741D+00 -1.1246625060116D-01
104  1.0300000000000D+00  1.1917763639529D+00 -1.2225396439290D-01
105  1.0400000000000D+00  1.1764372967866D+00 -1.2411057334261D-01
106  1.0500000000000D+00  1.1562837688766D+00 -1.1788749906139D-01
107  1.0600000000000D+00  1.1312950720133D+00 -1.0352077615229D-01
108  1.0700000000000D+00  1.1014966236478D+00 -8.1032208511366D-02
109  1.0800000000000D+00  1.0669601259199D+00 -5.0529625821554D-02
110  1.0900000000000D+00  1.0278032437691D+00 -1.2206232307178D-02
111  1.1000000000000D+00  9.8418880350881D-01  3.3660949093750D-02
112  1.1100000000000D+00  9.3632351771495D-01  8.6713525527066D-02
113  1.1200000000000D+00  8.8445624786442D-01  1.4651505381459D-01
114  1.1300000000000D+00  8.2887582037321D-01  2.1255520069874D-01
115  1.1400000000000D+00  7.6990841724183D-01  2.8425470309379D-01
116  1.1500000000000D+00  7.0791456677661D-01  3.6097107965210D-01
117  1.1600000000000D+00  6.4328576449293D-01  4.4200503620154D-01
118  1.1700000000000D+00  5.7644075753580D-01  5.2660750151764D-01
119  1.1800000000000D+00  5.0782153073620D-01  6.1398722087762D-01
120  1.1900000000000D+00  4.3788903519146D-01  7.0331882963181D-01
121  1.2000000000000D+00  3.6711870323895D-01  7.9375132342693D-01
122  1.2100000000000D+00  2.9599579571750D-01  8.8441683790538D-01
123  1.2200000000000D+00  2.2501063037044D-01  9.7443964516725D-01
124  1.2300000000000D+00  1.5465374074425D-01  1.0629452733736D+00
125  1.2400000000000D+00  8.5411016093392D-02  1.1490696537073D+00
126  1.2500000000000D+00  1.7758873714105D-02  1.2319681972539D+00
127  1.2600000000000D+00 -4.7840485945271D-02  1.3108247064507D+00
128  1.2700000000000D+00 -1.1094369098938D-01  1.3848600256593D+00
129  1.2800000000000D+00 -1.7113062729961D-01  1.4533403375980D+00
130  1.2900000000000D+00 -2.2800863924107D-01  1.5155850186050D+00
131  1.3000000000000D+00 -2.8121645588342D-01  1.5709739658386D+00
132  1.3100000000000D+00 -3.3042780040020D-01  1.6189543164860D+00
133  1.3200000000000D+00 -3.7535464599768D-01  1.6590464898787D+00
134  1.3300000000000D+00 -4.1575007989951D-01  1.6908494799483D+00
135  1.3400000000000D+00 -4.5141074558630D-01  1.7140453419860D+00
136  1.3500000000000D+00 -4.8217883925499D-01  1.7284028286223D+00
137  1.3600000000000D+00 -5.0794363163635D-01  1.7337801207801D+00
138  1.3700000000000D+00 -5.2864250473746D-01  1.7301266343981D+00
139  1.3800000000000D+00 -5.4426148861945D-01  1.7174838752317D+00
140  1.3900000000000D+00 -5.5483528805514D-01  1.6959853230610D+00
141  1.4000000000000D+00 -5.6044680566147D-01  1.6658553584291D+00
142  1.4100000000000D+00 -5.6122615558461D-01  1.6274072212758D+00
143  1.4200000000000D+00 -5.5734918387578D-01  1.5810400327125D+00
144  1.4300000000000D+00 -5.4903550923072D-01  1.5272349064874D+00
145  1.4400000000000D+00 -5.3654609731984D-01  1.4665501758669D+00
146  1.4500000000000D+00 -5.2018040460955D-01  1.3996158046368D+00
147  1.4600000000000D+00 -5.0027310758768D-01  1.3271270130443D+00
148  1.4700000000000D+00 -4.7719046193177D-01  1.2498372037544D+00
149  1.4800000000000D+00 -4.5132632290386D-01  1.1685502477594D+00
150  1.4900000000000D+00 -4.2309786851507D-01  1.0841122096467D+00
151  1.5000000000000D+00 -3.9294107415188D-01  9.9740260509346D-01
152  1.5100000000000D+00 -3.6130597801305D-01  9.0932526586214D-01
153  1.5200000000000D+00 -3.2865179514087D-01  8.2079892231144D-01
154  1.5300000000000D+00 -2.9544192324078D-01  7.3274758597336D-01
155  1.5400000000000D+00 -2.6213889816149D-01  6.4609084233676D-01
156  1.5500000000000D+00 -2.2919934742421D-01  5.6173414613994D-01
157  1.5600000000000D+00 -1.9706899765476D-01  4.8055922395145D-01
158  1.5700000000000D+00 -1.6617778637501D-01  4.0341469027510D-01
159  1.5800000000000D+00 -1.3693512482718D-01  3.3110692754376D-01
160  1.5900000000000D+00 -1.0972538591431D-01  2.6439148470423D-01
161  1.6000000000000D+00 -8.4903615843078D-02  2.0396479809466D-01
162  1.6100000000000D+00 -6.2791706830446D-02  1.5045677181265D-01
163  1.6200000000000D+00 -4.3689880932340D-02  1.0446025517357D-01
164  1.6300000000000D+00 -2.7785252813881D-02  6.6315094749049D-02
165  1.6400000000000D+00 -1.5258376897946D-02  3.6363868975424D-02
166  1.6500000000000D+00 -6.5663272921658D-03  1.5625922716611D-02
167  1.6600000000000D+00 -1.7497077903373D-03  4.1503169516831D-03
168  1.6700000000000D+00  1.4019799827301D-04 -3.4477867907129D-04
169  1.6800000000000D+00  3.2222619117017D-04 -7.7102455157617D-04
170  1.6900000000000D+00 -3.2419125709275D-05  7.7504328681217D-05
171  1.7000000000000D+00 -1.0991332038290D-04  2.6252795209263D-04
172  1.7100000000000D+00  4.3451941712146D-06 -1.0412758962427D-05
173  1.7200000000000D+00  2.0555311322683D-05 -4.9237633181010D-05
174  1.7300000000000D+00 -1.0719203060369D-09  6.4959609883046D-09
175  1.7400000000000D+00 -9.2006479017411D-09  5.5756990048827D-08
176  1.7500000000000D+00 -1.5138127326319D-10  9.1738801843697D-10
177  1.7600000000000D+00  0.0000000000000D+00  0.0000000000000D+00
178  1.7700000000000D+00  0.0000000000000D+00  0.0000000000000D+00
179  1.7800000000000D+00  0.0000000000000D+00  0.0000000000000D+00
180  1.7900000000000D+00  0.0000000000000D+00  0.0000000000000D+00
181  1.8000000000000D+00  0.0000000000000D+00  0.0000000000000D+00
182  1.8100000000000D+00  0.0000000000000D+00  0.0000000000000D+00
183  1.8200000000000D+00  0.0000000000000D+00  0.0000000000000D+00
184  1.8300000000000D+00  0.0000000000000D+00  0.0000000000000D+00
185  1.8400000000000D+00  0.0000000000000D+00  0.0000000000000D+00
186  1.8500000000000D+00  0.0000000000000D+00  0.0000000000000D+00
187  1.8600000000000D+00  0.0000000000000D+00  0.0000000000000D+00
188  1.8700000000000D+00  0.0000000000000D+00  0.0000000000000D+00
189  1.8800000000000D+00  0.0000000000000D+00  0.0000000000000D+00
190  1.8900000000000D+00  0.0000000000000D+00  0.0000000000000D+00
191  1.9000000000000D+00  0.0000000000000D+00  0.0000000000000D+00
192  1.9100000000000D+00  0.0000000000000D+00  0.0000000000000D+00
193  1.9200000000000D+00  0.0000000000000D+00  0.0000000000000D+00
194  1.9300000000000D+00  0.0000000000000D+00  0.0000000000000D+00
195  1.9400000000000D+00  0.0000000000000D+00  0.0000000000000D+00
196  1.9500000000000D+00  0.0000000000000D+00  0.0000000000000D+00
197  1.9600000000000D+00  0.0000000000000D+00  0.0000000000000D+00
198  1.9700000000000D+00  0.0000000000000D+00  0.0000000000000D+00
199  1.9800000000000D+00  0.0000000000000D+00  0.0000000000000D+00
200  1.9900000000000D+00  0.0000000000000D+00  0.0000000000000D+00
201  2.0000000000000D+00  0.0000000000000D+00  0.0000000000000D+00
202  2.0100000000000D+00  0.0000000000000D+00  0.0000000000000D+00
203  2.0200000000000D+00  0.0000000000000D+00  0.0000000000000D+00
204  2.0300000000000D+00  0.0000000000000D+00  0.0000000000000D+00
205  2.0400000000000D+00  0.0000000000000D+00  0.0000000000000D+00
206  2.0500000000000D+00  0.0000000000000D+00  0.0000000000000D+00
207  2.0600000000000D+00  0.0000000000000D+00  0.0000000000000D+00
208  2.0700000000000D+00  0.0000000000000D+00  0.0000000000000D+00
209  2.0800000000000D+00  0.0000000000000D+00  0.0000000000000D+00
210  2.0900000000000D+00  0.0000000000000D+00  0.0000000000000D+00
211  2.1000000000000D+00  0.0000000000000D+00  0.0000000000000D+00
212  2.1100000000000D+00  0.0000000000000D+00  0.0000000000000D+00
213  2.1200000000000D+00  0.0000000000000D+00  0.0000000000000D+00
214  2.1300000000000D+00  0.0000000000000D+00  0.0000000000000D+00
215  2.1400000000000D+00  0.0000000000000D+00  0.0000000000000D+00
216  2.1500000000000D+00  0.0000000000000D+00  0.0000000000000D+00
217  2.1600000000000D+00  0.0000000000000D+00  0.0000000000000D+00
218  2.1700000000000D+00  0.0000000000000D+00  0.0000000000000D+00
219  2.1800000000000D+00  0.0000000000000D+00  0.0000000000000D+00
220  2.1900000000000D+00  0.0000000000000D+00  0.0000000000000D+00
221  2.2000000000000D+00  0.0000000000000D+00  0.0000000000000D+00
222  2.2100000000000D+00  0.0000000000000D+00  0.0000000000000D+00
223  2.2200000000000D+00  0.0000000000000D+00  0.0000000000000D+00
224  2.2300000000000D+00  0.0000000000000D+00  0.0000000000000D+00
225  2.2400000000000D+00  0.0000000000000D+00  0.0000000000000D+00
226  2.2500000000000D+00  0.0000000000000D+00  0.0000000000000D+00
227  2.2600000000000D+00  0.0000000000000D+00  0.0000000000000D+00
228  2.2700000000000D+00  0.0000000000000D+00  0.0000000000000D+00
229  2.2800000000000D+00  0.0000000000000D+00  0.0000000000000D+00
230  2.2900000000000D+00  0.0000000000000D+00  0.0000000000000D+00
231  2.3000000000000D+00  0.0000000000000D+00  0.0000000000000D+00
232  2.3100000000000D+00  0.0000000000000D+00  0.0000000000000D+00
233  2.3200000000000D+00  0.0000000000000D+00  0.0000000000000D+00
234  2.3300000000000D+00  0.0000000000000D+00  0.0000000000000D+00
235  2.3400000000000D+00  0.0000000000000D+00  0.0000000000000D+00
236  2.3500000000000D+00  0.0000000000000D+00  0.0000000000000D+00
237  2.3600000000000D+00  0.0000000000000D+00  0.0000000000000D+00
238  2.3700000000000D+00  0.0000000000000D+00  0.0000000000000D+00
239  2.3800000000000D+00  0.0000000000000D+00  0.0000000000000D+00
240  2.3900000000000D+00  0.0000000000000D+00  0.0000000000000D+00
241  2.4000000000000D+00  0.0000000000000D+00  0.0000000000000D+00
242  2.4100000000000D+00  0.0000000000000D+00  0.0000000000000D+00
243  2.4200000000000D+00  0.0000000000000D+00  0.0000000000000D+00
244  2.4300000000000D+00  0.0000000000000D+00  0.0000000000000D+00
245  2.4400000000000D+00  0.0000000000000D+00  0.0000000000000D+00
246  2.4500000000000D+00  0.0000000000000D+00  0.0000000000000D+00
247  2.4600000000000D+00  0.0000000000000D+00  0.0000000000000D+00
248  2.4700000000000D+00  0.0000000000000D+00  0.0000000000000D+00
249  2.4800000000000D+00  0.0000000000000D+00  0.0000000000000D+00
250  2.4900000000000D+00  0.0000000000000D+00  0.0000000000000D+00
251  2.5000000000000D+00  0.0000000000000D+00  0.0000000000000D+00
252  2.5100000000000D+00  0.0000000000000D+00  0.0000000000000D+00
253  2.5200000000000D+00  0.0000000000000D+00  0.0000000000000D+00
254  2.5300000000000D+00  0.0000000000000D+00  0.0000000000000D+00
255  2.5400000000000D+00  0.0000000000000D+00  0.0000000000000D+00
256  2.5500000000000D+00  0.0000000000000D+00  0.0000000000000D+00
257  2.5600000000000D+00  0.0000000000000D+00  0.0000000000000D+00
258  2.5700000000000D+00  0.0000000000000D+00  0.0000000000000D+00
259  2.5800000000000D+00  0.0000000000000D+00  0.0000000000000D+00
260  2.5900000000000D+00  0.0000000000000D+00  0.0000000000000D+00
261  2.6000000000000D+00  0.0000000000000D+00  0.0000000000000D+00
262  2.6100000000000D+00  0.0000000000000D+00  0.0000000000000D+00
263  2.6200000000000D+00  0.0000000000000D+00  0.0000000000000D+00
264  2.6300000000000D+00  0.0000000000000D+00  0.0000000000000D+00
265  2.6400000000000D+00  0.0000000000000D+00  0.0000000000000D+00
266  2.6500000000000D+00  0.0000000000000D+00  0.0000000000000D+00
267  2.6600000000000D+00  0.0000000000000D+00  0.0000000000000D+00
268  2.6700000000000D+00  0.0000000000000D+00  0.0000000000000D+00
269  2.6800000000000D+00  0.0000000000000D+00  0.0000000000000D+00
270  2.6900000000000D+00  0.0000000000000D+00  0.0000000000000D+00
271  2.7000000000000D+00  0.0000000000000D+00  0.0000000000000D+00
272  2.7100000000000D+00  0.0000000000000D+00  0.0000000000000D+00
273  2.7200000000000D+00  0.0000000000000D+00  0.0000000000000D+00
274  2.7300000000000D+00  0.0000000000000D+00  0.0000000000000D+00
275  2.7400000000000D+00  0.0000000000000D+00  0.0000000000000D+00
276  2.7500000000000D+00  0.0000000000000D+00  0.0000000000000D+00
277  2.7600000000000D+00  0.0000000000000D+00  0.0000000000000D+00
278  2.7700000000000D+00  0.0000000000000D+00  0.0000000000000D+00
279  2.7800000000000D+00  0.0000000000000D+00  0.0000000000000D+00
280  2.7900000000000D+00  0.0000000000000D+00  0.0000000000000D+00
281  2.8000000000000D+00  0.0000000000000D+00  0.0000000000000D+00
282  2.8100000000000D+00  0.0000000000000D+00  0.0000000000000D+00
283  2.8200000000000D+00  0.0000000000000D+00  0.0000000000000D+00
284  2.8300000000000D+00  0.0000000000000D+00  0.0000000000000D+00
285  2.8400000000000D+00  0.0000000000000D+00  0.0000000000000D+00
286  2.8500000000000D+00  0.0000000000000D+00  0.0000000000000D+00
287  2.8600000000000D+00  0.0000000000000D+00  0.0000000000000D+00
288  2.8700000000000D+00  0.0000000000000D+00  0.0000000000000D+00
289  2.8800000000000D+00  0.0000000000000D+00  0.0000000000000D+00
290  2.8900000000000D+00  0.0000000000000D+00  0.0000000000000D+00
291  2.9000000000000D+00  0.0000000000000D+00  0.0000000000000D+00
292  2.9100000000000D+00  0.0000000000000D+00  0.0000000000000D+00
293  2.9200000000000D+00  0.0000000000000D+00  0.0000000000000D+00
294  2.9300000000000D+00  0.0000000000000D+00  0.0000000000000D+00
295  2.9400000000000D+00  0.0000000000000D+00  0.0000000000000D+00
296  2.9500000000000D+00  0.0000000000000D+00  0.0000000000000D+00
297  2.9600000000000D+00  0.0000000000000D+00  0.0000000000000D+00
298  2.9700000000000D+00  0.0000000000000D+00  0.0000000000000D+00
299  2.9800000000000D+00  0.0000000000000D+00  0.0000000000000D+00
300  2.9900000000000D+00  0.0000000000000D+00  0.0000000000000D+00
301  3.0000000000000D+00  0.0000000000000D+00  0.0000000000000D+00
302  3.0100000000000D+00  0.0000000000000D+00  0.0000000000000D+00
303  3.0200000000000D+00  0.0000000000000D+00  0.0000000000000D+00
304  3.0300000000000D+00  0.0000000000000D+00  0.0000000000000D+00
305  3.0400000000000D+00  0.0000000000000D+00  0.0000000000000D+00
306  3.0500000000000D+00  0.0000000000000D+00  0.0000000000000D+00
307  3.0600000000000D+00  0.0000000000000D+00  0.0000000000000D+00
308  3.0700000000000D+00  0.0000000000000D+00  0.0000000000000D+00
309  3.0800000000000D+00  0.0000000000000D+00  0.0000000000000D+00
310  3.0900000000000D+00  0.0000000000000D+00  0.0000000000000D+00
311  3.1000000000000D+00  0.0000000000000D+00  0.0000000000000D+00
312  3.1100000000000D+00  0.0000000000000D+00  0.0000000000000D+00
313  3.1200000000000D+00  0.0000000000000D+00  0.0000000000000D+00
314  3.1300000000000D+00  0.0000000000000D+00  0.0000000000000D+00
315  3.1400000000000D+00  0.0000000000000D+00  0.0000000000000D+00
316  3.1500000000000D+00  0.0000000000000D+00  0.0000000000000D+00
317  3.1600000000000D+00  0.0000000000000D+00  0.0000000000000D+00
318  3.1700000000000D+00  0.0000000000000D+00  0.0000000000000D+00
319  3.1800000000000D+00  0.0000000000000D+00  0.0000000000000D+00
320  3.1900000000000D+00  0.0000000000000D+00  0.0000000000000D+00
321  3.2000000000000D+00  0.0000000000000D+00  0.0000000000000D+00
322  3.2100000000000D+00  0.0000000000000D+00  0.0000000000000D+00
323  3.2200000000000D+00  0.0000000000000D+00  0.0000000000000D+00
324  3.2300000000000D+00  0.0000000000000D+00  0.0000000000000D+00
325  3.2400000000000D+00  0.0000000000000D+00  0.0000000000000D+00
326  3.2500000000000D+00  0.0000000000000D+00  0.0000000000000D+00
327  3.2600000000000D+00  0.0000000000000D+00  0.0000000000000D+00
328  3.2700000000000D+00  0.0000000000000D+00  0.0000000000000D+00
329  3.2800000000000D+00  0.0000000000000D+00  0.0000000000000D+00
330  3.2900000000000D+00  0.0000000000000D+00  0.0000000000000D+00
331  3.3000000000000D+00  0.0000000000000D+00  0.0000000000000D+00
332  3.3100000000000D+00  0.0000000000000D+00  0.0000000000000D+00
333  3.3200000000000D+00  0.0000000000000D+00  0.0000000000000D+00
334  3.3300000000000D+00  0.0000000000000D+00  0.0000000000000D+00
335  3.3400000000000D+00  0.0000000000000D+00  0.0000000000000D+00
336  3.3500000000000D+00  0.0000000000000D+00  0.0000000000000D+00
337  3.3600000000000D+00  0.0000000000000D+00  0.0000000000000D+00
338  3.3700000000000D+00  0.0000000000000D+00  0.0000000000000D+00
339  3.3800000000000D+00  0.0000000000000D+00  0.0000000000000D+00
340  3.3900000000000D+00  0.0000000000000D+00  0.0000000000000D+00
341  3.4000000000000D+00  0.0000000000000D+00  0.0000000000000D+00
342  3.4100000000000D+00  0.0000000000000D+00  0.0000000000000D+00
343  3.4200000000000D+00  0.0000000000000D+00  0.0000000000000D+00
344  3.4300000000000D+00  0.0000000000000D+00  0.0000000000000D+00
345  3.4400000000000D+00  0.0000000000000D+00  0.0000000000000D+00
346  3.4500000000000D+00  0.0000000000000D+00  0.0000000000000D+00
347  3.4600000000000D+00  0.0000000000000D+00  0.0000000000000D+00
348  3.4700000000000D+00  0.0000000000000D+00  0.0000000000000D+00
349  3.4800000000000D+00  0.0000000000000D+00  0.0000000000000D+00
350  3.4900000000000D+00  0.0000000000000D+00  0.0000000000000D+00
351  3.5000000000000D+00  0.0000000000000D+00  0.0000000000000D+00
352  3.5100000000000D+00  0.0000000000000D+00  0.0000000000000D+00
353  3.5200000000000D+00  0.0000000000000D+00  0.0000000000000D+00
354  3.5300000000000D+00  0.0000000000000D+00  0.0000000000000D+00
355  3.5400000000000D+00  0.0000000000000D+00  0.0000000000000D+00
356  3.5500000000000D+00  0.0000000000000D+00  0.0000000000000D+00
357  3.5600000000000D+00  0.0000000000000D+00  0.0000000000000D+00
358  3.5700000000000D+00  0.0000000000000D+00  0.0000000000000D+00
359  3.5800000000000D+00  0.0000000000000D+00  0.0000000000000D+00
360  3.5900000000000D+00  0.0000000000000D+00  0.0000000000000D+00
361  3.6000000000000D+00  0.0000000000000D+00  0.0000000000000D+00
362  3.6100000000000D+00  0.0000000000000D+00  0.0000000000000D+00
363  3.6200000000000D+00  0.0000000000000D+00  0.0000000000000D+00
364  3.6300000000000D+00  0.0000000000000D+00  0.0000000000000D+00
365  3.6400000000000D+00  0.0000000000000D+00  0.0000000000000D+00
366  3.6500000000000D+00  0.0000000000000D+00  0.0000000000000D+00
367  3.6600000000000D+00  0.0000000000000D+00  0.0000000000000D+00
368  3.6700000000000D+00  0.0000000000000D+00  0.0000000000000D+00
369  3.6800000000000D+00  0.0000000000000D+00  0.0000000000000D+00
370  3.6900000000000D+00  0.0000000000000D+00  0.0000000000000D+00
371  3.7000000000000D+00  0.0000000000000D+00  0.0000000000000D+00
372  3.7100000000000D+00  0.0000000000000D+00  0.0000000000000D+00
373  3.7200000000000D+00  0.0000000000000D+00  0.0000000000000D+00
374  3.7300000000000D+00  0.0000000000000D+00  0.0000000000000D+00
375  3.7400000000000D+00  0.0000000000000D+00  0.0000000000000D+00
376  3.7500000000000D+00  0.0000000000000D+00  0.0000000000000D+00
377  3.7600000000000D+00  0.0000000000000D+00  0.0000000000000D+00
378  3.7700000000000D+00  0.0000000000000D+00  0.0000000000000D+00
379  3.7800000000000D+00  0.0000000000000D+00  0.0000000000000D+00
380  3.7900000000000D+00  0.0000000000000D+00  0.0000000000000D+00
381  3.8000000000000D+00  0.0000000000000D+00  0.0000000000000D+00
382  3.8100000000000D+00  0.0000000000000D+00  0.0000000000000D+00
383  3.8200000000000D+00  0.0000000000000D+00  0.0000000000000D+00
384  3.8300000000000D+00  0.0000000000000D+00  0.0000000000000D+00
385  3.8400000000000D+00  0.0000000000000D+00  0.0000000000000D+00
386  3.8500000000000D+00  0.0000000000000D+00  0.0000000000000D+00
387  3.8600000000000D+00  0.0000000000000D+00  0.0000000000000D+00
388  3.8700000000000D+00  0.0000000000000D+00  0.0000000000000D+00
389  3.8800000000000D+00  0.0000000000000D+00  0.0000000000000D+00
390  3.8900000000000D+00  0.0000000000000D+00  0.0000000000000D+00
391  3.9000000000000D+00  0.0000000000000D+00  0.0000000000000D+00
392  3.9100000000000D+00  0.0000000000000D+00  0.0000000000000D+00
393  3.9200000000000D+00  0.0000000000000D+00  0.0000000000000D+00
394  3.9300000000000D+00  0.0000000000000D+00  0.0000000000000D+00
395  3.9400000000000D+00  0.0000000000000D+00  0.0000000000000D+00
396  3.9500000000000D+00  0.0000000000000D+00  0.0000000000000D+00
397  3.9600000000000D+00  0.0000000000000D+00  0.0000000000000D+00
398  3.9700000000000D+00  0.0000000000000D+00  0.0000000000000D+00
399  3.9800000000000D+00  0.0000000000000D+00  0.0000000000000D+00
400  3.9900000000000D+00  0.0000000000000D+00  0.0000000000000D+00
401  4.0000000000000D+00  0.0000000000000D+00  0.0000000000000D+00
402  4.0100000000000D+00  0.0000000000000D+00  0.0000000000000D+00
403  4.0200000000000D+00  0.0000000000000D+00  0.0000000000000D+00
404  4.0300000000000D+00  0.0000000000000D+00  0.0000000000000D+00
405  4.0400000000000D+00  0.0000000000000D+00  0.0000000000000D+00
406  4.0500000000000D+00  0.0000000000000D+00  0.0000000000000D+00
407  4.0600000000000D+00  0.0000000000000D+00  0.0000000000000D+00
408  4.0700000000000D+00  0.0000000000000D+00  0.0000000000000D+00
409  4.0800000000000D+00  0.0000000000000D+00  0.0000000000000D+00
410  4.0900000000000D+00  0.0000000000000D+00  0.0000000000000D+00
411  4.1000000000000D+00  0.0000000000000D+00  0.0000000000000D+00
412  4.1100000000000D+00  0.0000000000000D+00  0.0000000000000D+00
413  4.1200000000000D+00  0.0000000000000D+00  0.0000000000000D+00
414  4.1300000000000D+00  0.0000000000000D+00  0.0000000000000D+00
415  4.1400000000000D+00  0.0000000000000D+00  0.0000000000000D+00
416  4.1500000000000D+00  0.0000000000000D+00  0.0000000000000D+00
417  4.1600000000000D+00  0.0000000000000D+00  0.0000000000000D+00
418  4.1700000000000D+00  0.0000000000000D+00  0.0000000000000D+00
419  4.1800000000000D+00  0.0000000000000D+00  0.0000000000000D+00
420  4.1900000000000D+00  0.0000000000000D+00  0.0000000000000D+00
421  4.2000000000000D+00  0.0000000000000D+00  0.0000000000000D+00
422  4.2100000000000D+00  0.0000000000000D+00  0.0000000000000D+00
423  4.2200000000000D+00  0.0000000000000D+00  0.0000000000000D+00
424  4.2300000000000D+00  0.0000000000000D+00  0.0000000000000D+00
425  4.2400000000000D+00  0.0000000000000D+00  0.0000000000000D+00
426  4.2500000000000D+00  0.0000000000000D+00  0.0000000000000D+00
427  4.2600000000000D+00  0.0000000000000D+00  0.0000000000000D+00
428  4.2700000000000D+00  0.0000000000000D+00  0.0000000000000D+00
429  4.2800000000000D+00  0.0000000000000D+00  0.0000000000000D+00
430  4.2900000000000D+00  0.0000000000000D+00  0.0000000000000D+00
431  4.3000000000000D+00  0.0000000000000D+00  0.0000000000000D+00
432  4.3100000000000D+00  0.0000000000000D+00  0.0000000000000D+00
433  4.3200000000000D+00  0.0000000000000D+00  0.0000000000000D+00
434  4.3300000000000D+00  0.0000000000000D+00  0.0000000000000D+00
435  4.3400000000000D+00  0.0000000000000D+00  0.0000000000000D+00
436  4.3500000000000D+00  0.0000000000000D+00  0.0000000000000D+00
437  4.3600000000000D+00  0.0000000000000D+00  0.0000000000000D+00
438  4.3700000000000D+00  0.0000000000000D+00  0.0000000000000D+00
439  4.3800000000000D+00  0.0000000000000D+00  0.0000000000000D+00
440  4.3900000000000D+00  0.0000000000000D+00  0.0000000000000D+00
441  4.4000000000000D+00  0.0000000000000D+00  0.0000000000000D+00
442  4.4100000000000D+00  0.0000000000000D+00  0.0000000000000D+00
443  4.4200000000000D+00  0.0000000000000D+00  0.0000000000000D+00