Nd    ONCVPSP-3.2.3.1  r_core=   2.01081   1.60303   1.87192   1.66143
60.0000     14.0000      170524    zatom,zion,pspd
8      11   3     4   600     0    pspcod,pspxc,lmax,lloc,mmax,r2well
5.99000000  0.25000000  0.00000000    rchrg fchrg qchrg
2     2     2     2     0    nproj
1     1           extension_switch
0                         7.3993292415641D+00  4.9999875272983D-01
1  0.0000000000000D+00 -4.1838199571487D-12  5.9324337109423D-11
2  1.0000000000000D-02  3.8245007745421D-02 -1.4187406353936D-02
3  2.0000000000000D-02  7.6461275457186D-02 -2.8323310813648D-02
4  3.0000000000000D-02  1.1462007245808D-01 -4.2356481166570D-02
5  4.0000000000000D-02  1.5269268676523D-01 -5.6236222560988D-02
6  5.0000000000000D-02  1.9065043439215D-01 -6.9912641195387D-02
7  6.0000000000000D-02  2.2846466859947D-01 -8.3336902060586D-02
8  7.0000000000000D-02  2.6610678908235D-01 -9.6461478822019D-02
9  8.0000000000000D-02  3.0354825108656D-01 -1.0924039398886D-01
10  9.0000000000000D-02  3.4076057445041D-01 -1.2162944758988D-01
11  1.0000000000000D-01  3.7771535257560D-01 -1.3358643266275D-01
12  1.1000000000000D-01  4.1438426133704D-01 -1.4507133596352D-01
13  1.2000000000000D-01  4.5073906794911D-01 -1.5604652241479D-01
14  1.3000000000000D-01  4.8675163981405D-01 -1.6647690193499D-01
15  1.4000000000000D-01  5.2239395338688D-01 -1.7633007742533D-01
16  1.5000000000000D-01  5.5763810310033D-01 -1.8557647283490D-01
17  1.6000000000000D-01  5.9245631040284D-01 -1.9418944037755D-01
18  1.7000000000000D-01  6.2682093297210D-01 -2.0214534613390D-01
19  1.8000000000000D-01  6.6070447417632D-01 -2.0942363343948D-01
20  1.9000000000000D-01  6.9407959286495D-01 -2.1600686363150D-01
21  2.0000000000000D-01  7.2691911357980D-01 -2.2188073390385D-01
22  2.1000000000000D-01  7.5919603728640D-01 -2.2703407219805D-01
23  2.2000000000000D-01  7.9088355273377D-01 -2.3145880923939D-01
24  2.3000000000000D-01  8.2195504855820D-01 -2.3514992800732D-01
25  2.4000000000000D-01  8.5238412625380D-01 -2.3810539110926D-01
26  2.5000000000000D-01  8.8214461413768D-01 -2.4032604670317D-01
27  2.6000000000000D-01  9.1121058244296D-01 -2.4181551378749D-01
28  2.7000000000000D-01  9.3955635967540D-01 -2.4258004784407D-01
29  2.8000000000000D-01  9.6715655037181D-01 -2.4262838798071D-01
30  2.9000000000000D-01  9.9398605439846D-01 -2.4197158687242D-01
31  3.0000000000000D-01  1.0200200879264D+00 -2.4062282494379D-01
32  3.1000000000000D-01  1.0452342062176D+00 -2.3859721036787D-01
33  3.2000000000000D-01  1.0696043283502D+00 -2.3591156657795D-01
34  3.3000000000000D-01  1.0931067640056D+00 -2.3258420909668D-01
35  3.4000000000000D-01  1.1157182424295D+00 -2.2863471358202D-01
36  3.5000000000000D-01  1.1374159436682D+00 -2.2408367706853D-01
37  3.6000000000000D-01  1.1581775321707D+00 -2.1895247444717D-01
38  3.7000000000000D-01  1.1779811928277D+00 -2.1326301227441D-01
39  3.8000000000000D-01  1.1968056695058D+00 -2.0703748203241D-01
40  3.9000000000000D-01  1.2146303061119D+00 -2.0029811497555D-01
41  4.0000000000000D-01  1.2314350902043D+00 -1.9306694069451D-01
42  4.1000000000000D-01  1.2472006991434D+00 -1.8536555150711D-01
43  4.2000000000000D-01  1.2619085487467D+00 -1.7721487474491D-01
44  4.3000000000000D-01  1.2755408443917D+00 -1.6863495494665D-01
45  4.4000000000000D-01  1.2880806344770D+00 -1.5964474789412D-01
46  4.5000000000000D-01  1.2995118661241D+00 -1.5026192833344D-01
47  4.6000000000000D-01  1.3098194429740D+00 -1.4050271311461D-01
48  4.7000000000000D-01  1.3189892848965D+00 -1.3038170135764D-01
49  4.8000000000000D-01  1.3270083894023D+00 -1.1991173311216D-01
50  4.9000000000000D-01  1.3338648945130D+00 -1.0910376782390D-01
51  5.0000000000000D-01  1.3395481428119D+00 -9.7966783752810D-02
52  5.1000000000000D-01  1.3440487463666D+00 -8.6507699309700D-02
53  5.2000000000000D-01  1.3473586521822D+00 -7.4731317088832D-02
54  5.3000000000000D-01  1.3494712078125D+00 -6.2640291176153D-02
55  5.4000000000000D-01  1.3503812267295D+00 -5.0235118109352D-02
56  5.5000000000000D-01  1.3500850530190D+00 -3.7514151655790D-02
57  5.6000000000000D-01  1.3485806249492D+00 -2.4473641362852D-02
58  5.7000000000000D-01  1.3458675369331D+00 -1.1107794621682D-02
59  5.8000000000000D-01  1.3419470993838D+00  2.5911382273293D-03
60  5.9000000000000D-01  1.3368223959479D+00  1.6632756427491D-02
61  6.0000000000000D-01  1.3304983375852D+00  3.1028379862434D-02
62  6.1000000000000D-01  1.3229817129537D+00  4.5790899717479D-02
63  6.2000000000000D-01  1.3142812345535D+00  6.0934610014693D-02
64  6.3000000000000D-01  1.3044075800827D+00  7.6475021466936D-02
65  6.4000000000000D-01  1.2933734284599D+00  9.2428659257659D-02
66  6.5000000000000D-01  1.2811934899782D+00  1.0881284650155D-01
67  6.6000000000000D-01  1.2678845300705D+00  1.2564547527072D-01
68  6.7000000000000D-01  1.2534653861828D+00  1.4294476718239D-01
69  6.8000000000000D-01  1.2379569772802D+00  1.6072902563531D-01
70  6.9000000000000D-01  1.2213823055393D+00  1.7901638185175D-01
71  7.0000000000000D-01  1.2037664498186D+00  1.9782453692851D-01
72  7.1000000000000D-01  1.1851365505410D+00  2.1717050212367D-01
73  7.2000000000000D-01  1.1655217856692D+00  2.3707033960506D-01
74  7.3000000000000D-01  1.1449533375110D+00  2.5753890586078D-01
75  7.4000000000000D-01  1.1234643501484D+00  2.7858959992162D-01
76  7.5000000000000D-01  1.1010898773489D+00  3.0023411847082D-01
77  7.6000000000000D-01  1.0778668208877D+00  3.2248221981795D-01
78  7.7000000000000D-01  1.0538338592799D+00  3.4534149859110D-01
79  7.8000000000000D-01  1.0290313670017D+00  3.6881717285828D-01
80  7.9000000000000D-01  1.0035013243561D+00  3.9291188522400D-01
81  8.0000000000000D-01  9.7728721822510D-01  4.1762551926320D-01
82  8.1000000000000D-01  9.5043393403189D-01  4.4295503245497D-01
83  8.2000000000000D-01  9.2298763932368D-01  4.6889430656353D-01
84  8.3000000000000D-01  8.9499565947163D-01  4.9543401618724D-01
85  8.4000000000000D-01  8.6650634606970D-01  5.2256151596214D-01
86  8.5000000000000D-01  8.3756893869827D-01  5.5026074666470D-01
87  8.6000000000000D-01  8.0823342080015D-01  5.7851216021670D-01
88  8.7000000000000D-01  7.7855037049439D-01  6.0729266335300D-01
89  8.8000000000000D-01  7.4857080722747D-01  6.3657557947750D-01
90  8.9000000000000D-01  7.1834603522923D-01  6.6633062800572D-01
91  9.0000000000000D-01  6.8792748480280D-01  6.9652392027878D-01
92  9.1000000000000D-01  6.5736655253169D-01  7.2711797093735D-01
93  9.2000000000000D-01  6.2671444153277D-01  7.5807172346938D-01
94  9.3000000000000D-01  5.9602200291942D-01  7.8934058849567D-01
95  9.4000000000000D-01  5.6533957966451D-01  8.2087649323658D-01
96  9.5000000000000D-01  5.3471685406636D-01  8.5262794051592D-01
97  9.6000000000000D-01  5.0420270002217D-01  8.8454007560593D-01
98  9.7000000000000D-01  4.7384504130178D-01  9.1655475920501D-01
99  9.8000000000000D-01  4.4369071698784D-01  9.4861064487196D-01
100  9.9000000000000D-01  4.1378535521052D-01  9.8064325931044D-01
101  1.0000000000000D+00  3.8417325624797D-01  1.0125850840218D+00
102  1.0100000000000D+00  3.5489728599480D-01  1.0443656370115D+00
103  1.0200000000000D+00  3.2599878071526D-01  1.0759115534508D+00
104  1.0300000000000D+00  2.9751746389774D-01  1.1071466644589D+00
105  1.0400000000000D+00  2.6949137590941D-01  1.1379920734903D+00
106  1.0500000000000D+00  2.4195681702145D-01  1.1683662301630D+00
107  1.0600000000000D+00  2.1494830423306D-01  1.1981850017624D+00
108  1.0700000000000D+00  1.8849854215654D-01  1.2273617431171D+00
109  1.0800000000000D+00  1.6263840806336D-01  1.2558073660053D+00
110  1.0900000000000D+00  1.3739695099945D-01  1.2834304097845D+00
111  1.1000000000000D+00  1.1280140469632D-01  1.3101371154518D+00
112  1.1100000000000D+00  8.8877213802847D-02  1.3358315059014D+00
113  1.1200000000000D+00  6.5648072743944D-02  1.3604154757496D+00
114  1.1300000000000D+00  4.3135976311974D-02  1.3837888946402D+00
115  1.1400000000000D+00  2.1361280872521D-02  1.4058497285303D+00
116  1.1500000000000D+00  3.4277488433467D-04  1.4264941839356D+00
117  1.1600000000000D+00 -1.9902242827254D-02  1.4456168807552D+00
118  1.1700000000000D+00 -3.9357878777304D-02  1.4631110596876D+00
119  1.1800000000000D+00 -5.8009556434600D-02  1.4788688306653D+00
120  1.1900000000000D+00 -7.5843925850915D-02  1.4927814691124D+00
121  1.2000000000000D+00 -9.2848773607567D-02  1.5047397671362D+00
122  1.2100000000000D+00 -1.0901293550700D-01  1.5146344468167D+00
123  1.2200000000000D+00 -1.2432621452964D-01  1.5223566429050D+00
124  1.2300000000000D+00 -1.3877930674370D-01  1.5277984621608D+00
125  1.2400000000000D+00 -1.5236373785275D-01  1.5308536261313D+00
126  1.2500000000000D+00 -1.6507181310887D-01  1.5314182039910D+00
127  1.2600000000000D+00 -1.7689658334706D-01  1.5293914414689D+00
128  1.2700000000000D+00 -1.8783182975160D-01  1.5246766905901D+00
129  1.2800000000000D+00 -1.9787206991688D-01  1.5171824444844D+00
130  1.2900000000000D+00 -2.0701258765803D-01  1.5068234803072D+00
131  1.3000000000000D+00 -2.1524948857098D-01  1.4935221104324D+00
132  1.3100000000000D+00 -2.2257978332660D-01  1.4772095419668D+00
133  1.3200000000000D+00 -2.2900150029317D-01  1.4578273419628D+00
134  1.3300000000000D+00 -2.3451382816115D-01  1.4353290006663D+00
135  1.3400000000000D+00 -2.3911728961964D-01  1.4096815871217D+00
136  1.3500000000000D+00 -2.4281394585737D-01  1.3808674842463D+00
137  1.3600000000000D+00 -2.4560763053659D-01  1.3488861848472D+00
138  1.3700000000000D+00 -2.4750421298906D-01  1.3137561355241D+00
139  1.3800000000000D+00 -2.4851188683750D-01  1.2755165970340D+00
140  1.3900000000000D+00 -2.4864148110395D-01  1.2342294943450D+00
141  1.4000000000000D+00 -2.4790679011778D-01  1.1899812254169D+00
142  1.4100000000000D+00 -2.4632491403144D-01  1.1428843754766D+00
143  1.4200000000000D+00 -2.4391660591588D-01  1.0930793041372D+00
144  1.4300000000000D+00 -2.4070661410217D-01  1.0407355364689D+00
145  1.4400000000000D+00 -2.3672401001098D-01  9.8605289717916D-01
146  1.4500000000000D+00 -2.3200249172055D-01  9.2926232672476D-01
147  1.4600000000000D+00 -2.2658064345415D-01  8.7062626942824D-01
148  1.4700000000000D+00 -2.2050214282979D-01  8.1043858012455D-01
149  1.4800000000000D+00 -2.1381588907099D-01  7.4902380556163D-01
150  1.4900000000000D+00 -2.0657603702701D-01  6.8673575323065D-01
151  1.5000000000000D+00 -1.9884191161976D-01  6.2395521072886D-01
152  1.5100000000000D+00 -1.9067777250766D-01  5.6108665573423D-01
153  1.5200000000000D+00 -1.8215240910319D-01  4.9855384626902D-01
154  1.5300000000000D+00 -1.7333851655220D-01  4.3679403910296D-01
155  1.5400000000000D+00 -1.6431183807250D-01  3.7625075124819D-01
156  1.5500000000000D+00 -1.5514999773741D-01  3.1736465363735D-01
157  1.5600000000000D+00 -1.4593106157598D-01  2.6056293036907D-01
158  1.5700000000000D+00 -1.3673152895170D-01  2.0624505913959D-01
159  1.5800000000000D+00 -1.2762448327148D-01  1.5477036637625D-01
160  1.5900000000000D+00 -1.1867675899200D-01  1.0643958092534D-01
161  1.6000000000000D+00 -1.0994348052732D-01  6.1456851787185D-02
162  1.6100000000000D+00 -1.0146754356956D-01  1.9931210442393D-02
163  1.6200000000000D+00 -9.3280823096012D-02 -1.8106505424142D-02
164  1.6300000000000D+00 -8.5406889913653D-02 -5.2679906158689D-02
165  1.6400000000000D+00 -7.7866749508060D-02 -8.3821333668430D-02
166  1.6500000000000D+00 -7.0678702358074D-02 -1.1157231122166D-01
167  1.6600000000000D+00 -6.3857175266321D-02 -1.3599339600950D-01
168  1.6700000000000D+00 -5.7413356841907D-02 -1.5715894061481D-01
169  1.6800000000000D+00 -5.1355146084384D-02 -1.7515758542974D-01
170  1.6900000000000D+00 -4.5687283624117D-02 -1.9009139263529D-01
171  1.7000000000000D+00 -4.0411467268493D-02 -2.0207514795458D-01
172  1.7100000000000D+00 -3.5526479120274D-02 -2.1123563208828D-01
173  1.7200000000000D+00 -3.1028333258605D-02 -2.1771078183327D-01
174  1.7300000000000D+00 -2.6910439549137D-02 -2.2164877766987D-01
175  1.7400000000000D+00 -2.3163781128305D-02 -2.2320706970071D-01
176  1.7500000000000D+00 -1.9777105507901D-02 -2.2255134215947D-01
177  1.7600000000000D+00 -1.6737126931454D-02 -2.1985442799856D-01
178  1.7700000000000D+00 -1.4028739446403D-02 -2.1529517606105D-01
179  1.7800000000000D+00 -1.1635238720275D-02 -2.0905728021544D-01
180  1.7900000000000D+00 -9.5385511775283D-03 -2.0132807776217D-01
181  1.8000000000000D+00 -7.7194684525288D-03 -1.9229732715280D-01
182  1.8100000000000D+00 -6.1578864931499D-03 -1.8215596687271D-01
183  1.8200000000000D+00 -4.8330481516052D-03 -1.7109486056818D-01
184  1.8300000000000D+00 -3.7237858473481D-03 -1.5930354730664D-01
185  1.8400000000000D+00 -2.8087617788725D-03 -1.4696901059212D-01
186  1.8500000000000D+00 -2.0667061977959D-03 -1.3427446058594D-01
187  1.8600000000000D+00 -1.4766537261863D-03 -1.2139812666939D-01
188  1.8700000000000D+00 -1.0181744684829D-03 -1.0851207975114D-01
189  1.8800000000000D+00 -6.7159449024669D-04 -9.5781114215269D-02
190  1.8900000000000D+00 -4.1820912326259D-04 -8.3361668079151D-02
191  1.9000000000000D+00 -2.4048590636919D-04 -7.1400796523131D-02
192  1.9100000000000D+00 -1.2225661955711D-04 -6.0035202782951D-02
193  1.9200000000000D+00 -4.8895659130292D-05 -4.9390339908471D-02
194  1.9300000000000D+00 -7.4842008693122D-06 -3.9579585837527D-02
195  1.9400000000000D+00  1.3040204205694D-05 -3.0703493280552D-02
196  1.9500000000000D+00  2.1751223678819D-05 -2.2856508699153D-02
197  1.9600000000000D+00  2.5619518912079D-05 -1.6093488713504D-02
198  1.9700000000000D+00  2.8958994941817D-05 -1.0447590588292D-02
199  1.9800000000000D+00  3.5078881837029D-05 -6.0279064207313D-03
200  1.9900000000000D+00  4.5766580231678D-05 -2.9404839208431D-03
201  2.0000000000000D+00  5.7610071618472D-05 -1.1290226552840D-03
202  2.0100000000000D+00  5.8840163113718D-05 -2.6509815338244D-04
203  2.0200000000000D+00  3.8638973234438D-05  2.9977682872161D-05
204  2.0300000000000D+00  1.1450761816029D-05  3.4373852548452D-05
205  2.0400000000000D+00 -4.9375257410808D-06 -2.0226496460602D-05
206  2.0500000000000D+00 -5.5414685352646D-06 -2.7604943215679D-05
207  2.0600000000000D+00  1.5024728091823D-07  4.0374976244616D-07
208  2.0700000000000D+00  1.4342670433299D-06  4.4485834796780D-06
209  2.0800000000000D+00  6.4550906612794D-07  2.2138227504606D-06
210  2.0900000000000D+00 -1.2167200462404D-07  4.7175202508381D-07
211  2.1000000000000D+00 -1.4505362998016D-07  5.6240828693781D-07
212  2.1100000000000D+00  0.0000000000000D+00  0.0000000000000D+00
213  2.1200000000000D+00  0.0000000000000D+00  0.0000000000000D+00
214  2.1300000000000D+00  0.0000000000000D+00  0.0000000000000D+00
215  2.1400000000000D+00  0.0000000000000D+00  0.0000000000000D+00
216  2.1500000000000D+00  0.0000000000000D+00  0.0000000000000D+00
217  2.1600000000000D+00  0.0000000000000D+00  0.0000000000000D+00
218  2.1700000000000D+00  0.0000000000000D+00  0.0000000000000D+00
219  2.1800000000000D+00  0.0000000000000D+00  0.0000000000000D+00
220  2.1900000000000D+00  0.0000000000000D+00  0.0000000000000D+00
221  2.2000000000000D+00  0.0000000000000D+00  0.0000000000000D+00
222  2.2100000000000D+00  0.0000000000000D+00  0.0000000000000D+00
223  2.2200000000000D+00  0.0000000000000D+00  0.0000000000000D+00
224  2.2300000000000D+00  0.0000000000000D+00  0.0000000000000D+00
225  2.2400000000000D+00  0.0000000000000D+00  0.0000000000000D+00
226  2.2500000000000D+00  0.0000000000000D+00  0.0000000000000D+00
227  2.2600000000000D+00  0.0000000000000D+00  0.0000000000000D+00
228  2.2700000000000D+00  0.0000000000000D+00  0.0000000000000D+00
229  2.2800000000000D+00  0.0000000000000D+00  0.0000000000000D+00
230  2.2900000000000D+00  0.0000000000000D+00  0.0000000000000D+00
231  2.3000000000000D+00  0.0000000000000D+00  0.0000000000000D+00
232  2.3100000000000D+00  0.0000000000000D+00  0.0000000000000D+00
233  2.3200000000000D+00  0.0000000000000D+00  0.0000000000000D+00
234  2.3300000000000D+00  0.0000000000000D+00  0.0000000000000D+00
235  2.3400000000000D+00  0.0000000000000D+00  0.0000000000000D+00
236  2.3500000000000D+00  0.0000000000000D+00  0.0000000000000D+00
237  2.3600000000000D+00  0.0000000000000D+00  0.0000000000000D+00
238  2.3700000000000D+00  0.0000000000000D+00  0.0000000000000D+00
239  2.3800000000000D+00  0.0000000000000D+00  0.0000000000000D+00
240  2.3900000000000D+00  0.0000000000000D+00  0.0000000000000D+00
241  2.4000000000000D+00  0.0000000000000D+00  0.0000000000000D+00
242  2.4100000000000D+00  0.0000000000000D+00  0.0000000000000D+00
243  2.4200000000000D+00  0.0000000000000D+00  0.0000000000000D+00
244  2.4300000000000D+00  0.0000000000000D+00  0.0000000000000D+00
245  2.4400000000000D+00  0.0000000000000D+00  0.0000000000000D+00
246  2.4500000000000D+00  0.0000000000000D+00  0.0000000000000D+00
247  2.4600000000000D+00  0.0000000000000D+00  0.0000000000000D+00
248  2.4700000000000D+00  0.0000000000000D+00  0.0000000000000D+00
249  2.4800000000000D+00  0.0000000000000D+00  0.0000000000000D+00
250  2.4900000000000D+00  0.0000000000000D+00  0.0000000000000D+00
251  2.5000000000000D+00  0.0000000000000D+00  0.0000000000000D+00
252  2.5100000000000D+00  0.0000000000000D+00  0.0000000000000D+00
253  2.5200000000000D+00  0.0000000000000D+00  0.0000000000000D+00
254  2.5300000000000D+00  0.0000000000000D+00  0.0000000000000D+00
255  2.5400000000000D+00  0.0000000000000D+00  0.0000000000000D+00
256  2.5500000000000D+00  0.0000000000000D+00  0.0000000000000D+00
257  2.5600000000000D+00  0.0000000000000D+00  0.0000000000000D+00
258  2.5700000000000D+00  0.0000000000000D+00  0.0000000000000D+00
259  2.5800000000000D+00  0.0000000000000D+00  0.0000000000000D+00
260  2.5900000000000D+00  0.0000000000000D+00  0.0000000000000D+00
261  2.6000000000000D+00  0.0000000000000D+00  0.0000000000000D+00
262  2.6100000000000D+00  0.0000000000000D+00  0.0000000000000D+00
263  2.6200000000000D+00  0.0000000000000D+00  0.0000000000000D+00
264  2.6300000000000D+00  0.0000000000000D+00  0.0000000000000D+00
265  2.6400000000000D+00  0.0000000000000D+00  0.0000000000000D+00
266  2.6500000000000D+00  0.0000000000000D+00  0.0000000000000D+00
267  2.6600000000000D+00  0.0000000000000D+00  0.0000000000000D+00
268  2.6700000000000D+00  0.0000000000000D+00  0.0000000000000D+00
269  2.6800000000000D+00  0.0000000000000D+00  0.0000000000000D+00
270  2.6900000000000D+00  0.0000000000000D+00  0.0000000000000D+00
271  2.7000000000000D+00  0.0000000000000D+00  0.0000000000000D+00
272  2.7100000000000D+00  0.0000000000000D+00  0.0000000000000D+00
273  2.7200000000000D+00  0.0000000000000D+00  0.0000000000000D+00
274  2.7300000000000D+00  0.0000000000000D+00  0.0000000000000D+00
275  2.7400000000000D+00  0.0000000000000D+00  0.0000000000000D+00
276  2.7500000000000D+00  0.0000000000000D+00  0.0000000000000D+00
277  2.7600000000000D+00  0.0000000000000D+00  0.0000000000000D+00
278  2.7700000000000D+00  0.0000000000000D+00  0.0000000000000D+00
279  2.7800000000000D+00  0.0000000000000D+00  0.0000000000000D+00
280  2.7900000000000D+00  0.0000000000000D+00  0.0000000000000D+00
281  2.8000000000000D+00  0.0000000000000D+00  0.0000000000000D+00
282  2.8100000000000D+00  0.0000000000000D+00  0.0000000000000D+00
283  2.8200000000000D+00  0.0000000000000D+00  0.0000000000000D+00
284  2.8300000000000D+00  0.0000000000000D+00  0.0000000000000D+00
285  2.8400000000000D+00  0.0000000000000D+00  0.0000000000000D+00
286  2.8500000000000D+00  0.0000000000000D+00  0.0000000000000D+00
287  2.8600000000000D+00  0.0000000000000D+00  0.0000000000000D+00
288  2.8700000000000D+00  0.0000000000000D+00  0.0000000000000D+00
289  2.8800000000000D+00  0.0000000000000D+00  0.0000000000000D+00
290  2.8900000000000D+00  0.0000000000000D+00  0.0000000000000D+00
291  2.9000000000000D+00  0.0000000000000D+00  0.0000000000000D+00
292  2.9100000000000D+00  0.0000000000000D+00  0.0000000000000D+00
293  2.9200000000000D+00  0.0000000000000D+00  0.0000000000000D+00
294  2.9300000000000D+00  0.0000000000000D+00  0.0000000000000D+00
295  2.9400000000000D+00  0.0000000000000D+00  0.0000000000000D+00
296  2.9500000000000D+00  0.0000000000000D+00  0.0000000000000D+00
297  2.9600000000000D+00  0.0000000000000D+00  0.0000000000000D+00
298  2.9700000000000D+00  0.0000000000000D+00  0.0000000000000D+00
299  2.9800000000000D+00  0.0000000000000D+00  0.0000000000000D+00
300  2.9900000000000D+00  0.0000000000000D+00  0.0000000000000D+00
301  3.0000000000000D+00  0.0000000000000D+00  0.0000000000000D+00
302  3.0100000000000D+00  0.0000000000000D+00  0.0000000000000D+00
303  3.0200000000000D+00  0.0000000000000D+00  0.0000000000000D+00
304  3.0300000000000D+00  0.0000000000000D+00  0.0000000000000D+00
305  3.0400000000000D+00  0.0000000000000D+00  0.0000000000000D+00
306  3.0500000000000D+00  0.0000000000000D+00  0.0000000000000D+00
307  3.0600000000000D+00  0.0000000000000D+00  0.0000000000000D+00
308  3.0700000000000D+00  0.0000000000000D+00  0.0000000000000D+00
309  3.0800000000000D+00  0.0000000000000D+00  0.0000000000000D+00
310  3.0900000000000D+00  0.0000000000000D+00  0.0000000000000D+00
311  3.1000000000000D+00  0.0000000000000D+00  0.0000000000000D+00
312  3.1100000000000D+00  0.0000000000000D+00  0.0000000000000D+00
313  3.1200000000000D+00  0.0000000000000D+00  0.0000000000000D+00
314  3.1300000000000D+00  0.0000000000000D+00  0.0000000000000D+00
315  3.1400000000000D+00  0.0000000000000D+00  0.0000000000000D+00
316  3.1500000000000D+00  0.0000000000000D+00  0.0000000000000D+00
317  3.1600000000000D+00  0.0000000000000D+00  0.0000000000000D+00
318  3.1700000000000D+00  0.0000000000000D+00  0.0000000000000D+00
319  3.1800000000000D+00  0.0000000000000D+00  0.0000000000000D+00
320  3.1900000000000D+00  0.0000000000000D+00  0.0000000000000D+00
321  3.2000000000000D+00  0.0000000000000D+00  0.0000000000000D+00
322  3.2100000000000D+00  0.0000000000000D+00  0.0000000000000D+00
323  3.2200000000000D+00  0.0000000000000D+00  0.0000000000000D+00
324  3.2300000000000D+00  0.0000000000000D+00  0.0000000000000D+00
325  3.2400000000000D+00  0.0000000000000D+00  0.0000000000000D+00
326  3.2500000000000D+00  0.0000000000000D+00  0.0000000000000D+00
327  3.2600000000000D+00  0.0000000000000D+00  0.0000000000000D+00
328  3.2700000000000D+00  0.0000000000000D+00  0.0000000000000D+00
329  3.2800000000000D+00  0.0000000000000D+00  0.0000000000000D+00
330  3.2900000000000D+00  0.0000000000000D+00  0.0000000000000D+00
331  3.3000000000000D+00  0.0000000000000D+00  0.0000000000000D+00
332  3.3100000000000D+00  0.0000000000000D+00  0.0000000000000D+00
333  3.3200000000000D+00  0.0000000000000D+00  0.0000000000000D+00
334  3.3300000000000D+00  0.0000000000000D+00  0.0000000000000D+00
335  3.3400000000000D+00  0.0000000000000D+00  0.0000000000000D+00
336  3.3500000000000D+00  0.0000000000000D+00  0.0000000000000D+00
337  3.3600000000000D+00  0.0000000000000D+00  0.0000000000000D+00
338  3.3700000000000D+00  0.0000000000000D+00  0.0000000000000D+00
339  3.3800000000000D+00  0.0000000000000D+00  0.0000000000000D+00
340  3.3900000000000D+00  0.0000000000000D+00  0.0000000000000D+00
341  3.4000000000000D+00  0.0000000000000D+00  0.0000000000000D+00
342  3.4100000000000D+00  0.0000000000000D+00  0.0000000000000D+00
343  3.4200000000000D+00  0.0000000000000D+00  0.0000000000000D+00
344  3.4300000000000D+00  0.0000000000000D+00  0.0000000000000D+00
345  3.4400000000000D+00  0.0000000000000D+00  0.0000000000000D+00
346  3.4500000000000D+00  0.0000000000000D+00  0.0000000000000D+00
347  3.4600000000000D+00  0.0000000000000D+00  0.0000000000000D+00
348  3.4700000000000D+00  0.0000000000000D+00  0.0000000000000D+00
349  3.4800000000000D+00  0.0000000000000D+00  0.0000000000000D+00
350  3.4900000000000D+00  0.0000000000000D+00  0.0000000000000D+00
351  3.5000000000000D+00  0.0000000000000D+00  0.0000000000000D+00
352  3.5100000000000D+00  0.0000000000000D+00  0.0000000000000D+00
353  3.5200000000000D+00  0.0000000000000D+00  0.0000000000000D+00
354  3.5300000000000D+00  0.0000000000000D+00  0.0000000000000D+00
355  3.5400000000000D+00  0.0000000000000D+00  0.0000000000000D+00
356  3.5500000000000D+00  0.0000000000000D+00  0.0000000000000D+00
357  3.5600000000000D+00  0.0000000000000D+00  0.0000000000000D+00
358  3.5700000000000D+00  0.0000000000000D+00  0.0000000000000D+00
359  3.5800000000000D+00  0.0000000000000D+00  0.0000000000000D+00
360  3.5900000000000D+00  0.0000000000000D+00  0.0000000000000D+00
361  3.6000000000000D+00  0.0000000000000D+00  0.0000000000000D+00
362  3.6100000000000D+00  0.0000000000000D+00  0.0000000000000D+00
363  3.6200000000000D+00  0.0000000000000D+00  0.0000000000000D+00
364  3.6300000000000D+00  0.0000000000000D+00  0.0000000000000D+00
365  3.6400000000000D+00  0.0000000000000D+00  0.0000000000000D+00
366  3.6500000000000D+00  0.0000000000000D+00  0.0000000000000D+00
367  3.6600000000000D+00  0.0000000000000D+00  0.0000000000000D+00
368  3.6700000000000D+00  0.0000000000000D+00  0.0000000000000D+00
369  3.6800000000000D+00  0.0000000000000D+00  0.0000000000000D+00
370  3.6900000000000D+00  0.0000000000000D+00  0.0000000000000D+00
371  3.7000000000000D+00  0.0000000000000D+00  0.0000000000000D+00
372  3.7100000000000D+00  0.0000000000000D+00  0.0000000000000D+00
373  3.7200000000000D+00  0.0000000000000D+00  0.0000000000000D+00
374  3.7300000000000D+00  0.0000000000000D+00  0.0000000000000D+00
375  3.7400000000000D+00  0.0000000000000D+00  0.0000000000000D+00
376  3.7500000000000D+00  0.0000000000000D+00  0.0000000000000D+00
377  3.7600000000000D+00  0.0000000000000D+00  0.0000000000000D+00
378  3.7700000000000D+00  0.0000000000000D+00  0.0000000000000D+00
379  3.7800000000000D+00  0.0000000000000D+00  0.0000000000000D+00
380  3.7900000000000D+00  0.0000000000000D+00  0.0000000000000D+00
381  3.8000000000000D+00  0.0000000000000D+00  0.0000000000000D+00
382  3.8100000000000D+00  0.0000000000000D+00  0.0000000000000D+00
383  3.8200000000000D+00  0.0000000000000D+00  0.0000000000000D+00
384  3.8300000000000D+00  0.0000000000000D+00  0.0000000000000D+00
385  3.8400000000000D+00  0.0000000000000D+00  0.0000000000000D+00
386  3.8500000000000D+00  0.0000000000000D+00  0.0000000000000D+00
387  3.8600000000000D+00  0.0000000000000D+00  0.0000000000000D+00
388  3.8700000000000D+00  0.0000000000000D+00  0.0000000000000D+00
389  3.8800000000000D+00  0.0000000000000D+00  0.0000000000000D+00
390  3.8900000000000D+00  0.0000000000000D+00  0.0000000000000D+00
391  3.9000000000000D+00  0.0000000000000D+00  0.0000000000000D+00
392  3.9100000000000D+00  0.0000000000000D+00  0.0000000000000D+00
393  3.9200000000000D+00  0.0000000000000D+00  0.0000000000000D+00
394  3.9300000000000D+00  0.0000000000000D+00  0.0000000000000D+00
395  3.9400000000000D+00  0.0000000000000D+00  0.0000000000000D+00
396  3.9500000000000D+00  0.0000000000000D+00  0.0000000000000D+00
397  3.9600000000000D+00  0.0000000000000D+00  0.0000000000000D+00
398  3.9700000000000D+00  0.0000000000000D+00  0.0000000000000D+00
399  3.9800000000000D+00  0.0000000000000D+00  0.0000000000000D+00
400  3.9900000000000D+00  0.0000000000000D+00  0.0000000000000D+00
401  4.0000000000000D+00  0.0000000000000D+00  0.0000000000000D+00
402  4.0100000000000D+00  0.0000000000000D+00  0.0000000000000D+00
403  4.0200000000000D+00  0.0000000000000D+00  0.0000000000000D+00
404  4.0300000000000D+00  0.0000000000000D+00  0.0000000000000D+00
405  4.0400000000000D+00  0.0000000000000D+00  0.0000000000000D+00
406  4.0500000000000D+00  0.0000000000000D+00  0.0000000000000D+00
407  4.0600000000000D+00  0.0000000000000D+00  0.0000000000000D+00
408  4.0700000000000D+00  0.0000000000000D+00  0.0000000000000D+00
409  4.0800000000000D+00  0.0000000000000D+00  0.0000000000000D+00
410  4.0900000000000D+00  0.0000000000000D+00  0.0000000000000D+00
411  4.1000000000000D+00  0.0000000000000D+00  0.0000000000000D+00
412  4.1100000000000D+00  0.0000000000000D+00  0.0000000000000D+00
413  4.1200000000000D+00  0.0000000000000D+00  0.0000000000000D+00
414  4.1300000000000D+00  0.0000000000000D+00  0.0000000000000D+00
415  4.1400000000000D+00  0.0000000000000D+00  0.0000000000000D+00
416  4.1500000000000D+00  0.0000000000000D+00  0.0000000000000D+00
417  4.1600000000000D+00  0.0000000000000D+00  0.0000000000000D+00
418  4.1700000000000D+00  0.0000000000000D+00  0.0000000000000D+00
419  4.1800000000000D+00  0.0000000000000D+00  0.0000000000000D+00
420  4.1900000000000D+00  0.0000000000000D+00  0.0000000000000D+00
421  4.2000000000000D+00  0.0000000000000D+00  0.0000000000000D+00
422  4.2100000000000D+00  0.0000000000000D+00  0.0000000000000D+00
423  4.2200000000000D+00  0.0000000000000D+00  0.0000000000000D+00
424  4.2300000000000D+00  0.0000000000000D+00  0.0000000000000D+00
425  4.2400000000000D+00  0.0000000000000D+00  0.0000000000000D+00
426  4.2500000000000D+00  0.0000000000000D+00  0.0000000000000D+00
427  4.2600000000000D+00  0.0000000000000D+00  0.0000000000000D+00
428  4.2700000000000D+00  0.0000000000000D+00  0.0000000000000D+00
429  4.2800000000000D+00  0.0000000000000D+00  0.0000000000000D+00
430  4.2900000000000D+00  0.0000000000000D+00  0.0000000000000D+00
431  4.3000000000000D+00  0.0000000000000D+00  0.0000000000000D+00
432  4.3100000000000D+00  0.0000000000000D+00  0.0000000000000D+00
433  4.3200000000000D+00  0.0000000000000D+00  0.0000000000000D+00
434  4.3300000000000D+00  0.0000000000000D+00  0.0000000000000D+00
435  4.3400000000000D+00  0.0000000000000D+00  0.0000000000000D+00
436  4.3500000000000D+00  0.0000000000000D+00  0.0000000000000D+00
437  4.3600000000000D+00  0.0000000000000D+00  0.0000000000000D+00
438  4.3700000000000D+00  0.0000000000000D+00  0.0000000000000D+00
439  4.3800000000000D+00  0.0000000000000D+00  0.0000000000000D+00
440  4.3900000000000D+00  0.0000000000000D+00  0.0000000000000D+00
441  4.4000000000000D+00  0.0000000000000D+00  0.0000000000000D+00
442  4.4100000000000D+00  0.0000000000000D+00  0.0000000000000D+00
443  4.4200000000000D+00  0.0000000000000D+00  0.0000000000000D+00