Nd    ONCVPSP-3.2.3  r_core=   2.01081   1.60303   1.87192   1.66143
60.0000     14.0000      170518    zatom,zion,pspd
8      11   3     4   600     0    pspcod,pspxc,lmax,lloc,mmax,r2well
5.99000000  0.25000000  0.00000000    rchrg fchrg qchrg
2     2     2     2     0    nproj
1     1           extension_switch
0                         7.2327695491734D+00  4.8200710744913D-01
1  0.0000000000000D+00 -9.3964835912175D-12  8.7612833654660D-11
2  1.0000000000000D-02  3.8086389023741D-02 -1.4176239673545D-02
3  2.0000000000000D-02  7.6141658234076D-02 -2.8286994228114D-02
4  3.0000000000000D-02  1.1413472324607D-01 -4.2267188825468D-02
5  4.0000000000000D-02  1.5203457031379D-01 -5.6052566113209D-02
6  5.0000000000000D-02  1.8981029110740D-01 -6.9580087300823D-02
7  6.0000000000000D-02  2.2743111684604D-01 -8.2788324097632D-02
8  7.0000000000000D-02  2.6486645158282D-01 -9.5617838569687D-02
9  8.0000000000000D-02  3.0208590444760D-01 -1.0801154806025D-01
10  9.0000000000000D-02  3.3905932066493D-01 -1.1991507242679D-01
11  1.0000000000000D-01  3.7575681117797D-01 -1.3127706097595D-01
12  1.1000000000000D-01  4.1214878072508D-01 -1.4204949662575D-01
13  1.2000000000000D-01  4.4820595423300D-01 -1.5218797499027D-01
14  1.3000000000000D-01  4.8389940141008D-01 -1.6165195626560D-01
15  1.4000000000000D-01  5.1920055944332D-01 -1.7040498799507D-01
16  1.5000000000000D-01  5.5408125372532D-01 -1.7841489700607D-01
17  1.6000000000000D-01  5.8851371656049D-01 -1.8565394903817D-01
18  1.7000000000000D-01  6.2247060382357D-01 -1.9209897482129D-01
19  1.8000000000000D-01  6.5592500956902D-01 -1.9773146161264D-01
20  1.9000000000000D-01  6.8885047861465D-01 -2.0253760945819D-01
21  2.0000000000000D-01  7.2122101714862D-01 -2.0650835170996D-01
22  2.1000000000000D-01  7.5301110143462D-01 -2.0963933959916D-01
23  2.2000000000000D-01  7.8419568471522D-01 -2.1193089093817D-01
24  2.3000000000000D-01  8.1475020243827D-01 -2.1338790329755D-01
25  2.4000000000000D-01  8.4465057595513D-01 -2.1401973227733D-01
26  2.5000000000000D-01  8.7387321486277D-01 -2.1384003576097D-01
27  2.6000000000000D-01  9.0239501818305D-01 -2.1286658530608D-01
28  2.7000000000000D-01  9.3019337459320D-01 -2.1112104608332D-01
29  2.8000000000000D-01  9.5724616193930D-01 -2.0862872702465D-01
30  2.9000000000000D-01  9.8353174628144D-01 -2.0541830308053D-01
31  3.0000000000000D-01  1.0090289807328D+00 -2.0152151171156D-01
32  3.1000000000000D-01  1.0337172043670D+00 -1.9697282595149D-01
33  3.2000000000000D-01  1.0575762414766D+00 -1.9180910657433D-01
34  3.3000000000000D-01  1.0805864014716D+00 -1.8606923607531D-01
35  3.4000000000000D-01  1.1027284797111D+00 -1.7979373733402D-01
36  3.5000000000000D-01  1.1239837595587D+00 -1.7302437996536D-01
37  3.6000000000000D-01  1.1443340159519D+00 -1.6580377747916D-01
38  3.7000000000000D-01  1.1637615207663D+00 -1.5817497846156D-01
39  3.8000000000000D-01  1.1822490502470D+00 -1.5018105505895D-01
40  3.9000000000000D-01  1.1997798947660D+00 -1.4186469208803D-01
41  4.0000000000000D-01  1.2163378711454D+00 -1.3326778011237D-01
42  4.1000000000000D-01  1.2319073377687D+00 -1.2443101581691D-01
43  4.2000000000000D-01  1.2464732126754D+00 -1.1539351297577D-01
44  4.3000000000000D-01  1.2600209948108D+00 -1.0619242724667D-01
45  4.4000000000000D-01  1.2725367885679D+00 -9.6862597936277D-02
46  4.5000000000000D-01  1.2840073317299D+00 -8.7436209766440D-02
47  4.6000000000000D-01  1.2944200268824D+00 -7.7942477530501D-02
48  4.7000000000000D-01  1.3037629763271D+00 -6.8407356364317D-02
49  4.8000000000000D-01  1.3120250204888D+00 -5.8853280167800D-02
50  4.9000000000000D-01  1.3191957797637D+00 -4.9298930501932D-02
51  5.0000000000000D-01  1.3252656997121D+00 -3.9759038053904D-02
52  5.1000000000000D-01  1.3302260994562D+00 -3.0244218511919D-02
53  5.2000000000000D-01  1.3340692230936D+00 -2.0760844422640D-02
54  5.3000000000000D-01  1.3367882938930D+00 -1.1310954319330D-02
55  5.4000000000000D-01  1.3383775709902D+00 -1.8922001122928D-03
56  5.5000000000000D-01  1.3388324082590D+00  7.5021665754439D-03
57  5.6000000000000D-01  1.3381493149822D+00  1.6883268760627D-02
58  5.7000000000000D-01  1.3363260179103D+00  2.6266539095467D-02
59  5.8000000000000D-01  1.3333615242471D+00  3.5671615786485D-02
60  5.9000000000000D-01  1.3292561850688D+00  4.5122200040935D-02
61  6.0000000000000D-01  1.3240117586434D+00  5.4645875967006D-02
62  6.1000000000000D-01  1.3176314730853D+00  6.4273894169345D-02
63  6.2000000000000D-01  1.3101200877544D+00  7.4040920587773D-02
64  6.3000000000000D-01  1.3014839527817D+00  8.3984752423307D-02
65  6.4000000000000D-01  1.2917310660866D+00  9.4146003272789D-02
66  6.5000000000000D-01  1.2808711272398D+00  1.0456775985846D-01
67  6.6000000000000D-01  1.2689155875130D+00  1.1529521297886D-01
68  6.7000000000000D-01  1.2558776954623D+00  1.2637526552690D-01
69  6.8000000000000D-01  1.2417725373915D+00  1.3785612061455D-01
70  6.9000000000000D-01  1.2266170720570D+00  1.4978685300962D-01
71  7.0000000000000D-01  1.2104301589952D+00  1.6221696722648D-01
72  7.1000000000000D-01  1.1932325798766D+00  1.7519594571763D-01
73  7.2000000000000D-01  1.1750470523283D+00  1.8877279068613D-01
74  7.3000000000000D-01  1.1558982357032D+00  2.0299556307762D-01
75  7.4000000000000D-01  1.1358127283247D+00  2.1791092231470D-01
76  7.5000000000000D-01  1.1148190557882D+00  2.3356367030641D-01
77  7.6000000000000D-01  1.0929476499640D+00  2.4999630320053D-01
78  7.7000000000000D-01  1.0702308184113D+00  2.6724857424543D-01
79  7.8000000000000D-01  1.0467027039892D+00  2.8535707099608D-01
80  7.9000000000000D-01  1.0223992345267D+00  3.0435480993157D-01
81  8.0000000000000D-01  9.9735806250101D-01  3.2427085135539D-01
82  8.1000000000000D-01  9.7161849475811D-01  3.4512993722341D-01
83  8.2000000000000D-01  9.4522141240300D-01  3.6695215429267D-01
84  8.3000000000000D-01  9.1820918108105D-01  3.8975262470811D-01
85  8.4000000000000D-01  8.9062555196697D-01  4.1354122584853D-01
86  8.5000000000000D-01  8.6251555387503D-01  4.3832234094010D-01
87  8.6000000000000D-01  8.3392537700029D-01  4.6409464162036D-01
88  8.7000000000000D-01  8.0490224889540D-01  4.9085090330153D-01
89  8.8000000000000D-01  7.7549430338019D-01  5.1857785384351D-01
90  8.9000000000000D-01  7.4575044316949D-01  5.4725605570974D-01
91  9.0000000000000D-01  7.1572019708891D-01  5.7685982144670D-01
92  9.1000000000000D-01  6.8545357282574D-01  6.0735716200659D-01
93  9.2000000000000D-01  6.5500090623255D-01  6.3870976712677D-01
94  9.3000000000000D-01  6.2441270826305D-01  6.7087301669434D-01
95  9.4000000000000D-01  5.9373951067211D-01  7.0379602176469D-01
96  9.5000000000000D-01  5.6303171165292D-01  7.3742169367406D-01
97  9.6000000000000D-01  5.3233942261442D-01  7.7168683949211D-01
98  9.7000000000000D-01  5.0171231731842D-01  8.0652228190705D-01
99  9.8000000000000D-01  4.7119948459849D-01  8.4185300152512D-01
100  9.9000000000000D-01  4.4084928587216D-01  8.7759829950391D-01
101  1.0000000000000D+00  4.1070921862996D-01  9.1367197842499D-01
102  1.0100000000000D+00  3.8082578704268D-01  9.4998253935335D-01
103  1.0200000000000D+00  3.5124438076918D-01  9.8643339312557D-01
104  1.0300000000000D+00  3.2200916297229D-01  1.0229230840597D+00
105  1.0400000000000D+00  2.9316296845643D-01  1.0593455244913D+00
106  1.0500000000000D+00  2.6474721273456D-01  1.0955902388018D+00
107  1.0600000000000D+00  2.3680181270994D-01  1.1315426159138D+00
108  1.0700000000000D+00  2.0936511951207D-01  1.1670841696199D+00
109  1.0800000000000D+00  1.8247386387899D-01  1.2020928065109D+00
110  1.0900000000000D+00  1.5616311430172D-01  1.2364431017576D+00
111  1.1000000000000D+00  1.3046624797603D-01  1.2700065834765D+00
112  1.1100000000000D+00  1.0541493441489D-01  1.3026520269486D+00
113  1.1200000000000D+00  8.1039131363218D-02  1.3342457605525D+00
114  1.1300000000000D+00  5.7367092459937D-02  1.3646519858231D+00
115  1.1400000000000D+00  3.4425385869263D-02  1.3937331146523D+00
116  1.1500000000000D+00  1.2238922921235D-02  1.4213501271487D+00
117  1.1600000000000D+00 -9.1690044640214D-03  1.4473629543660D+00
118  1.1700000000000D+00 -2.9776678973900D-02  1.4716308905548D+00
119  1.1800000000000D+00 -4.9563907329484D-02  1.4940130400674D+00
120  1.1900000000000D+00 -6.8511965740832D-02  1.5143688044912D+00
121  1.2000000000000D+00 -8.6603543400970D-02  1.5325584159913D+00
122  1.2100000000000D+00 -1.0382268617383D-01  1.5484435229928D+00
123  1.2200000000000D+00 -1.2015474273221D-01  1.5618878345269D+00
124  1.2300000000000D+00 -1.3558631560352D-01  1.5727578296535D+00
125  1.2400000000000D+00 -1.5010521959924D-01  1.5809235380248D+00
126  1.2500000000000D+00 -1.6370045016344D-01  1.5862593975506D+00
127  1.2600000000000D+00 -1.7636216423877D-01  1.5886451946757D+00
128  1.2700000000000D+00 -1.8808167613920D-01  1.5879670916073D+00
129  1.2800000000000D+00 -1.9885147088464D-01  1.5841187443961D+00
130  1.2900000000000D+00 -2.0866523738442D-01  1.5770025147162D+00
131  1.3000000000000D+00 -2.1751792345218D-01  1.5665307754253D+00
132  1.3100000000000D+00 -2.2540581462162D-01  1.5526273098817D+00
133  1.3200000000000D+00 -2.3232663839681D-01  1.5352288024772D+00
134  1.3300000000000D+00 -2.3827969470958D-01  1.5142864128746D+00
135  1.3400000000000D+00 -2.4326601371167D-01  1.4897674284096D+00
136  1.3500000000000D+00 -2.4728854084693D-01  1.4616569820583D+00
137  1.3600000000000D+00 -2.5035234806640D-01  1.4299598176930D+00
138  1.3700000000000D+00 -2.5246487111204D-01  1.3947020898668D+00
139  1.3800000000000D+00 -2.5363616941481D-01  1.3559331670196D+00
140  1.3900000000000D+00 -2.5387920595920D-01  1.3137274115928D+00
141  1.4000000000000D+00 -2.5321014377044D-01  1.2681859064276D+00
142  1.4100000000000D+00 -2.5164865132650D-01  1.2194380743179D+00
143  1.4200000000000D+00 -2.4921821322159D-01  1.1676431583853D+00
144  1.4300000000000D+00 -2.4594643535448D-01  1.1129914943505D+00
145  1.4400000000000D+00 -2.4186533542257D-01  1.0557055138477D+00
146  1.4500000000000D+00 -2.3701160953199D-01  9.9604041767721D-01
147  1.4600000000000D+00 -2.3142685594712D-01  9.3428440838489D-01
148  1.4700000000000D+00 -2.2515774833663D-01  8.7075842888690D-01
149  1.4800000000000D+00 -2.1825613275667D-01  8.0581526216530D-01
150  1.4900000000000D+00 -2.1077903393029D-01  7.3983790437577D-01
151  1.5000000000000D+00 -2.0278854644168D-01  6.7323707337726D-01
152  1.5100000000000D+00 -1.9435158175537D-01  6.0644769123614D-01
153  1.5200000000000D+00 -1.8553945205084D-01  5.3992422973633D-01
154  1.5300000000000D+00 -1.7642724310852D-01  4.7413466364464D-01
155  1.5400000000000D+00 -1.6709296236156D-01  4.0955294648155D-01
156  1.5500000000000D+00 -1.5761638868993D-01  3.4664959207121D-01
157  1.5600000000000D+00 -1.4807766027293D-01  2.8588070208670D-01
158  1.5700000000000D+00 -1.3855531384622D-01  2.2767336191660D-01
159  1.5800000000000D+00 -1.2912447547332D-01  1.7241284941253D-01
160  1.5900000000000D+00 -1.1985410256735D-01  1.2042375113578D-01
161  1.6000000000000D+00 -1.1080170622696D-01  7.1931224052187D-02
162  1.6100000000000D+00 -1.0201280437656D-01  2.7062377732760D-02
163  1.6200000000000D+00 -9.3522020635053D-02 -1.4136608789413D-02
164  1.6300000000000D+00 -8.5355655894612D-02 -5.1676423740663D-02
165  1.6400000000000D+00 -7.7537165080773D-02 -8.5578206950952D-02
166  1.6500000000000D+00 -7.0087008966723D-02 -1.1587406368612D-01
167  1.6600000000000D+00 -6.3021530461922D-02 -1.4261712697472D-01
168  1.6700000000000D+00 -5.6353556546389D-02 -1.6587625875225D-01
169  1.6800000000000D+00 -5.0092347175871D-02 -1.8573656485724D-01
170  1.6900000000000D+00 -4.4243722573610D-02 -2.0229851357026D-01
171  1.7000000000000D+00 -3.8810178529532D-02 -2.1567721115819D-01
172  1.7100000000000D+00 -3.3791016126509D-02 -2.2600163185340D-01
173  1.7200000000000D+00 -2.9182494073686D-02 -2.3341372275372D-01
174  1.7300000000000D+00 -2.4977999598222D-02 -2.3806742012819D-01
175  1.7400000000000D+00 -2.1168235103403D-02 -2.4012759116781D-01
176  1.7500000000000D+00 -1.7741420651793D-02 -2.3976890084428D-01
177  1.7600000000000D+00 -1.4683509576084D-02 -2.3717461748711D-01
178  1.7700000000000D+00 -1.1978416708214D-02 -2.3253535954845D-01
179  1.7800000000000D+00 -9.6082569562103D-03 -2.2604779479659D-01
180  1.7900000000000D+00 -7.5535927451220D-03 -2.1791329984573D-01
181  1.8000000000000D+00 -5.7936880839881D-03 -2.0833659163520D-01
182  1.8100000000000D+00 -4.3067683935211D-03 -1.9752433375398D-01
183  1.8200000000000D+00 -3.0702847291809D-03 -1.8568372389148D-01
184  1.8300000000000D+00 -2.0611788022840D-03 -1.7302108300866D-01
185  1.8400000000000D+00 -1.2561461442487D-03 -1.5974046107759D-01
186  1.8500000000000D+00 -6.3189760557636D-04 -1.4604225516778D-01
187  1.8600000000000D+00 -1.6541889573938D-04 -1.3212183821782D-01
188  1.8700000000000D+00  1.6577516667846D-04 -1.1816821914642D-01
189  1.8800000000000D+00  3.8339735271769D-04 -1.0436276661074D-01
190  1.8900000000000D+00  5.0815236032410D-04 -9.0877974785970D-02
191  1.9000000000000D+00  5.5951239203980D-04 -7.7876288978497D-02
192  1.9100000000000D+00  5.5550446865170D-04 -6.5508995014527D-02
193  1.9200000000000D+00  5.1251257266273D-04 -5.3915188153782D-02
194  1.9300000000000D+00  4.4509528317771D-04 -4.3220824612371D-02
195  1.9400000000000D+00  3.6581934537417D-04 -3.3537857684299D-02
196  1.9500000000000D+00  2.8519476968003D-04 -2.4971527874734D-02
197  1.9600000000000D+00  2.1117886732803D-04 -1.7583789898511D-02
198  1.9700000000000D+00  1.4883705900471D-04 -1.1412889333204D-02
199  1.9800000000000D+00  1.0300390168302D-04 -6.5795294345379D-03
200  1.9900000000000D+00  7.6890761933545D-05 -3.2007233308961D-03
201  2.0000000000000D+00  6.6803952398786D-05 -1.2167447035592D-03
202  2.0100000000000D+00  5.7926206323662D-05 -2.7207990698826D-04
203  2.0200000000000D+00  3.5674714351397D-05  4.4365548130987D-05
204  2.0300000000000D+00  1.0278441048165D-05  4.1001984572531D-05
205  2.0400000000000D+00 -4.3663567229195D-06 -2.3600161833995D-05
206  2.0500000000000D+00 -4.8432930246819D-06 -3.1848886517566D-05
207  2.0600000000000D+00  1.3533433743971D-07  4.8661376042920D-07
208  2.0700000000000D+00  1.2849829778393D-06  5.2950119556319D-06
209  2.0800000000000D+00  5.7585584493488D-07  2.6145005120250D-06
210  2.0900000000000D+00 -1.1890039548516D-07  4.7910105284565D-07
211  2.1000000000000D+00 -1.4174940262134D-07  5.7116957230476D-07
212  2.1100000000000D+00  0.0000000000000D+00  0.0000000000000D+00
213  2.1200000000000D+00  0.0000000000000D+00  0.0000000000000D+00
214  2.1300000000000D+00  0.0000000000000D+00  0.0000000000000D+00
215  2.1400000000000D+00  0.0000000000000D+00  0.0000000000000D+00
216  2.1500000000000D+00  0.0000000000000D+00  0.0000000000000D+00
217  2.1600000000000D+00  0.0000000000000D+00  0.0000000000000D+00
218  2.1700000000000D+00  0.0000000000000D+00  0.0000000000000D+00
219  2.1800000000000D+00  0.0000000000000D+00  0.0000000000000D+00
220  2.1900000000000D+00  0.0000000000000D+00  0.0000000000000D+00
221  2.2000000000000D+00  0.0000000000000D+00  0.0000000000000D+00
222  2.2100000000000D+00  0.0000000000000D+00  0.0000000000000D+00
223  2.2200000000000D+00  0.0000000000000D+00  0.0000000000000D+00
224  2.2300000000000D+00  0.0000000000000D+00  0.0000000000000D+00
225  2.2400000000000D+00  0.0000000000000D+00  0.0000000000000D+00
226  2.2500000000000D+00  0.0000000000000D+00  0.0000000000000D+00
227  2.2600000000000D+00  0.0000000000000D+00  0.0000000000000D+00
228  2.2700000000000D+00  0.0000000000000D+00  0.0000000000000D+00
229  2.2800000000000D+00  0.0000000000000D+00  0.0000000000000D+00
230  2.2900000000000D+00  0.0000000000000D+00  0.0000000000000D+00
231  2.3000000000000D+00  0.0000000000000D+00  0.0000000000000D+00
232  2.3100000000000D+00  0.0000000000000D+00  0.0000000000000D+00
233  2.3200000000000D+00  0.0000000000000D+00  0.0000000000000D+00
234  2.3300000000000D+00  0.0000000000000D+00  0.0000000000000D+00
235  2.3400000000000D+00  0.0000000000000D+00  0.0000000000000D+00
236  2.3500000000000D+00  0.0000000000000D+00  0.0000000000000D+00
237  2.3600000000000D+00  0.0000000000000D+00  0.0000000000000D+00
238  2.3700000000000D+00  0.0000000000000D+00  0.0000000000000D+00
239  2.3800000000000D+00  0.0000000000000D+00  0.0000000000000D+00
240  2.3900000000000D+00  0.0000000000000D+00  0.0000000000000D+00
241  2.4000000000000D+00  0.0000000000000D+00  0.0000000000000D+00
242  2.4100000000000D+00  0.0000000000000D+00  0.0000000000000D+00
243  2.4200000000000D+00  0.0000000000000D+00  0.0000000000000D+00
244  2.4300000000000D+00  0.0000000000000D+00  0.0000000000000D+00
245  2.4400000000000D+00  0.0000000000000D+00  0.0000000000000D+00
246  2.4500000000000D+00  0.0000000000000D+00  0.0000000000000D+00
247  2.4600000000000D+00  0.0000000000000D+00  0.0000000000000D+00
248  2.4700000000000D+00  0.0000000000000D+00  0.0000000000000D+00
249  2.4800000000000D+00  0.0000000000000D+00  0.0000000000000D+00
250  2.4900000000000D+00  0.0000000000000D+00  0.0000000000000D+00
251  2.5000000000000D+00  0.0000000000000D+00  0.0000000000000D+00
252  2.5100000000000D+00  0.0000000000000D+00  0.0000000000000D+00
253  2.5200000000000D+00  0.0000000000000D+00  0.0000000000000D+00
254  2.5300000000000D+00  0.0000000000000D+00  0.0000000000000D+00
255  2.5400000000000D+00  0.0000000000000D+00  0.0000000000000D+00
256  2.5500000000000D+00  0.0000000000000D+00  0.0000000000000D+00
257  2.5600000000000D+00  0.0000000000000D+00  0.0000000000000D+00
258  2.5700000000000D+00  0.0000000000000D+00  0.0000000000000D+00
259  2.5800000000000D+00  0.0000000000000D+00  0.0000000000000D+00
260  2.5900000000000D+00  0.0000000000000D+00  0.0000000000000D+00
261  2.6000000000000D+00  0.0000000000000D+00  0.0000000000000D+00
262  2.6100000000000D+00  0.0000000000000D+00  0.0000000000000D+00
263  2.6200000000000D+00  0.0000000000000D+00  0.0000000000000D+00
264  2.6300000000000D+00  0.0000000000000D+00  0.0000000000000D+00
265  2.6400000000000D+00  0.0000000000000D+00  0.0000000000000D+00
266  2.6500000000000D+00  0.0000000000000D+00  0.0000000000000D+00
267  2.6600000000000D+00  0.0000000000000D+00  0.0000000000000D+00
268  2.6700000000000D+00  0.0000000000000D+00  0.0000000000000D+00
269  2.6800000000000D+00  0.0000000000000D+00  0.0000000000000D+00
270  2.6900000000000D+00  0.0000000000000D+00  0.0000000000000D+00
271  2.7000000000000D+00  0.0000000000000D+00  0.0000000000000D+00
272  2.7100000000000D+00  0.0000000000000D+00  0.0000000000000D+00
273  2.7200000000000D+00  0.0000000000000D+00  0.0000000000000D+00
274  2.7300000000000D+00  0.0000000000000D+00  0.0000000000000D+00
275  2.7400000000000D+00  0.0000000000000D+00  0.0000000000000D+00
276  2.7500000000000D+00  0.0000000000000D+00  0.0000000000000D+00
277  2.7600000000000D+00  0.0000000000000D+00  0.0000000000000D+00
278  2.7700000000000D+00  0.0000000000000D+00  0.0000000000000D+00
279  2.7800000000000D+00  0.0000000000000D+00  0.0000000000000D+00
280  2.7900000000000D+00  0.0000000000000D+00  0.0000000000000D+00
281  2.8000000000000D+00  0.0000000000000D+00  0.0000000000000D+00
282  2.8100000000000D+00  0.0000000000000D+00  0.0000000000000D+00
283  2.8200000000000D+00  0.0000000000000D+00  0.0000000000000D+00
284  2.8300000000000D+00  0.0000000000000D+00  0.0000000000000D+00
285  2.8400000000000D+00  0.0000000000000D+00  0.0000000000000D+00
286  2.8500000000000D+00  0.0000000000000D+00  0.0000000000000D+00
287  2.8600000000000D+00  0.0000000000000D+00  0.0000000000000D+00
288  2.8700000000000D+00  0.0000000000000D+00  0.0000000000000D+00
289  2.8800000000000D+00  0.0000000000000D+00  0.0000000000000D+00
290  2.8900000000000D+00  0.0000000000000D+00  0.0000000000000D+00
291  2.9000000000000D+00  0.0000000000000D+00  0.0000000000000D+00
292  2.9100000000000D+00  0.0000000000000D+00  0.0000000000000D+00
293  2.9200000000000D+00  0.0000000000000D+00  0.0000000000000D+00
294  2.9300000000000D+00  0.0000000000000D+00  0.0000000000000D+00
295  2.9400000000000D+00  0.0000000000000D+00  0.0000000000000D+00
296  2.9500000000000D+00  0.0000000000000D+00  0.0000000000000D+00
297  2.9600000000000D+00  0.0000000000000D+00  0.0000000000000D+00
298  2.9700000000000D+00  0.0000000000000D+00  0.0000000000000D+00
299  2.9800000000000D+00  0.0000000000000D+00  0.0000000000000D+00
300  2.9900000000000D+00  0.0000000000000D+00  0.0000000000000D+00
301  3.0000000000000D+00  0.0000000000000D+00  0.0000000000000D+00
302  3.0100000000000D+00  0.0000000000000D+00  0.0000000000000D+00
303  3.0200000000000D+00  0.0000000000000D+00  0.0000000000000D+00
304  3.0300000000000D+00  0.0000000000000D+00  0.0000000000000D+00
305  3.0400000000000D+00  0.0000000000000D+00  0.0000000000000D+00
306  3.0500000000000D+00  0.0000000000000D+00  0.0000000000000D+00
307  3.0600000000000D+00  0.0000000000000D+00  0.0000000000000D+00
308  3.0700000000000D+00  0.0000000000000D+00  0.0000000000000D+00
309  3.0800000000000D+00  0.0000000000000D+00  0.0000000000000D+00
310  3.0900000000000D+00  0.0000000000000D+00  0.0000000000000D+00
311  3.1000000000000D+00  0.0000000000000D+00  0.0000000000000D+00
312  3.1100000000000D+00  0.0000000000000D+00  0.0000000000000D+00
313  3.1200000000000D+00  0.0000000000000D+00  0.0000000000000D+00
314  3.1300000000000D+00  0.0000000000000D+00  0.0000000000000D+00
315  3.1400000000000D+00  0.0000000000000D+00  0.0000000000000D+00
316  3.1500000000000D+00  0.0000000000000D+00  0.0000000000000D+00
317  3.1600000000000D+00  0.0000000000000D+00  0.0000000000000D+00
318  3.1700000000000D+00  0.0000000000000D+00  0.0000000000000D+00
319  3.1800000000000D+00  0.0000000000000D+00  0.0000000000000D+00
320  3.1900000000000D+00  0.0000000000000D+00  0.0000000000000D+00
321  3.2000000000000D+00  0.0000000000000D+00  0.0000000000000D+00
322  3.2100000000000D+00  0.0000000000000D+00  0.0000000000000D+00
323  3.2200000000000D+00  0.0000000000000D+00  0.0000000000000D+00
324  3.2300000000000D+00  0.0000000000000D+00  0.0000000000000D+00
325  3.2400000000000D+00  0.0000000000000D+00  0.0000000000000D+00
326  3.2500000000000D+00  0.0000000000000D+00  0.0000000000000D+00
327  3.2600000000000D+00  0.0000000000000D+00  0.0000000000000D+00
328  3.2700000000000D+00  0.0000000000000D+00  0.0000000000000D+00
329  3.2800000000000D+00  0.0000000000000D+00  0.0000000000000D+00
330  3.2900000000000D+00  0.0000000000000D+00  0.0000000000000D+00
331  3.3000000000000D+00  0.0000000000000D+00  0.0000000000000D+00
332  3.3100000000000D+00  0.0000000000000D+00  0.0000000000000D+00
333  3.3200000000000D+00  0.0000000000000D+00  0.0000000000000D+00
334  3.3300000000000D+00  0.0000000000000D+00  0.0000000000000D+00
335  3.3400000000000D+00  0.0000000000000D+00  0.0000000000000D+00
336  3.3500000000000D+00  0.0000000000000D+00  0.0000000000000D+00
337  3.3600000000000D+00  0.0000000000000D+00  0.0000000000000D+00
338  3.3700000000000D+00  0.0000000000000D+00  0.0000000000000D+00
339  3.3800000000000D+00  0.0000000000000D+00  0.0000000000000D+00
340  3.3900000000000D+00  0.0000000000000D+00  0.0000000000000D+00
341  3.4000000000000D+00  0.0000000000000D+00  0.0000000000000D+00
342  3.4100000000000D+00  0.0000000000000D+00  0.0000000000000D+00
343  3.4200000000000D+00  0.0000000000000D+00  0.0000000000000D+00
344  3.4300000000000D+00  0.0000000000000D+00  0.0000000000000D+00
345  3.4400000000000D+00  0.0000000000000D+00  0.0000000000000D+00
346  3.4500000000000D+00  0.0000000000000D+00  0.0000000000000D+00
347  3.4600000000000D+00  0.0000000000000D+00  0.0000000000000D+00
348  3.4700000000000D+00  0.0000000000000D+00  0.0000000000000D+00
349  3.4800000000000D+00  0.0000000000000D+00  0.0000000000000D+00
350  3.4900000000000D+00  0.0000000000000D+00  0.0000000000000D+00
351  3.5000000000000D+00  0.0000000000000D+00  0.0000000000000D+00
352  3.5100000000000D+00  0.0000000000000D+00  0.0000000000000D+00
353  3.5200000000000D+00  0.0000000000000D+00  0.0000000000000D+00
354  3.5300000000000D+00  0.0000000000000D+00  0.0000000000000D+00
355  3.5400000000000D+00  0.0000000000000D+00  0.0000000000000D+00
356  3.5500000000000D+00  0.0000000000000D+00  0.0000000000000D+00
357  3.5600000000000D+00  0.0000000000000D+00  0.0000000000000D+00
358  3.5700000000000D+00  0.0000000000000D+00  0.0000000000000D+00
359  3.5800000000000D+00  0.0000000000000D+00  0.0000000000000D+00
360  3.5900000000000D+00  0.0000000000000D+00  0.0000000000000D+00
361  3.6000000000000D+00  0.0000000000000D+00  0.0000000000000D+00
362  3.6100000000000D+00  0.0000000000000D+00  0.0000000000000D+00
363  3.6200000000000D+00  0.0000000000000D+00  0.0000000000000D+00
364  3.6300000000000D+00  0.0000000000000D+00  0.0000000000000D+00
365  3.6400000000000D+00  0.0000000000000D+00  0.0000000000000D+00
366  3.6500000000000D+00  0.0000000000000D+00  0.0000000000000D+00
367  3.6600000000000D+00  0.0000000000000D+00  0.0000000000000D+00
368  3.6700000000000D+00  0.0000000000000D+00  0.0000000000000D+00
369  3.6800000000000D+00  0.0000000000000D+00  0.0000000000000D+00
370  3.6900000000000D+00  0.0000000000000D+00  0.0000000000000D+00
371  3.7000000000000D+00  0.0000000000000D+00  0.0000000000000D+00
372  3.7100000000000D+00  0.0000000000000D+00  0.0000000000000D+00
373  3.7200000000000D+00  0.0000000000000D+00  0.0000000000000D+00
374  3.7300000000000D+00  0.0000000000000D+00  0.0000000000000D+00
375  3.7400000000000D+00  0.0000000000000D+00  0.0000000000000D+00
376  3.7500000000000D+00  0.0000000000000D+00  0.0000000000000D+00
377  3.7600000000000D+00  0.0000000000000D+00  0.0000000000000D+00
378  3.7700000000000D+00  0.0000000000000D+00  0.0000000000000D+00
379  3.7800000000000D+00  0.0000000000000D+00  0.0000000000000D+00
380  3.7900000000000D+00  0.0000000000000D+00  0.0000000000000D+00
381  3.8000000000000D+00  0.0000000000000D+00  0.0000000000000D+00
382  3.8100000000000D+00  0.0000000000000D+00  0.0000000000000D+00
383  3.8200000000000D+00  0.0000000000000D+00  0.0000000000000D+00
384  3.8300000000000D+00  0.0000000000000D+00  0.0000000000000D+00
385  3.8400000000000D+00  0.0000000000000D+00  0.0000000000000D+00
386  3.8500000000000D+00  0.0000000000000D+00  0.0000000000000D+00
387  3.8600000000000D+00  0.0000000000000D+00  0.0000000000000D+00
388  3.8700000000000D+00  0.0000000000000D+00  0.0000000000000D+00
389  3.8800000000000D+00  0.0000000000000D+00  0.0000000000000D+00
390  3.8900000000000D+00  0.0000000000000D+00  0.0000000000000D+00
391  3.9000000000000D+00  0.0000000000000D+00  0.0000000000000D+00
392  3.9100000000000D+00  0.0000000000000D+00  0.0000000000000D+00
393  3.9200000000000D+00  0.0000000000000D+00  0.0000000000000D+00
394  3.9300000000000D+00  0.0000000000000D+00  0.0000000000000D+00
395  3.9400000000000D+00  0.0000000000000D+00  0.0000000000000D+00
396  3.9500000000000D+00  0.0000000000000D+00  0.0000000000000D+00
397  3.9600000000000D+00  0.0000000000000D+00  0.0000000000000D+00
398  3.9700000000000D+00  0.0000000000000D+00  0.0000000000000D+00
399  3.9800000000000D+00  0.0000000000000D+00  0.0000000000000D+00
400  3.9900000000000D+00  0.0000000000000D+00  0.0000000000000D+00
401  4.0000000000000D+00  0.0000000000000D+00  0.0000000000000D+00
402  4.0100000000000D+00  0.0000000000000D+00  0.0000000000000D+00
403  4.0200000000000D+00  0.0000000000000D+00  0.0000000000000D+00
404  4.0300000000000D+00  0.0000000000000D+00  0.0000000000000D+00
405  4.0400000000000D+00  0.0000000000000D+00  0.0000000000000D+00
406  4.0500000000000D+00  0.0000000000000D+00  0.0000000000000D+00
407  4.0600000000000D+00  0.0000000000000D+00  0.0000000000000D+00
408  4.0700000000000D+00  0.0000000000000D+00  0.0000000000000D+00
409  4.0800000000000D+00  0.0000000000000D+00  0.0000000000000D+00
410  4.0900000000000D+00  0.0000000000000D+00  0.0000000000000D+00
411  4.1000000000000D+00  0.0000000000000D+00  0.0000000000000D+00
412  4.1100000000000D+00  0.0000000000000D+00  0.0000000000000D+00
413  4.1200000000000D+00  0.0000000000000D+00  0.0000000000000D+00
414  4.1300000000000D+00  0.0000000000000D+00  0.0000000000000D+00
415  4.1400000000000D+00  0.0000000000000D+00  0.0000000000000D+00
416  4.1500000000000D+00  0.0000000000000D+00  0.0000000000000D+00
417  4.1600000000000D+00  0.0000000000000D+00  0.0000000000000D+00
418  4.1700000000000D+00  0.0000000000000D+00  0.0000000000000D+00
419  4.1800000000000D+00  0.0000000000000D+00  0.0000000000000D+00
420  4.1900000000000D+00  0.0000000000000D+00  0.0000000000000D+00
421  4.2000000000000D+00  0.0000000000000D+00  0.0000000000000D+00
422  4.2100000000000D+00  0.0000000000000D+00  0.0000000000000D+00
423  4.2200000000000D+00  0.0000000000000D+00  0.0000000000000D+00
424  4.2300000000000D+00  0.0000000000000D+00  0.0000000000000D+00
425  4.2400000000000D+00  0.0000000000000D+00  0.0000000000000D+00
426  4.2500000000000D+00  0.0000000000000D+00  0.0000000000000D+00
427  4.2600000000000D+00  0.0000000000000D+00  0.0000000000000D+00
428  4.2700000000000D+00  0.0000000000000D+00  0.0000000000000D+00
429  4.2800000000000D+00  0.0000000000000D+00  0.0000000000000D+00
430  4.2900000000000D+00  0.0000000000000D+00  0.0000000000000D+00
431  4.3000000000000D+00  0.0000000000000D+00  0.0000000000000D+00
432  4.3100000000000D+00  0.0000000000000D+00  0.0000000000000D+00
433  4.3200000000000D+00  0.0000000000000D+00  0.0000000000000D+00
434  4.3300000000000D+00  0.0000000000000D+00  0.0000000000000D+00
435  4.3400000000000D+00  0.0000000000000D+00  0.0000000000000D+00
436  4.3500000000000D+00  0.0000000000000D+00  0.0000000000000D+00
437  4.3600000000000D+00  0.0000000000000D+00  0.0000000000000D+00
438  4.3700000000000D+00  0.0000000000000D+00  0.0000000000000D+00
439  4.3800000000000D+00  0.0000000000000D+00  0.0000000000000D+00
440  4.3900000000000D+00  0.0000000000000D+00  0.0000000000000D+00
441  4.4000000000000D+00  0.0000000000000D+00  0.0000000000000D+00
442  4.4100000000000D+00  0.0000000000000D+00  0.0000000000000D+00
443  4.4200000000000D+00  0.0000000000000D+00  0.0000000000000D+00