Nd    ONCVPSP-3.2.3.1  r_core=   2.10908   1.91712   1.91712   2.52232
60.0000     11.0000      170524    zatom,zion,pspd
8      11   3     4   600     0    pspcod,pspxc,lmax,lloc,mmax,r2well
5.99000000  0.25000000  0.00000000    rchrg fchrg qchrg
2     2     2     1     0    nproj
1     1           extension_switch
0                         6.6415844384433D+00  7.3386355293075D-01
1  0.0000000000000D+00 -7.2018280228292D-11  1.8380230670800D-10
2  1.0000000000000D-02  4.7029863948905D-02 -1.7102864518448D-02
3  2.0000000000000D-02  9.3971521223378D-02 -3.4076234015044D-02
4  3.0000000000000D-02  1.4073716374865D-01 -5.0791503066554D-02
5  4.0000000000000D-02  1.8723977804278D-01 -6.7121838988206D-02
6  5.0000000000000D-02  2.3339353601525D-01 -8.2943052102806D-02
7  6.0000000000000D-02  2.7911417801930D-01 -9.8134446820394D-02
8  7.0000000000000D-02  3.2431938566095D-01 -1.1257964734881D-01
9  8.0000000000000D-02  3.6892914193954D-01 -1.2616739203933D-01
10  9.0000000000000D-02  4.1286607638394D-01 -1.3879229059880D-01
11  1.0000000000000D-01  4.5605579295369D-01 -1.5035553866891D-01
12  1.1000000000000D-01  4.9842717859580D-01 -1.6076558458198D-01
13  1.2000000000000D-01  5.3991269048365D-01 -1.6993874344942D-01
14  1.3000000000000D-01  5.8044862011424D-01 -1.7779975412067D-01
15  1.4000000000000D-01  6.1997533260245D-01 -1.8428227496445D-01
16  1.5000000000000D-01  6.5843747968508D-01 -1.8932931486762D-01
17  1.6000000000000D-01  6.9578418513192D-01 -1.9289359631674D-01
18  1.7000000000000D-01  7.3196920145419D-01 -1.9493784791950D-01
19  1.8000000000000D-01  7.6695103700248D-01 -1.9543502423529D-01
20  1.9000000000000D-01  8.0069305275272D-01 -1.9436845131094D-01
21  2.0000000000000D-01  8.3316352829183D-01 -1.9173189685705D-01
22  2.1000000000000D-01  8.6433569672902D-01 -1.8752956454674D-01
23  2.2000000000000D-01  8.9418774847669D-01 -1.8177601246990D-01
24  2.3000000000000D-01  9.2270280406134D-01 -1.7449599632619D-01
25  2.4000000000000D-01  9.4986885634139D-01 -1.6572423848742D-01
26  2.5000000000000D-01  9.7567868272149D-01 -1.5550512459833D-01
27  2.6000000000000D-01  1.0001297281616D+00 -1.4389232991208D-01
28  2.7000000000000D-01  1.0232239599821D+00 -1.3094837806836D-01
29  2.8000000000000D-01  1.0449676956609D+00 -1.1674413551418D-01
30  2.9000000000000D-01  1.0653714050072D+00 -1.0135824523700D-01
31  3.0000000000000D-01  1.0844494882708D+00 -8.4876503923622D-02
32  3.1000000000000D-01  1.1022200319135D+00 -6.7391187071957D-02
33  3.2000000000000D-01  1.1187045439225D+00 -4.9000326965236D-02
34  3.3000000000000D-01  1.1339276706839D+00 -2.9806948765034D-02
35  3.4000000000000D-01  1.1479168975615D+00 -9.9182702889995D-03
36  3.5000000000000D-01  1.1607022354352D+00  1.0555128690600D-02
37  3.6000000000000D-01  1.1723158955493D+00  3.1500161563334D-02
38  3.7000000000000D-01  1.1827919550950D+00  5.2802108162376D-02
39  3.8000000000000D-01  1.1921660160160D+00  7.4345499821362D-02
40  3.9000000000000D-01  1.2004748595650D+00  9.6015009720855D-02
41  4.0000000000000D-01  1.2077560991661D+00  1.1769634198989D-01
42  4.1000000000000D-01  1.2140478341435D+00  1.3927711302557D-01
43  4.2000000000000D-01  1.2193883068663D+00  1.6064771853783D-01
44  4.3000000000000D-01  1.2238155658288D+00  1.8170217991686D-01
45  4.4000000000000D-01  1.2273671371401D+00  2.0233896365635D-01
46  4.5000000000000D-01  1.2300797068306D+00  2.2246176774686D-01
47  4.6000000000000D-01  1.2319888163026D+00  2.4198026917727D-01
48  4.7000000000000D-01  1.2331285731535D+00  2.6081082694854D-01
49  4.8000000000000D-01  1.2335313794874D+00  2.7887713530966D-01
50  4.9000000000000D-01  1.2332276797013D+00  2.9611082226993D-01
51  5.0000000000000D-01  1.2322457295914D+00  3.1245198882076D-01
52  5.1000000000000D-01  1.2306113884663D+00  3.2784968471249D-01
53  5.2000000000000D-01  1.2283479357916D+00  3.4226231707390D-01
54  5.3000000000000D-01  1.2254759137069D+00  3.5565798863187D-01
55  5.4000000000000D-01  1.2220129965730D+00  3.6801476278012D-01
56  5.5000000000000D-01  1.2179738885084D+00  3.7932085326090D-01
57  5.6000000000000D-01  1.2133702496745D+00  3.8957473675200D-01
58  5.7000000000000D-01  1.2082106518573D+00  3.9878518719517D-01
59  5.8000000000000D-01  1.2025005636860D+00  4.0697123125440D-01
60  5.9000000000000D-01  1.1962423656095D+00  4.1416202484973D-01
61  6.0000000000000D-01  1.1894353945407D+00  4.2039665127307D-01
62  6.1000000000000D-01  1.1820760178603D+00  4.2572384194883D-01
63  6.2000000000000D-01  1.1741577362599D+00  4.3020162145404D-01
64  6.3000000000000D-01  1.1656713146950D+00  4.3389687895539D-01
65  6.4000000000000D-01  1.1566049405109D+00  4.3688486874664D-01
66  6.5000000000000D-01  1.1469444076092D+00  4.3924864308354D-01
67  6.6000000000000D-01  1.1366733253286D+00  4.4107842100302D-01
68  6.7000000000000D-01  1.1257733505317D+00  4.4247089727865D-01
69  6.8000000000000D-01  1.1142244412184D+00  4.4352849610651D-01
70  6.9000000000000D-01  1.1020051298248D+00  4.4435857452312D-01
71  7.0000000000000D-01  1.0890928142166D+00  4.4507258093332D-01
72  7.1000000000000D-01  1.0754640642528D+00  4.4578517446757D-01
73  7.2000000000000D-01  1.0610949416735D+00  4.4661331119018D-01
74  7.3000000000000D-01  1.0459613309597D+00  4.4767530344307D-01
75  7.4000000000000D-01  1.0300392787237D+00  4.4908985882989D-01
76  7.5000000000000D-01  1.0133053391142D+00  4.5097510552313D-01
77  7.6000000000000D-01  9.9573692266588D-01  4.5344761070888D-01
78  7.7000000000000D-01  9.7731264598216D-01  4.5662139907129D-01
79  7.8000000000000D-01  9.5801267961984D-01  4.6060697825855D-01
80  7.9000000000000D-01  9.3781909154082D-01  4.6551037826633D-01
81  8.0000000000000D-01  9.1671618351056D-01  4.7143221162110D-01
82  8.1000000000000D-01  8.9469081785558D-01  4.7846676114595D-01
83  8.2000000000000D-01  8.7173273204254D-01  4.8670110194558D-01
84  8.3000000000000D-01  8.4783483860882D-01  4.9621426405624D-01
85  8.4000000000000D-01  8.2299350805953D-01  5.0707644197064D-01
86  8.5000000000000D-01  7.9720883244661D-01  5.1934825697036D-01
87  8.6000000000000D-01  7.7048486746278D-01  5.3308007787926D-01
88  8.7000000000000D-01  7.4282985101515D-01  5.4831140549355D-01
89  8.8000000000000D-01  7.1425639638969D-01  5.6507032554928D-01
90  8.9000000000000D-01  6.8478165827731D-01  5.8337303465957D-01
91  9.0000000000000D-01  6.5442747010474D-01  6.0322344319264D-01
92  9.1000000000000D-01  6.2322045129630D-01  6.2461285857318D-01
93  9.2000000000000D-01  5.9119208328645D-01  6.4751975197413D-01
94  9.3000000000000D-01  5.5837875330530D-01  6.7190961082875D-01
95  9.4000000000000D-01  5.2482176516911D-01  6.9773487903715D-01
96  9.5000000000000D-01  4.9056731652401D-01  7.2493498616897D-01
97  9.6000000000000D-01  4.5566644221226D-01  7.5343646638145D-01
98  9.7000000000000D-01  4.2017492365415D-01  7.8315316718155D-01
99  9.8000000000000D-01  3.8415316436877D-01  8.1398654755676D-01
100  9.9000000000000D-01  3.4766603197555D-01  8.4582606442360D-01
101  1.0000000000000D+00  3.1078266725446D-01  8.7854964572590D-01
102  1.0100000000000D+00  2.7357626106015D-01  9.1202424794503D-01
103  1.0200000000000D+00  2.3612380010683D-01  9.4610649520594D-01
104  1.0300000000000D+00  1.9850578285497D-01  9.8064339660503D-01
105  1.0400000000000D+00  1.6080590694091D-01  1.0154731378383D+00
106  1.0500000000000D+00  1.2311072978601D-01  1.0504259427012D+00
107  1.0600000000000D+00  8.5509304212895D-02  1.0853249995378D+00
108  1.0700000000000D+00  4.8092791081814D-02  1.1199874472355D+00
109  1.0800000000000D+00  1.0954051120185D-02  1.1542254149526D+00
110  1.0900000000000D+00 -2.5812781720073D-02  1.1878471093479D+00
111  1.1000000000000D+00 -6.2112742910201D-02  1.2206579427463D+00
112  1.1100000000000D+00 -9.7850493399725D-02  1.2524616953393D+00
113  1.1200000000000D+00 -1.3293078636879D-01  1.2830617042378D+00
114  1.1300000000000D+00 -1.6725894188060D-01  1.3122620719761D+00
115  1.1400000000000D+00 -2.0074132656020D-01  1.3398688868777D+00
116  1.1500000000000D+00 -2.3328583537017D-01  1.3656914475580D+00
117  1.1600000000000D+00 -2.6480237250719D-01  1.3895434837332D+00
118  1.1700000000000D+00 -2.9520332843435D-01  1.4112443654908D+00
119  1.1800000000000D+00 -3.2440405006125D-01  1.4306202931839D+00
120  1.1900000000000D+00 -3.5232330109228D-01  1.4475054601461D+00
121  1.2000000000000D+00 -3.7888370961154D-01  1.4617431805665D+00
122  1.2100000000000D+00 -4.0401220004677D-01  1.4731869750700D+00
123  1.2200000000000D+00 -4.2764040667768D-01  1.4817016066179D+00
124  1.2300000000000D+00 -4.4970506600255D-01  1.4871640597561D+00
125  1.2400000000000D+00 -4.7014838538839D-01  1.4894644565371D+00
126  1.2500000000000D+00 -4.8891838550771D-01  1.4885069026596D+00
127  1.2600000000000D+00 -5.0596921424682D-01  1.4842102578617D+00
128  1.2700000000000D+00 -5.2126142998163D-01  1.4765088251705D+00
129  1.2800000000000D+00 -5.3476225219435D-01  1.4653529538233D+00
130  1.2900000000000D+00 -5.4644577763094D-01  1.4507095512808D+00
131  1.3000000000000D+00 -5.5629316051772D-01  1.4325625006070D+00
132  1.3100000000000D+00 -5.6429275536696D-01  1.4109129795196D+00
133  1.3200000000000D+00 -5.7044022123915D-01  1.3857796783179D+00
134  1.3300000000000D+00 -5.7473858670602D-01  1.3571989148954D+00
135  1.3400000000000D+00 -5.7719827462836D-01  1.3252246446988D+00
136  1.3500000000000D+00 -5.7783708646441D-01  1.2899283650942D+00
137  1.3600000000000D+00 -5.7668014606382D-01  1.2513989142320D+00
138  1.3700000000000D+00 -5.7375980269415D-01  1.2097421639535D+00
139  1.3800000000000D+00 -5.6911549403670D-01  1.1650806089001D+00
140  1.3900000000000D+00 -5.6279356954495D-01  1.1175528530733D+00
141  1.4000000000000D+00 -5.5484707493473D-01  1.0673129960920D+00
142  1.4100000000000D+00 -5.4533549927395D-01  1.0145299232271D+00
143  1.4200000000000D+00 -5.3432448550207D-01  9.5938650161839D-01
144  1.4300000000000D+00 -5.2188550640995D-01  9.0207868823345D-01
145  1.4400000000000D+00 -5.0809550767801D-01  8.4281455398605D-01
146  1.4500000000000D+00 -4.9303651986679D-01  7.8181322921687D-01
147  1.4600000000000D+00 -4.7679524200020D-01  7.1930377767541D-01
148  1.4700000000000D+00 -4.5946259853811D-01  6.5552400395408D-01
149  1.4800000000000D+00 -4.4113327292887D-01  5.9071920294315D-01
150  1.4900000000000D+00 -4.2190522001722D-01  5.2514085749830D-01
151  1.5000000000000D+00 -4.0187916041755D-01  4.5904529268117D-01
152  1.5100000000000D+00 -3.8115805979851D-01  3.9269229448595D-01
153  1.5200000000000D+00 -3.5984659606558D-01  3.2634370110318D-01
154  1.5300000000000D+00 -3.3805061778783D-01  2.6026197563085D-01
155  1.5400000000000D+00 -3.1587659689728D-01  1.9470876840858D-01
156  1.5500000000000D+00 -2.9343107906274D-01  1.2994347798766D-01
157  1.5600000000000D+00 -2.7082013493373D-01  6.6221819332371D-02
158  1.5700000000000D+00 -2.4814881552111D-01  3.7944079010726D-03
159  1.5800000000000D+00 -2.2552061493600D-01 -5.7094631780447D-02
160  1.5900000000000D+00 -2.0303694369478D-01 -1.1620902455186D-01
161  1.6000000000000D+00 -1.8079661551773D-01 -1.7332166228196D-01
162  1.6100000000000D+00 -1.5889535092334D-01 -2.2821587200130D-01
163  1.6200000000000D+00 -1.3742529991931D-01 -2.8068662844450D-01
164  1.6300000000000D+00 -1.1647458732558D-01 -3.3054170161321D-01
165  1.6400000000000D+00 -9.6126882113674D-02 -3.7760273578134D-01
166  1.6500000000000D+00 -7.6460994622744D-02 -4.2170624968738D-01
167  1.6600000000000D+00 -5.7550501902325D-02 -4.6270455738421D-01
168  1.6700000000000D+00 -3.9463405390288D-02 -5.0046659857085D-01
169  1.6800000000000D+00 -2.2261819920815D-02 -5.3487868123584D-01
170  1.6900000000000D+00 -6.0016985563614D-03 -5.6584512468881D-01
171  1.7000000000000D+00  9.2674090215368D-03 -5.9328880917156D-01
172  1.7100000000000D+00  2.3502559945474D-02 -6.1715161981459D-01
173  1.7200000000000D+00  3.6667586816063D-02 -6.3739479414028D-01
174  1.7300000000000D+00  4.8733227110405D-02 -6.5399916130180D-01
175  1.7400000000000D+00  5.9677217598042D-02 -6.6696528452833D-01
176  1.7500000000000D+00  6.9484349842186D-02 -6.7631349643602D-01
177  1.7600000000000D+00  7.8146491471102D-02 -6.8208383981047D-01
178  1.7700000000000D+00  8.5662570341894D-02 -6.8433590632095D-01
179  1.7800000000000D+00  9.2038526164093D-02 -6.8314858544451D-01
180  1.7900000000000D+00  9.7287228314164D-02 -6.7861972035630D-01
181  1.8000000000000D+00  1.0142836368295D-01 -6.7086568112383D-01
182  1.8100000000000D+00  1.0448829542951D-01 -6.6002085766536D-01
183  1.8200000000000D+00  1.0649989521708D-01 -6.4623707944093D-01
184  1.8300000000000D+00  1.0750235229368D-01 -6.2968297094460D-01
185  1.8400000000000D+00  1.0754096043894D-01 -6.1054324584910D-01
186  1.8500000000000D+00  1.0666688900835D-01 -5.8901795654111D-01
187  1.8600000000000D+00  1.0493694656311D-01 -5.6532172339512D-01
188  1.8700000000000D+00  1.0241327474064D-01 -5.3968276535841D-01
189  1.8800000000000D+00  9.9163250891043D-02 -5.1234251960013D-01
190  1.8900000000000D+00  9.5258828536775D-02 -4.8355368230293D-01
191  1.9000000000000D+00  9.0776538685214D-02 -4.5358008434620D-01
192  1.9100000000000D+00  8.5797842139777D-02 -4.2269760341702D-01
193  1.9200000000000D+00  8.0408128623258D-02 -3.9119121365470D-01
194  1.9300000000000D+00  7.4694921752005D-02 -3.5934975221192D-01
195  1.9400000000000D+00  6.8746451856861D-02 -3.2746177329768D-01
196  1.9500000000000D+00  6.2650191556392D-02 -2.9581149139899D-01
197  1.9600000000000D+00  5.6490233969370D-02 -2.6467137859575D-01
198  1.9700000000000D+00  5.0347599375625D-02 -2.3430312826501D-01
199  1.9800000000000D+00  4.4299830343509D-02 -2.0495664370608D-01
200  1.9900000000000D+00  3.8420350835512D-02 -1.7686830691390D-01
201  2.0000000000000D+00  3.2777865730376D-02 -1.5025935753930D-01
202  2.0100000000000D+00  2.7435968717686D-02 -1.2533487534477D-01
203  2.0200000000000D+00  2.2452659777535D-02 -1.0228249211004D-01
204  2.0300000000000D+00  1.7879947860970D-02 -8.1271343657891D-02
205  2.0400000000000D+00  1.3765703074967D-02 -6.2461216430070D-02
206  2.0500000000000D+00  1.0146072965568D-02 -4.5968551540484D-02
207  2.0600000000000D+00  7.0465797768131D-03 -3.1872202450862D-02
208  2.0700000000000D+00  4.4825238557392D-03 -2.0217396023443D-02
209  2.0800000000000D+00  2.5189383248910D-03 -1.1279814511852D-02
210  2.0900000000000D+00  1.1908071866799D-03 -5.2077290655514D-03
211  2.1000000000000D+00  4.2696564218285D-04 -1.7023747278332D-03
212  2.1100000000000D+00  7.5040960544759D-05 -1.1290736254467D-04
213  2.1200000000000D+00 -3.2904738737311D-05  2.9117028332657D-04
214  2.1300000000000D+00 -1.8311862284973D-05  1.2139995251137D-04
215  2.1400000000000D+00  1.2574509620359D-05 -7.7531322468877D-05
216  2.1500000000000D+00  1.6206545313236D-05 -9.6002625696439D-05
217  2.1600000000000D+00  5.6213503526955D-09 -3.2582196596035D-08
218  2.1700000000000D+00 -2.6958131090368D-06  1.7847931428236D-05
219  2.1800000000000D+00 -1.8113516136070D-06  1.1693472641625D-05
220  2.1900000000000D+00 -1.4311728172676D-07  3.0035955414876D-07
221  2.2000000000000D+00 -2.6542901016481D-07  5.5705459319346D-07
222  2.2100000000000D+00 -6.4988103277392D-08  1.3639022129165D-07
223  2.2200000000000D+00  0.0000000000000D+00  0.0000000000000D+00
224  2.2300000000000D+00  0.0000000000000D+00  0.0000000000000D+00
225  2.2400000000000D+00  0.0000000000000D+00  0.0000000000000D+00
226  2.2500000000000D+00  0.0000000000000D+00  0.0000000000000D+00
227  2.2600000000000D+00  0.0000000000000D+00  0.0000000000000D+00
228  2.2700000000000D+00  0.0000000000000D+00  0.0000000000000D+00
229  2.2800000000000D+00  0.0000000000000D+00  0.0000000000000D+00
230  2.2900000000000D+00  0.0000000000000D+00  0.0000000000000D+00
231  2.3000000000000D+00  0.0000000000000D+00  0.0000000000000D+00
232  2.3100000000000D+00  0.0000000000000D+00  0.0000000000000D+00
233  2.3200000000000D+00  0.0000000000000D+00  0.0000000000000D+00
234  2.3300000000000D+00  0.0000000000000D+00  0.0000000000000D+00
235  2.3400000000000D+00  0.0000000000000D+00  0.0000000000000D+00
236  2.3500000000000D+00  0.0000000000000D+00  0.0000000000000D+00
237  2.3600000000000D+00  0.0000000000000D+00  0.0000000000000D+00
238  2.3700000000000D+00  0.0000000000000D+00  0.0000000000000D+00
239  2.3800000000000D+00  0.0000000000000D+00  0.0000000000000D+00
240  2.3900000000000D+00  0.0000000000000D+00  0.0000000000000D+00
241  2.4000000000000D+00  0.0000000000000D+00  0.0000000000000D+00
242  2.4100000000000D+00  0.0000000000000D+00  0.0000000000000D+00
243  2.4200000000000D+00  0.0000000000000D+00  0.0000000000000D+00
244  2.4300000000000D+00  0.0000000000000D+00  0.0000000000000D+00
245  2.4400000000000D+00  0.0000000000000D+00  0.0000000000000D+00
246  2.4500000000000D+00  0.0000000000000D+00  0.0000000000000D+00
247  2.4600000000000D+00  0.0000000000000D+00  0.0000000000000D+00
248  2.4700000000000D+00  0.0000000000000D+00  0.0000000000000D+00
249  2.4800000000000D+00  0.0000000000000D+00  0.0000000000000D+00
250  2.4900000000000D+00  0.0000000000000D+00  0.0000000000000D+00
251  2.5000000000000D+00  0.0000000000000D+00  0.0000000000000D+00
252  2.5100000000000D+00  0.0000000000000D+00  0.0000000000000D+00
253  2.5200000000000D+00  0.0000000000000D+00  0.0000000000000D+00
254  2.5300000000000D+00  0.0000000000000D+00  0.0000000000000D+00
255  2.5400000000000D+00  0.0000000000000D+00  0.0000000000000D+00
256  2.5500000000000D+00  0.0000000000000D+00  0.0000000000000D+00
257  2.5600000000000D+00  0.0000000000000D+00  0.0000000000000D+00
258  2.5700000000000D+00  0.0000000000000D+00  0.0000000000000D+00
259  2.5800000000000D+00  0.0000000000000D+00  0.0000000000000D+00
260  2.5900000000000D+00  0.0000000000000D+00  0.0000000000000D+00
261  2.6000000000000D+00  0.0000000000000D+00  0.0000000000000D+00
262  2.6100000000000D+00  0.0000000000000D+00  0.0000000000000D+00
263  2.6200000000000D+00  0.0000000000000D+00  0.0000000000000D+00
264  2.6300000000000D+00  0.0000000000000D+00  0.0000000000000D+00
265  2.6400000000000D+00  0.0000000000000D+00  0.0000000000000D+00
266  2.6500000000000D+00  0.0000000000000D+00  0.0000000000000D+00
267  2.6600000000000D+00  0.0000000000000D+00  0.0000000000000D+00
268  2.6700000000000D+00  0.0000000000000D+00  0.0000000000000D+00
269  2.6800000000000D+00  0.0000000000000D+00  0.0000000000000D+00
270  2.6900000000000D+00  0.0000000000000D+00  0.0000000000000D+00
271  2.7000000000000D+00  0.0000000000000D+00  0.0000000000000D+00
272  2.7100000000000D+00  0.0000000000000D+00  0.0000000000000D+00
273  2.7200000000000D+00  0.0000000000000D+00  0.0000000000000D+00
274  2.7300000000000D+00  0.0000000000000D+00  0.0000000000000D+00
275  2.7400000000000D+00  0.0000000000000D+00  0.0000000000000D+00
276  2.7500000000000D+00  0.0000000000000D+00  0.0000000000000D+00
277  2.7600000000000D+00  0.0000000000000D+00  0.0000000000000D+00
278  2.7700000000000D+00  0.0000000000000D+00  0.0000000000000D+00
279  2.7800000000000D+00  0.0000000000000D+00  0.0000000000000D+00
280  2.7900000000000D+00  0.0000000000000D+00  0.0000000000000D+00
281  2.8000000000000D+00  0.0000000000000D+00  0.0000000000000D+00
282  2.8100000000000D+00  0.0000000000000D+00  0.0000000000000D+00
283  2.8200000000000D+00  0.0000000000000D+00  0.0000000000000D+00
284  2.8300000000000D+00  0.0000000000000D+00  0.0000000000000D+00
285  2.8400000000000D+00  0.0000000000000D+00  0.0000000000000D+00
286  2.8500000000000D+00  0.0000000000000D+00  0.0000000000000D+00
287  2.8600000000000D+00  0.0000000000000D+00  0.0000000000000D+00
288  2.8700000000000D+00  0.0000000000000D+00  0.0000000000000D+00
289  2.8800000000000D+00  0.0000000000000D+00  0.0000000000000D+00
290  2.8900000000000D+00  0.0000000000000D+00  0.0000000000000D+00
291  2.9000000000000D+00  0.0000000000000D+00  0.0000000000000D+00
292  2.9100000000000D+00  0.0000000000000D+00  0.0000000000000D+00
293  2.9200000000000D+00  0.0000000000000D+00  0.0000000000000D+00
294  2.9300000000000D+00  0.0000000000000D+00  0.0000000000000D+00
295  2.9400000000000D+00  0.0000000000000D+00  0.0000000000000D+00
296  2.9500000000000D+00  0.0000000000000D+00  0.0000000000000D+00
297  2.9600000000000D+00  0.0000000000000D+00  0.0000000000000D+00
298  2.9700000000000D+00  0.0000000000000D+00  0.0000000000000D+00
299  2.9800000000000D+00  0.0000000000000D+00  0.0000000000000D+00
300  2.9900000000000D+00  0.0000000000000D+00  0.0000000000000D+00
301  3.0000000000000D+00  0.0000000000000D+00  0.0000000000000D+00
302  3.0100000000000D+00  0.0000000000000D+00  0.0000000000000D+00
303  3.0200000000000D+00  0.0000000000000D+00  0.0000000000000D+00
304  3.0300000000000D+00  0.0000000000000D+00  0.0000000000000D+00
305  3.0400000000000D+00  0.0000000000000D+00  0.0000000000000D+00
306  3.0500000000000D+00  0.0000000000000D+00  0.0000000000000D+00
307  3.0600000000000D+00  0.0000000000000D+00  0.0000000000000D+00
308  3.0700000000000D+00  0.0000000000000D+00  0.0000000000000D+00
309  3.0800000000000D+00  0.0000000000000D+00  0.0000000000000D+00
310  3.0900000000000D+00  0.0000000000000D+00  0.0000000000000D+00
311  3.1000000000000D+00  0.0000000000000D+00  0.0000000000000D+00
312  3.1100000000000D+00  0.0000000000000D+00  0.0000000000000D+00
313  3.1200000000000D+00  0.0000000000000D+00  0.0000000000000D+00
314  3.1300000000000D+00  0.0000000000000D+00  0.0000000000000D+00
315  3.1400000000000D+00  0.0000000000000D+00  0.0000000000000D+00
316  3.1500000000000D+00  0.0000000000000D+00  0.0000000000000D+00
317  3.1600000000000D+00  0.0000000000000D+00  0.0000000000000D+00
318  3.1700000000000D+00  0.0000000000000D+00  0.0000000000000D+00
319  3.1800000000000D+00  0.0000000000000D+00  0.0000000000000D+00
320  3.1900000000000D+00  0.0000000000000D+00  0.0000000000000D+00
321  3.2000000000000D+00  0.0000000000000D+00  0.0000000000000D+00
322  3.2100000000000D+00  0.0000000000000D+00  0.0000000000000D+00
323  3.2200000000000D+00  0.0000000000000D+00  0.0000000000000D+00
324  3.2300000000000D+00  0.0000000000000D+00  0.0000000000000D+00
325  3.2400000000000D+00  0.0000000000000D+00  0.0000000000000D+00
326  3.2500000000000D+00  0.0000000000000D+00  0.0000000000000D+00
327  3.2600000000000D+00  0.0000000000000D+00  0.0000000000000D+00
328  3.2700000000000D+00  0.0000000000000D+00  0.0000000000000D+00
329  3.2800000000000D+00  0.0000000000000D+00  0.0000000000000D+00
330  3.2900000000000D+00  0.0000000000000D+00  0.0000000000000D+00
331  3.3000000000000D+00  0.0000000000000D+00  0.0000000000000D+00
332  3.3100000000000D+00  0.0000000000000D+00  0.0000000000000D+00
333  3.3200000000000D+00  0.0000000000000D+00  0.0000000000000D+00
334  3.3300000000000D+00  0.0000000000000D+00  0.0000000000000D+00
335  3.3400000000000D+00  0.0000000000000D+00  0.0000000000000D+00
336  3.3500000000000D+00  0.0000000000000D+00  0.0000000000000D+00
337  3.3600000000000D+00  0.0000000000000D+00  0.0000000000000D+00
338  3.3700000000000D+00  0.0000000000000D+00  0.0000000000000D+00
339  3.3800000000000D+00  0.0000000000000D+00  0.0000000000000D+00
340  3.3900000000000D+00  0.0000000000000D+00  0.0000000000000D+00
341  3.4000000000000D+00  0.0000000000000D+00  0.0000000000000D+00
342  3.4100000000000D+00  0.0000000000000D+00  0.0000000000000D+00
343  3.4200000000000D+00  0.0000000000000D+00  0.0000000000000D+00
344  3.4300000000000D+00  0.0000000000000D+00  0.0000000000000D+00
345  3.4400000000000D+00  0.0000000000000D+00  0.0000000000000D+00
346  3.4500000000000D+00  0.0000000000000D+00  0.0000000000000D+00
347  3.4600000000000D+00  0.0000000000000D+00  0.0000000000000D+00
348  3.4700000000000D+00  0.0000000000000D+00  0.0000000000000D+00
349  3.4800000000000D+00  0.0000000000000D+00  0.0000000000000D+00
350  3.4900000000000D+00  0.0000000000000D+00  0.0000000000000D+00
351  3.5000000000000D+00  0.0000000000000D+00  0.0000000000000D+00
352  3.5100000000000D+00  0.0000000000000D+00  0.0000000000000D+00
353  3.5200000000000D+00  0.0000000000000D+00  0.0000000000000D+00
354  3.5300000000000D+00  0.0000000000000D+00  0.0000000000000D+00
355  3.5400000000000D+00  0.0000000000000D+00  0.0000000000000D+00
356  3.5500000000000D+00  0.0000000000000D+00  0.0000000000000D+00
357  3.5600000000000D+00  0.0000000000000D+00  0.0000000000000D+00
358  3.5700000000000D+00  0.0000000000000D+00  0.0000000000000D+00
359  3.5800000000000D+00  0.0000000000000D+00  0.0000000000000D+00
360  3.5900000000000D+00  0.0000000000000D+00  0.0000000000000D+00
361  3.6000000000000D+00  0.0000000000000D+00  0.0000000000000D+00
362  3.6100000000000D+00  0.0000000000000D+00  0.0000000000000D+00
363  3.6200000000000D+00  0.0000000000000D+00  0.0000000000000D+00
364  3.6300000000000D+00  0.0000000000000D+00  0.0000000000000D+00
365  3.6400000000000D+00  0.0000000000000D+00  0.0000000000000D+00
366  3.6500000000000D+00  0.0000000000000D+00  0.0000000000000D+00
367  3.6600000000000D+00  0.0000000000000D+00  0.0000000000000D+00
368  3.6700000000000D+00  0.0000000000000D+00  0.0000000000000D+00
369  3.6800000000000D+00  0.0000000000000D+00  0.0000000000000D+00
370  3.6900000000000D+00  0.0000000000000D+00  0.0000000000000D+00
371  3.7000000000000D+00  0.0000000000000D+00  0.0000000000000D+00
372  3.7100000000000D+00  0.0000000000000D+00  0.0000000000000D+00
373  3.7200000000000D+00  0.0000000000000D+00  0.0000000000000D+00
374  3.7300000000000D+00  0.0000000000000D+00  0.0000000000000D+00
375  3.7400000000000D+00  0.0000000000000D+00  0.0000000000000D+00
376  3.7500000000000D+00  0.0000000000000D+00  0.0000000000000D+00
377  3.7600000000000D+00  0.0000000000000D+00  0.0000000000000D+00
378  3.7700000000000D+00  0.0000000000000D+00  0.0000000000000D+00
379  3.7800000000000D+00  0.0000000000000D+00  0.0000000000000D+00
380  3.7900000000000D+00  0.0000000000000D+00  0.0000000000000D+00
381  3.8000000000000D+00  0.0000000000000D+00  0.0000000000000D+00
382  3.8100000000000D+00  0.0000000000000D+00  0.0000000000000D+00
383  3.8200000000000D+00  0.0000000000000D+00  0.0000000000000D+00
384  3.8300000000000D+00  0.0000000000000D+00  0.0000000000000D+00
385  3.8400000000000D+00  0.0000000000000D+00  0.0000000000000D+00
386  3.8500000000000D+00  0.0000000000000D+00  0.0000000000000D+00
387  3.8600000000000D+00  0.0000000000000D+00  0.0000000000000D+00
388  3.8700000000000D+00  0.0000000000000D+00  0.0000000000000D+00
389  3.8800000000000D+00  0.0000000000000D+00  0.0000000000000D+00
390  3.8900000000000D+00  0.0000000000000D+00  0.0000000000000D+00
391  3.9000000000000D+00  0.0000000000000D+00  0.0000000000000D+00
392  3.9100000000000D+00  0.0000000000000D+00  0.0000000000000D+00
393  3.9200000000000D+00  0.0000000000000D+00  0.0000000000000D+00
394  3.9300000000000D+00  0.0000000000000D+00  0.0000000000000D+00
395  3.9400000000000D+00  0.0000000000000D+00  0.0000000000000D+00
396  3.9500000000000D+00  0.0000000000000D+00  0.0000000000000D+00
397  3.9600000000000D+00  0.0000000000000D+00  0.0000000000000D+00
398  3.9700000000000D+00  0.0000000000000D+00  0.0000000000000D+00
399  3.9800000000000D+00  0.0000000000000D+00  0.0000000000000D+00
400  3.9900000000000D+00  0.0000000000000D+00  0.0000000000000D+00
401  4.0000000000000D+00  0.0000000000000D+00  0.0000000000000D+00
402  4.0100000000000D+00  0.0000000000000D+00  0.0000000000000D+00
403  4.0200000000000D+00  0.0000000000000D+00  0.0000000000000D+00
404  4.0300000000000D+00  0.0000000000000D+00  0.0000000000000D+00
405  4.0400000000000D+00  0.0000000000000D+00  0.0000000000000D+00
406  4.0500000000000D+00  0.0000000000000D+00  0.0000000000000D+00
407  4.0600000000000D+00  0.0000000000000D+00  0.0000000000000D+00
408  4.0700000000000D+00  0.0000000000000D+00  0.0000000000000D+00
409  4.0800000000000D+00  0.0000000000000D+00  0.0000000000000D+00
410  4.0900000000000D+00  0.0000000000000D+00  0.0000000000000D+00
411  4.1000000000000D+00  0.0000000000000D+00  0.0000000000000D+00
412  4.1100000000000D+00  0.0000000000000D+00  0.0000000000000D+00
413  4.1200000000000D+00  0.0000000000000D+00  0.0000000000000D+00
414  4.1300000000000D+00  0.0000000000000D+00  0.0000000000000D+00
415  4.1400000000000D+00  0.0000000000000D+00  0.0000000000000D+00
416  4.1500000000000D+00  0.0000000000000D+00  0.0000000000000D+00
417  4.1600000000000D+00  0.0000000000000D+00  0.0000000000000D+00
418  4.1700000000000D+00  0.0000000000000D+00  0.0000000000000D+00
419  4.1800000000000D+00  0.0000000000000D+00  0.0000000000000D+00
420  4.1900000000000D+00  0.0000000000000D+00  0.0000000000000D+00
421  4.2000000000000D+00  0.0000000000000D+00  0.0000000000000D+00
422  4.2100000000000D+00  0.0000000000000D+00  0.0000000000000D+00
423  4.2200000000000D+00  0.0000000000000D+00  0.0000000000000D+00
424  4.2300000000000D+00  0.0000000000000D+00  0.0000000000000D+00
425  4.2400000000000D+00  0.0000000000000D+00  0.0000000000000D+00
426  4.2500000000000D+00  0.0000000000000D+00  0.0000000000000D+00
427  4.2600000000000D+00  0.0000000000000D+00  0.0000000000000D+00
428  4.2700000000000D+00  0.0000000000000D+00  0.0000000000000D+00
429  4.2800000000000D+00  0.0000000000000D+00  0.0000000000000D+00
430  4.2900000000000D+00  0.0000000000000D+00  0.0000000000000D+00
431  4.3000000000000D+00  0.0000000000000D+00  0.0000000000000D+00
432  4.3100000000000D+00  0.0000000000000D+00  0.0000000000000D+00
433  4.3200000000000D+00  0.0000000000000D+00  0.0000000000000D+00
434  4.3300000000000D+00  0.0000000000000D+00  0.0000000000000D+00
435  4.3400000000000D+00  0.0000000000000D+00  0.0000000000000D+00
436  4.3500000000000D+00  0.0000000000000D+00  0.0000000000000D+00
437  4.3600000000000D+00  0.0000000000000D+00  0.0000000000000D+00
438  4.3700000000000D+00  0.0000000000000D+00  0.0000000000000D+00
439  4.3800000000000D+00  0.0000000000000D+00  0.0000000000000D+00
440  4.3900000000000D+00  0.0000000000000D+00  0.0000000000000D+00
441  4.4000000000000D+00  0.0000000000000D+00  0.0000000000000D+00
442  4.4100000000000D+00  0.0000000000000D+00  0.0000000000000D+00
443  4.4200000000000D+00  0.0000000000000D+00  0.0000000000000D+00