K     ONCVPSP  r_core=  1.36  1.46  1.61
19.0000      9.0000      160520    zatom,zion,pspd
8      11   2     4   400     0    pspcod,pspxc,lmax,lloc,mmax,r2well
3.99000000  5.00000000  0.00000000    rchrg fchrg qchrg
2     3     2     0    nproj
3                 extension_switch
4     3     0    nprojso
0                         7.9044482482721D-01  1.0816335546243D+01
1  0.0000000000000D+00  9.7553387590210D-10 -5.1672277567860D-11
2  1.0000000000000D-02 -3.2918414044795D-02  5.8243415632746D-02
3  2.0000000000000D-02 -6.5694600749430D-02  1.1640817340473D-01
4  3.0000000000000D-02 -9.8187322729202D-02  1.7441568337161D-01
5  4.0000000000000D-02 -1.3025730766273D-01  2.3218749120211D-01
6  5.0000000000000D-02 -1.6176819395878D-01  2.8964534544861D-01
7  6.0000000000000D-02 -1.9258743289239D-01  3.4671126421288D-01
8  7.0000000000000D-02 -2.2258713386664D-01  4.0330760106756D-01
9  8.0000000000000D-02 -2.5164484043158D-01  4.5935711014599D-01
10  9.0000000000000D-02 -2.7964422588142D-01  5.1478301037506D-01
11  1.0000000000000D-01 -3.0647569863455D-01  5.6950904889723D-01
12  1.1000000000000D-01 -3.3203690915709D-01  6.2345956380643D-01
13  1.2000000000000D-01 -3.5623315189293D-01  6.7655954640709D-01
14  1.3000000000000D-01 -3.7897765748392D-01  7.2873470329253D-01
15  1.4000000000000D-01 -4.0019177247419D-01  7.7991151862803D-01
16  1.5000000000000D-01 -4.1980502565885D-01  8.3001731711098D-01
17  1.6000000000000D-01 -4.3775508222900D-01  8.7898032816415D-01
18  1.7000000000000D-01 -4.5398758884769D-01  9.2672975199567D-01
19  1.8000000000000D-01 -4.6845591473129D-01  9.7319582822861D-01
20  1.9000000000000D-01 -4.8112079567712D-01  1.0183099078611D+00
21  2.0000000000000D-01 -4.9194988973543D-01  1.0620045293633D+00
22  2.1000000000000D-01 -5.0091725484580D-01  1.1042134997487D+00
23  2.2000000000000D-01 -5.0800276021192D-01  1.1448719814692D+00
24  2.3000000000000D-01 -5.1319144445211D-01  1.1839165859811D+00
25  2.4000000000000D-01 -5.1647283461007D-01  1.2212854748029D+00
26  2.5000000000000D-01 -5.1784024092191D-01  1.2569184688419D+00
27  2.6000000000000D-01 -5.1729004279663D-01  1.2907571667006D+00
28  2.7000000000000D-01 -5.1482098176238D-01  1.3227450725876D+00
29  2.8000000000000D-01 -5.1043347715464D-01  1.3528277343456D+00
30  2.9000000000000D-01 -5.0412898006970D-01  1.3809528919850D+00
31  3.0000000000000D-01 -4.9590938057712D-01  1.4070706369573D+00
32  3.1000000000000D-01 -4.8577648238448D-01  1.4311335822379D+00
33  3.2000000000000D-01 -4.7373155808611D-01  1.4530970431020D+00
34  3.3000000000000D-01 -4.5977499681617D-01  1.4729192282770D+00
35  3.4000000000000D-01 -4.4390605458680D-01  1.4905614409464D+00
36  3.5000000000000D-01 -4.2612271584303D-01  1.5059882888520D+00
37  3.6000000000000D-01 -4.0642167283482D-01  1.5191679025214D+00
38  3.7000000000000D-01 -3.8479842732230D-01  1.5300721604080D+00
39  3.8000000000000D-01 -3.6124751692321D-01  1.5386769195052D+00
40  3.9000000000000D-01 -3.3576286611825D-01  1.5449622497653D+00
41  4.0000000000000D-01 -3.0833825958499D-01  1.5489126704346D+00
42  4.1000000000000D-01 -2.7896793317323D-01  1.5505173862054D+00
43  4.2000000000000D-01 -2.4764727550098D-01  1.5497705208939D+00
44  4.3000000000000D-01 -2.1437363088258D-01  1.5466713461750D+00
45  4.4000000000000D-01 -1.7914719213290D-01  1.5412245027524D+00
46  4.5000000000000D-01 -1.4197196976571D-01  1.5334402112161D+00
47  4.6000000000000D-01 -1.0285682225159D-01  1.5233344697372D+00
48  4.7000000000000D-01 -6.1816530360349D-02  1.5109292356874D+00
49  4.8000000000000D-01 -1.8872897209017D-02  1.4962525882313D+00
50  4.9000000000000D-01  2.5944145498236D-02  1.4793388689495D+00
51  5.0000000000000D-01  7.2595445395869D-02  1.4602287975840D+00
52  5.1000000000000D-01  1.2103157244043D-01  1.4389695600832D+00
53  5.2000000000000D-01  1.7119181805156D-01  1.4156148662390D+00
54  5.3000000000000D-01  2.2300327138471D-01  1.3902249743683D+00
55  5.4000000000000D-01  2.7637999324284D-01  1.3628666806908D+00
56  5.5000000000000D-01  3.3122230732772D-01  1.3336132712873D+00
57  5.6000000000000D-01  3.8741622739439D-01  1.3025444347995D+00
58  5.7000000000000D-01  4.4483303740699D-01  1.2697461343345D+00
59  5.8000000000000D-01  5.0332904003189D-01  1.2353104373795D+00
60  5.9000000000000D-01  5.6274548674587D-01  1.1993353028952D+00
61  6.0000000000000D-01  6.2290870053624D-01  1.1619243251505D+00
62  6.1000000000000D-01  6.8363039962486D-01  1.1231864342692D+00
63  6.2000000000000D-01  7.4470822792665D-01  1.0832355538905D+00
64  6.3000000000000D-01  8.0592649507071D-01  1.0421902167804D+00
65  6.4000000000000D-01  8.6705712581009D-01  1.0001731396770D+00
66  6.5000000000000D-01  9.2786081559996D-01  9.5731075909607D-01
67  6.6000000000000D-01  9.8808838602236D-01  9.1373273026408D-01
68  6.7000000000000D-01  1.0474823306793D+00  8.6957139177548D-01
69  6.8000000000000D-01  1.1057785391899D+00  8.2496119898189D-01
70  6.9000000000000D-01  1.1627081840406D+00  7.8003812951551D-01
71  7.0000000000000D-01  1.2179997523264D+00  7.3493906471304D-01
72  7.1000000000000D-01  1.2713812019084D+00  6.8980115104078D-01
73  7.2000000000000D-01  1.3225822192459D+00  6.4476114591923D-01
74  7.3000000000000D-01  1.3713365541705D+00  5.9995475260368D-01
75  7.4000000000000D-01  1.4173844051965D+00  5.5551594899164D-01
76  7.5000000000000D-01  1.4604748276273D+00  5.1157631539430D-01
77  7.6000000000000D-01  1.5003681357534D+00  4.6826436642777D-01
78  7.7000000000000D-01  1.5368382698452D+00  4.2570489224536D-01
79  7.8000000000000D-01  1.5696750984595D+00  3.8401831434670D-01
80  7.9000000000000D-01  1.5986866267786D+00  3.4332006115972D-01
81  8.0000000000000D-01  1.6237010823148D+00  3.0371996849955D-01
82  8.1000000000000D-01  1.6445688503111D+00  2.6532170986403D-01
83  8.2000000000000D-01  1.6611642325479D+00  2.2822226133110D-01
84  8.3000000000000D-01  1.6733870050054D+00  1.9251140558062D-01
85  8.4000000000000D-01  1.6811637519101D+00  1.5827127927570D-01
86  8.5000000000000D-01  1.6844489560703D+00  1.2557596770889D-01
87  8.6000000000000D-01  1.6832258280595D+00  9.4491150252459D-02
88  8.7000000000000D-01  1.6775068596863D+00  6.5073799752397D-02
89  8.8000000000000D-01  1.6673340902565D+00  3.7371938579097D-02
90  8.9000000000000D-01  1.6527790773382D+00  1.1424453598609D-02
91  9.0000000000000D-01  1.6339425670414D+00 -1.2739028136841D-02
92  9.1000000000000D-01  1.6109538621551D+00 -3.5098201655761D-02
93  9.2000000000000D-01  1.5839698898128D+00 -5.5642083448384D-02
94  9.3000000000000D-01  1.5531739736152D+00 -7.4368947595718D-02
95  9.4000000000000D-01  1.5187743182920D+00 -9.1286198751821D-02
96  9.5000000000000D-01  1.4810022179573D+00 -1.0641018253838D-01
97  9.6000000000000D-01  1.4401100017859D+00 -1.1976593434676D-01
98  9.7000000000000D-01  1.3963687334775D+00 -1.3138686795739D-01
99  9.8000000000000D-01  1.3500656830863D+00 -1.4131440576424D-01
100  9.9000000000000D-01  1.3015015917026D+00 -1.4959755274083D-01
101  1.0000000000000D+00  1.2509877510268D+00 -1.5629241659304D-01
102  1.0100000000000D+00  1.1988429210457D+00 -1.6146167681143D-01
103  1.0200000000000D+00  1.1453901097934D+00 -1.6517400556072D-01
104  1.0300000000000D+00  1.0909532395534D+00 -1.6750344351548D-01
105  1.0400000000000D+00  1.0358537238378D+00 -1.6852873388969D-01
106  1.0500000000000D+00  9.8040697901630D-01 -1.6833261798377D-01
107  1.0600000000000D+00  9.2491889364869D-01 -1.6700109560917D-01
108  1.0700000000000D+00  8.6968227732579D-01 -1.6462265373648D-01
109  1.0800000000000D+00  8.1497330340035D-01 -1.6128746612756D-01
110  1.0900000000000D+00  7.6104797577255D-01 -1.5708656790973D-01
111  1.1000000000000D+00  7.0813873267828D-01 -1.5211101887778D-01
112  1.1100000000000D+00  6.5645080441693D-01 -1.4645101674682D-01
113  1.1200000000000D+00  6.0615869473573D-01 -1.4019500576061D-01
114  1.1300000000000D+00  5.5741132842923D-01 -1.3342954474707D-01
115  1.1400000000000D+00  5.1033926817477D-01 -1.2623952008683D-01
116  1.1500000000000D+00  4.6505917290680D-01 -1.1870822455176D-01
117  1.1600000000000D+00  4.2167241412201D-01 -1.1091696622273D-01
118  1.1700000000000D+00  3.8026554551770D-01 -1.0294483000029D-01
119  1.1800000000000D+00  3.4091052521861D-01 -9.4868428884239D-02
120  1.1900000000000D+00  3.0366522051033D-01 -8.6761686453892D-02
121  1.2000000000000D+00  2.6857405475090D-01 -7.8695640547909D-02
122  1.2100000000000D+00  2.3566881212575D-01 -7.0738270277199D-02
123  1.2200000000000D+00  2.0496957559534D-01 -6.2954345039020D-02
124  1.2300000000000D+00  1.7648577679270D-01 -5.5405294366463D-02
125  1.2400000000000D+00  1.5021733533472D-01 -4.8149097269494D-02
126  1.2500000000000D+00  1.2615586286204D-01 -4.1240189347086D-02
127  1.2600000000000D+00  1.0428590745854D-01 -3.4729385930617D-02
128  1.2700000000000D+00  8.4586213383259D-02 -2.8663819398662D-02
129  1.2800000000000D+00  6.7030970888889D-02 -2.3086888657841D-02
130  1.2900000000000D+00  5.1591032469602D-02 -1.8038218883634D-02
131  1.3000000000000D+00  3.8235071455083D-02 -1.3553629554226D-02
132  1.3100000000000D+00  2.6930660871903D-02 -9.6651088892082D-03
133  1.3200000000000D+00  1.7649390934276D-02 -6.4023477206288D-03
134  1.3300000000000D+00  1.0348084965323D-02 -3.7853401757764D-03
135  1.3400000000000D+00  4.9731320721817D-03 -1.8258691564842D-03
136  1.3500000000000D+00  1.6419610988245D-03 -5.9416409450529D-04
137  1.3600000000000D+00  1.7175923474671D-04 -4.5224524691336D-05
138  1.3700000000000D+00 -1.2428766268447D-04  5.7453401045659D-05
139  1.3800000000000D+00  6.6218974682203D-06 -2.8645291694846D-06
140  1.3900000000000D+00  3.2416140180237D-05 -1.3728867540045D-05
141  1.4000000000000D+00 -5.3789681372743D-06  2.3432406726987D-06
142  1.4100000000000D+00 -3.1523617507315D-06  1.3590724037719D-06
143  1.4200000000000D+00  7.4643137451287D-09 -5.3839791077191D-08
144  1.4300000000000D+00  0.0000000000000D+00  0.0000000000000D+00
145  1.4400000000000D+00  0.0000000000000D+00  0.0000000000000D+00
146  1.4500000000000D+00  0.0000000000000D+00  0.0000000000000D+00
147  1.4600000000000D+00  0.0000000000000D+00  0.0000000000000D+00
148  1.4700000000000D+00  0.0000000000000D+00  0.0000000000000D+00
149  1.4800000000000D+00  0.0000000000000D+00  0.0000000000000D+00
150  1.4900000000000D+00  0.0000000000000D+00  0.0000000000000D+00
151  1.5000000000000D+00  0.0000000000000D+00  0.0000000000000D+00
152  1.5100000000000D+00  0.0000000000000D+00  0.0000000000000D+00
153  1.5200000000000D+00  0.0000000000000D+00  0.0000000000000D+00
154  1.5300000000000D+00  0.0000000000000D+00  0.0000000000000D+00
155  1.5400000000000D+00  0.0000000000000D+00  0.0000000000000D+00
156  1.5500000000000D+00  0.0000000000000D+00  0.0000000000000D+00
157  1.5600000000000D+00  0.0000000000000D+00  0.0000000000000D+00
158  1.5700000000000D+00  0.0000000000000D+00  0.0000000000000D+00
159  1.5800000000000D+00  0.0000000000000D+00  0.0000000000000D+00
160  1.5900000000000D+00  0.0000000000000D+00  0.0000000000000D+00
161  1.6000000000000D+00  0.0000000000000D+00  0.0000000000000D+00
162  1.6100000000000D+00  0.0000000000000D+00  0.0000000000000D+00
163  1.6200000000000D+00  0.0000000000000D+00  0.0000000000000D+00
164  1.6300000000000D+00  0.0000000000000D+00  0.0000000000000D+00
165  1.6400000000000D+00  0.0000000000000D+00  0.0000000000000D+00
166  1.6500000000000D+00  0.0000000000000D+00  0.0000000000000D+00
167  1.6600000000000D+00  0.0000000000000D+00  0.0000000000000D+00
168  1.6700000000000D+00  0.0000000000000D+00  0.0000000000000D+00
169  1.6800000000000D+00  0.0000000000000D+00  0.0000000000000D+00
170  1.6900000000000D+00  0.0000000000000D+00  0.0000000000000D+00
171  1.7000000000000D+00  0.0000000000000D+00  0.0000000000000D+00
172  1.7100000000000D+00  0.0000000000000D+00  0.0000000000000D+00
173  1.7200000000000D+00  0.0000000000000D+00  0.0000000000000D+00
174  1.7300000000000D+00  0.0000000000000D+00  0.0000000000000D+00
175  1.7400000000000D+00  0.0000000000000D+00  0.0000000000000D+00
176  1.7500000000000D+00  0.0000000000000D+00  0.0000000000000D+00
177  1.7600000000000D+00  0.0000000000000D+00  0.0000000000000D+00
178  1.7700000000000D+00  0.0000000000000D+00  0.0000000000000D+00
179  1.7800000000000D+00  0.0000000000000D+00  0.0000000000000D+00
180  1.7900000000000D+00  0.0000000000000D+00  0.0000000000000D+00
181  1.8000000000000D+00  0.0000000000000D+00  0.0000000000000D+00
182  1.8100000000000D+00  0.0000000000000D+00  0.0000000000000D+00
183  1.8200000000000D+00  0.0000000000000D+00  0.0000000000000D+00
184  1.8300000000000D+00  0.0000000000000D+00  0.0000000000000D+00
185  1.8400000000000D+00  0.0000000000000D+00  0.0000000000000D+00
186  1.8500000000000D+00  0.0000000000000D+00  0.0000000000000D+00
187  1.8600000000000D+00  0.0000000000000D+00  0.0000000000000D+00
188  1.8700000000000D+00  0.0000000000000D+00  0.0000000000000D+00
189  1.8800000000000D+00  0.0000000000000D+00  0.0000000000000D+00
190  1.8900000000000D+00  0.0000000000000D+00  0.0000000000000D+00
191  1.9000000000000D+00  0.0000000000000D+00  0.0000000000000D+00
192  1.9100000000000D+00  0.0000000000000D+00  0.0000000000000D+00
193  1.9200000000000D+00  0.0000000000000D+00  0.0000000000000D+00
194  1.9300000000000D+00  0.0000000000000D+00  0.0000000000000D+00
195  1.9400000000000D+00  0.0000000000000D+00  0.0000000000000D+00
196  1.9500000000000D+00  0.0000000000000D+00  0.0000000000000D+00
197  1.9600000000000D+00  0.0000000000000D+00  0.0000000000000D+00
198  1.9700000000000D+00  0.0000000000000D+00  0.0000000000000D+00
199  1.9800000000000D+00  0.0000000000000D+00  0.0000000000000D+00
200  1.9900000000000D+00  0.0000000000000D+00  0.0000000000000D+00
201  2.0000000000000D+00  0.0000000000000D+00  0.0000000000000D+00
202  2.0100000000000D+00  0.0000000000000D+00  0.0000000000000D+00
203  2.0200000000000D+00  0.0000000000000D+00  0.0000000000000D+00
204  2.0300000000000D+00  0.0000000000000D+00  0.0000000000000D+00
205  2.0400000000000D+00  0.0000000000000D+00  0.0000000000000D+00
206  2.0500000000000D+00  0.0000000000000D+00  0.0000000000000D+00
207  2.0600000000000D+00  0.0000000000000D+00  0.0000000000000D+00
208  2.0700000000000D+00  0.0000000000000D+00  0.0000000000000D+00
209  2.0800000000000D+00  0.0000000000000D+00  0.0000000000000D+00
210  2.0900000000000D+00  0.0000000000000D+00  0.0000000000000D+00
211  2.1000000000000D+00  0.0000000000000D+00  0.0000000000000D+00
212  2.1100000000000D+00  0.0000000000000D+00  0.0000000000000D+00
213  2.1200000000000D+00  0.0000000000000D+00  0.0000000000000D+00
214  2.1300000000000D+00  0.0000000000000D+00  0.0000000000000D+00
215  2.1400000000000D+00  0.0000000000000D+00  0.0000000000000D+00
216  2.1500000000000D+00  0.0000000000000D+00  0.0000000000000D+00
217  2.1600000000000D+00  0.0000000000000D+00  0.0000000000000D+00
218  2.1700000000000D+00  0.0000000000000D+00  0.0000000000000D+00
219  2.1800000000000D+00  0.0000000000000D+00  0.0000000000000D+00
220  2.1900000000000D+00  0.0000000000000D+00  0.0000000000000D+00
221  2.2000000000000D+00  0.0000000000000D+00  0.0000000000000D+00
222  2.2100000000000D+00  0.0000000000000D+00  0.0000000000000D+00
223  2.2200000000000D+00  0.0000000000000D+00  0.0000000000000D+00
224  2.2300000000000D+00  0.0000000000000D+00  0.0000000000000D+00
225  2.2400000000000D+00  0.0000000000000D+00  0.0000000000000D+00
226  2.2500000000000D+00  0.0000000000000D+00  0.0000000000000D+00
227  2.2600000000000D+00  0.0000000000000D+00  0.0000000000000D+00
228  2.2700000000000D+00  0.0000000000000D+00  0.0000000000000D+00
229  2.2800000000000D+00  0.0000000000000D+00  0.0000000000000D+00
230  2.2900000000000D+00  0.0000000000000D+00  0.0000000000000D+00
231  2.3000000000000D+00  0.0000000000000D+00  0.0000000000000D+00
232  2.3100000000000D+00  0.0000000000000D+00  0.0000000000000D+00
233  2.3200000000000D+00  0.0000000000000D+00  0.0000000000000D+00
234  2.3300000000000D+00  0.0000000000000D+00  0.0000000000000D+00
235  2.3400000000000D+00  0.0000000000000D+00  0.0000000000000D+00
236  2.3500000000000D+00  0.0000000000000D+00  0.0000000000000D+00
237  2.3600000000000D+00  0.0000000000000D+00  0.0000000000000D+00
238  2.3700000000000D+00  0.0000000000000D+00  0.0000000000000D+00
239  2.3800000000000D+00  0.0000000000000D+00  0.0000000000000D+00
240  2.3900000000000D+00  0.0000000000000D+00  0.0000000000000D+00
241  2.4000000000000D+00  0.0000000000000D+00  0.0000000000000D+00
242  2.4100000000000D+00  0.0000000000000D+00  0.0000000000000D+00
243  2.4200000000000D+00  0.0000000000000D+00  0.0000000000000D+00
244  2.4300000000000D+00  0.0000000000000D+00  0.0000000000000D+00
245  2.4400000000000D+00  0.0000000000000D+00  0.0000000000000D+00
246  2.4500000000000D+00  0.0000000000000D+00  0.0000000000000D+00
247  2.4600000000000D+00  0.0000000000000D+00  0.0000000000000D+00
248  2.4700000000000D+00  0.0000000000000D+00  0.0000000000000D+00
249  2.4800000000000D+00  0.0000000000000D+00  0.0000000000000D+00
250  2.4900000000000D+00  0.0000000000000D+00  0.0000000000000D+00
251  2.5000000000000D+00  0.0000000000000D+00  0.0000000000000D+00
252  2.5100000000000D+00  0.0000000000000D+00  0.0000000000000D+00
253  2.5200000000000D+00  0.0000000000000D+00  0.0000000000000D+00
254  2.5300000000000D+00  0.0000000000000D+00  0.0000000000000D+00
255  2.5400000000000D+00  0.0000000000000D+00  0.0000000000000D+00
256  2.5500000000000D+00  0.0000000000000D+00  0.0000000000000D+00
257  2.5600000000000D+00  0.0000000000000D+00  0.0000000000000D+00
258  2.5700000000000D+00  0.0000000000000D+00  0.0000000000000D+00
259  2.5800000000000D+00  0.0000000000000D+00  0.0000000000000D+00
260  2.5900000000000D+00  0.0000000000000D+00  0.0000000000000D+00
261  2.6000000000000D+00  0.0000000000000D+00  0.0000000000000D+00
262  2.6100000000000D+00  0.0000000000000D+00  0.0000000000000D+00
263  2.6200000000000D+00  0.0000000000000D+00  0.0000000000000D+00
264  2.6300000000000D+00  0.0000000000000D+00  0.0000000000000D+00
265  2.6400000000000D+00  0.0000000000000D+00  0.0000000000000D+00
266  2.6500000000000D+00  0.0000000000000D+00  0.0000000000000D+00
267  2.6600000000000D+00  0.0000000000000D+00  0.0000000000000D+00
268  2.6700000000000D+00  0.0000000000000D+00  0.0000000000000D+00
269  2.6800000000000D+00  0.0000000000000D+00  0.0000000000000D+00
270  2.6900000000000D+00  0.0000000000000D+00  0.0000000000000D+00
271  2.7000000000000D+00  0.0000000000000D+00  0.0000000000000D+00
272  2.7100000000000D+00  0.0000000000000D+00  0.0000000000000D+00
273  2.7200000000000D+00  0.0000000000000D+00  0.0000000000000D+00
274  2.7300000000000D+00  0.0000000000000D+00  0.0000000000000D+00
275  2.7400000000000D+00  0.0000000000000D+00  0.0000000000000D+00
276  2.7500000000000D+00  0.0000000000000D+00  0.0000000000000D+00
277  2.7600000000000D+00  0.0000000000000D+00  0.0000000000000D+00
278  2.7700000000000D+00  0.0000000000000D+00  0.0000000000000D+00
279  2.7800000000000D+00  0.0000000000000D+00  0.0000000000000D+00
280  2.7900000000000D+00  0.0000000000000D+00  0.0000000000000D+00
281  2.8000000000000D+00  0.0000000000000D+00  0.0000000000000D+00
282  2.8100000000000D+00  0.0000000000000D+00  0.0000000000000D+00
283  2.8200000000000D+00  0.0000000000000D+00  0.0000000000000D+00
284  2.8300000000000D+00  0.0000000000000D+00  0.0000000000000D+00
285  2.8400000000000D+00  0.0000000000000D+00  0.0000000000000D+00
286  2.8500000000000D+00  0.0000000000000D+00  0.0000000000000D+00
287  2.8600000000000D+00  0.0000000000000D+00  0.0000000000000D+00
288  2.8700000000000D+00  0.0000000000000D+00  0.0000000000000D+00
289  2.8800000000000D+00  0.0000000000000D+00  0.0000000000000D+00
290  2.8900000000000D+00  0.0000000000000D+00  0.0000000000000D+00
291  2.9000000000000D+00  0.0000000000000D+00  0.0000000000000D+00
292  2.9100000000000D+00  0.0000000000000D+00  0.0000000000000D+00
293  2.9200000000000D+00  0.0000000000000D+00  0.0000000000000D+00
294  2.9300000000000D+00  0.0000000000000D+00  0.0000000000000D+00
295  2.9400000000000D+00  0.0000000000000D+00  0.0000000000000D+00
296  2.9500000000000D+00  0.0000000000000D+00  0.0000000000000D+00
297  2.9600000000000D+00  0.0000000000000D+00  0.0000000000000D+00
298  2.9700000000000D+00  0.0000000000000D+00  0.0000000000000D+00
299  2.9800000000000D+00  0.0000000000000D+00  0.0000000000000D+00
300  2.9900000000000D+00  0.0000000000000D+00  0.0000000000000D+00
301  3.0000000000000D+00  0.0000000000000D+00  0.0000000000000D+00
302  3.0100000000000D+00  0.0000000000000D+00  0.0000000000000D+00
303  3.0200000000000D+00  0.0000000000000D+00  0.0000000000000D+00
304  3.0300000000000D+00  0.0000000000000D+00  0.0000000000000D+00
305  3.0400000000000D+00  0.0000000000000D+00  0.0000000000000D+00
306  3.0500000000000D+00  0.0000000000000D+00  0.0000000000000D+00
307  3.0600000000000D+00  0.0000000000000D+00  0.0000000000000D+00
308  3.0700000000000D+00  0.0000000000000D+00  0.0000000000000D+00
309  3.0800000000000D+00  0.0000000000000D+00  0.0000000000000D+00
310  3.0900000000000D+00  0.0000000000000D+00  0.0000000000000D+00
311  3.1000000000000D+00  0.0000000000000D+00  0.0000000000000D+00
312  3.1100000000000D+00  0.0000000000000D+00  0.0000000000000D+00
313  3.1200000000000D+00  0.0000000000000D+00  0.0000000000000D+00
314  3.1300000000000D+00  0.0000000000000D+00  0.0000000000000D+00
315  3.1400000000000D+00  0.0000000000000D+00  0.0000000000000D+00
316  3.1500000000000D+00  0.0000000000000D+00  0.0000000000000D+00
317  3.1600000000000D+00  0.0000000000000D+00  0.0000000000000D+00
318  3.1700000000000D+00  0.0000000000000D+00  0.0000000000000D+00
319  3.1800000000000D+00  0.0000000000000D+00  0.0000000000000D+00
320  3.1900000000000D+00  0.0000000000000D+00  0.0000000000000D+00
321  3.2000000000000D+00  0.0000000000000D+00  0.0000000000000D+00
322  3.2100000000000D+00  0.0000000000000D+00  0.0000000000000D+00
323  3.2200000000000D+00  0.0000000000000D+00  0.0000000000000D+00
324  3.2300000000000D+00  0.0000000000000D+00  0.0000000000000D+00
325  3.2400000000000D+00  0.0000000000000D+00  0.0000000000000D+00
326  3.2500000000000D+00  0.0000000000000D+00  0.0000000000000D+00
327  3.2600000000000D+00  0.0000000000000D+00  0.0000000000000D+00
328  3.2700000000000D+00  0.0000000000000D+00  0.0000000000000D+00
329  3.2800000000000D+00  0.0000000000000D+00  0.0000000000000D+00
330  3.2900000000000D+00  0.0000000000000D+00  0.0000000000000D+00
331  3.3000000000000D+00  0.0000000000000D+00  0.0000000000000D+00
332  3.3100000000000D+00  0.0000000000000D+00  0.0000000000000D+00
333  3.3200000000000D+00  0.0000000000000D+00  0.0000000000000D+00
334  3.3300000000000D+00  0.0000000000000D+00  0.0000000000000D+00
335  3.3400000000000D+00  0.0000000000000D+00  0.0000000000000D+00
336  3.3500000000000D+00  0.0000000000000D+00  0.0000000000000D+00
337  3.3600000000000D+00  0.0000000000000D+00  0.0000000000000D+00
338  3.3700000000000D+00  0.0000000000000D+00  0.0000000000000D+00
339  3.3800000000000D+00  0.0000000000000D+00  0.0000000000000D+00
340  3.3900000000000D+00  0.0000000000000D+00  0.0000000000000D+00
341  3.4000000000000D+00  0.0000000000000D+00  0.0000000000000D+00
342  3.4100000000000D+00  0.0000000000000D+00  0.0000000000000D+00
343  3.4200000000000D+00  0.0000000000000D+00  0.0000000000000D+00
344  3.4300000000000D+00  0.0000000000000D+00  0.0000000000000D+00
345  3.4400000000000D+00  0.0000000000000D+00  0.0000000000000D+00
346  3.4500000000000D+00  0.0000000000000D+00  0.0000000000000D+00
347  3.4600000000000D+00  0.0000000000000D+00  0.0000000000000D+00
348  3.4700000000000D+00  0.0000000000000D+00  0.0000000000000D+00
349  3.4800000000000D+00  0.0000000000000D+00  0.0000000000000D+00
350  3.4900000000000D+00  0.0000000000000D+00  0.0000000000000D+00
351  3.5000000000000D+00  0.0000000000000D+00  0.0000000000000D+00
352  3.5100000000000D+00  0.0000000000000D+00  0.0000000000000D+00
353  3.5200000000000D+00  0.0000000000000D+00  0.0000000000000D+00
354  3.5300000000000D+00  0.0000000000000D+00  0.0000000000000D+00
355  3.5400000000000D+00  0.0000000000000D+00  0.0000000000000D+00
356  3.5500000000000D+00  0.0000000000000D+00  0.0000000000000D+00
357  3.5600000000000D+00  0.0000000000000D+00  0.0000000000000D+00
358  3.5700000000000D+00  0.0000000000000D+00  0.0000000000000D+00
359  3.5800000000000D+00  0.0000000000000D+00  0.0000000000000D+00
360  3.5900000000000D+00  0.0000000000000D+00  0.0000000000000D+00
361  3.6000000000000D+00  0.0000000000000D+00  0.0000000000000D+00
362  3.6100000000000D+00  0.0000000000000D+00  0.0000000000000D+00
363  3.6200000000000D+00  0.0000000000000D+00  0.0000000000000D+00
364  3.6300000000000D+00  0.0000000000000D+00  0.0000000000000D+00
365  3.6400000000000D+00  0.0000000000000D+00  0.0000000000000D+00
366  3.6500000000000D+00  0.0000000000000D+00  0.0000000000000D+00
367  3.6600000000000D+00  0.0000000000000D+00  0.0000000000000D+00
368  3.6700000000000D+00  0.0000000000000D+00  0.0000000000000D+00
369  3.6800000000000D+00  0.0000000000000D+00  0.0000000000000D+00
370  3.6900000000000D+00  0.0000000000000D+00  0.0000000000000D+00
371  3.7000000000000D+00  0.0000000000000D+00  0.0000000000000D+00
372  3.7100000000000D+00  0.0000000000000D+00  0.0000000000000D+00
373  3.7200000000000D+00  0.0000000000000D+00  0.0000000000000D+00
374  3.7300000000000D+00  0.0000000000000D+00  0.0000000000000D+00
375  3.7400000000000D+00  0.0000000000000D+00  0.0000000000000D+00
376  3.7500000000000D+00  0.0000000000000D+00  0.0000000000000D+00
377  3.7600000000000D+00  0.0000000000000D+00  0.0000000000000D+00
378  3.7700000000000D+00  0.0000000000000D+00  0.0000000000000D+00
379  3.7800000000000D+00  0.0000000000000D+00  0.0000000000000D+00
380  3.7900000000000D+00  0.0000000000000D+00  0.0000000000000D+00
381  3.8000000000000D+00  0.0000000000000D+00  0.0000000000000D+00
382  3.8100000000000D+00  0.0000000000000D+00  0.0000000000000D+00
383  3.8200000000000D+00  0.0000000000000D+00  0.0000000000000D+00
384  3.8300000000000D+00  0.0000000000000D+00  0.0000000000000D+00
385  3.8400000000000D+00  0.0000000000000D+00  0.0000000000000D+00
386  3.8500000000000D+00  0.0000000000000D+00  0.0000000000000D+00
387  3.8600000000000D+00  0.0000000000000D+00  0.0000000000000D+00
388  3.8700000000000D+00  0.0000000000000D+00  0.0000000000000D+00
389  3.8800000000000D+00  0.0000000000000D+00  0.0000000000000D+00
390  3.8900000000000D+00  0.0000000000000D+00  0.0000000000000D+00
391  3.9000000000000D+00  0.0000000000000D+00  0.0000000000000D+00
392  3.9100000000000D+00  0.0000000000000D+00  0.0000000000000D+00
393  3.9200000000000D+00  0.0000000000000D+00  0.0000000000000D+00
394  3.9300000000000D+00  0.0000000000000D+00  0.0000000000000D+00
395  3.9400000000000D+00  0.0000000000000D+00  0.0000000000000D+00
396  3.9500000000000D+00  0.0000000000000D+00  0.0000000000000D+00
397  3.9600000000000D+00  0.0000000000000D+00  0.0000000000000D+00
398  3.9700000000000D+00  0.0000000000000D+00  0.0000000000000D+00
399  3.9800000000000D+00  0.0000000000000D+00  0.0000000000000D+00
400  3.9900000000000D+00  0.0000000000000D+00  0.0000000000000D+00
1                         4.1793760407231D+00  5.0197535540906D-01  4.1591607578726D-05
1  0.0000000000000D+00  4.6003779119452D-09 -1.8971292245484D-08  2.6448166545734D-08
2  1.0000000000000D-02  1.7492193887295D-03 -1.9899345811685D-03  3.2255255031630D-03
3  2.0000000000000D-02  6.9838274040625D-03 -7.9224364135183D-03  1.2848289273992D-02
4  3.0000000000000D-02  1.5664841444858D-02 -1.7686246846191D-02  2.8707755627990D-02
5  4.0000000000000D-02  2.7727847385052D-02 -3.1098080872452D-02  5.0539358364072D-02
6  5.0000000000000D-02  4.3083825728766D-02 -4.7905808401002D-02  7.7978937804525D-02
7  6.0000000000000D-02  6.1620290060216D-02 -6.7792832973663D-02  1.1056884773127D-01
8  7.0000000000000D-02  8.3202719969260D-02 -9.0383594326911D-02  1.4776562943527D-01
9  8.0000000000000D-02  1.0767626603304D-01 -1.1525010222346D-01  1.8894912364763D-01
10  9.0000000000000D-02  1.3486770019215D-01 -1.4191939151161D-01  2.3343286671379D-01
11  1.0000000000000D-01  1.6458758104294D-01 -1.6988177268381D-01  2.8047559577722D-01
12  1.1000000000000D-01  1.9663260023858D-01 -1.9859973856517D-01  3.2929366867760D-01
13  1.2000000000000D-01  2.3078807340347D-01 -2.2751737638891D-01  3.7907418877627D-01
14  1.3000000000000D-01  2.6683053676404D-01 -2.5607012560032D-01  4.2898861266941D-01
15  1.4000000000000D-01  3.0453040912054D-01 -2.8369471542563D-01  4.7820661029183D-01
16  1.5000000000000D-01  3.4365467785524D-01 -3.0983911265779D-01  5.2590994233094D-01
17  1.6000000000000D-01  3.8396956740895D-01 -3.3397230931335D-01  5.7130611910938D-01
18  1.7000000000000D-01  4.2524314906558D-01 -3.5559378182911D-01  6.1364160842552D-01
19  1.8000000000000D-01  4.6724785195973D-01 -3.7424245827252D-01  6.5221436695948D-01
20  1.9000000000000D-01  5.0976283694748D-01 -3.8950503756698D-01  6.8638548089984D-01
21  2.0000000000000D-01  5.5257619733255D-01 -4.0102351487731D-01  7.1558971603825D-01
22  2.1000000000000D-01  5.9548695338045D-01 -4.0850177990599D-01  7.3934479562564D-01
23  2.2000000000000D-01  6.3830681103841D-01 -4.1171116972674D-01  7.5725924553570D-01
24  2.3000000000000D-01  6.8086165925311D-01 -4.1049487469857D-01  7.6903867016158D-01
25  2.4000000000000D-01  7.2299278468006D-01 -4.0477111469772D-01  7.7449034892637D-01
26  2.5000000000000D-01  7.6455778733782D-01 -3.9453502308169D-01  7.7352607162838D-01
27  2.6000000000000D-01  8.0543118580065D-01 -3.7985919714043D-01  7.6616316073403D-01
28  2.7000000000000D-01  8.4550470576570D-01 -3.6089289595506D-01  7.5252365961942D-01
29  2.8000000000000D-01  8.8468725118858D-01 -3.3785988921548D-01  7.3283169721355D-01
30  2.9000000000000D-01  9.2290456256956D-01 -3.1105498328249D-01  7.0740907089783D-01
31  3.0000000000000D-01  9.6009857230187D-01 -2.8083927324406D-01  6.7666912039072D-01
32  3.1000000000000D-01  9.9622647217734D-01 -2.4763419154214D-01  6.4110899519442D-01