K     ONCVPSP  r_core=  1.36  1.46  1.61
19.0000      9.0000      150630    zatom,zion,pspd
8      11   2     4   400     0    pspcod,pspxc,lmax,lloc,mmax,r2well
3.99000000  5.00000000  0.00000000    rchrg fchrg qchrg
2     2     2     0     0    nproj
0                 extension_switch
0                         1.0817551609951D+01  7.9085389896565D-01
1  0.0000000000000D+00 -5.2487347801389D-11  9.7938157583854D-10
2  1.0000000000000D-02  5.8255865108516D-02 -3.2940763507870D-02
3  2.0000000000000D-02  1.1643298961422D-01 -6.5739014844789D-02
4  3.0000000000000D-02  1.7445270170362D-01 -9.8253235758384D-02
5  4.0000000000000D-02  2.3223646690915D-01 -1.3034388092369D-01
6  5.0000000000000D-02  2.8970595621407D-01 -1.6187432738747D-01
7  6.0000000000000D-02  3.4678311351455D-01 -1.9271178029933D-01
8  7.0000000000000D-02  4.0339022228782D-01 -2.2272812152951D-01
9  8.0000000000000D-02  4.5944997136809D-01 -2.5180068875263D-01
10  9.0000000000000D-02  5.1488551979499D-01 -2.7981297377039D-01
11  1.0000000000000D-01  5.6962056077178D-01 -3.0665523023608D-01
12  1.1000000000000D-01  6.2357938485076D-01 -3.3222498250486D-01
13  1.2000000000000D-01  6.7668694254857D-01 -3.5642742904363D-01
14  1.3000000000000D-01  7.2886890668344D-01 -3.7917573566213D-01
15  1.4000000000000D-01  7.8005173481630D-01 -4.0039121574423D-01
16  1.5000000000000D-01  8.3016273226681D-01 -4.2000339663322D-01
17  1.6000000000000D-01  8.7913011626059D-01 -4.3794997332417D-01
18  1.7000000000000D-01  9.2688308184303D-01 -4.5417665260687D-01
19  1.8000000000000D-01  9.7335187026605D-01 -4.6863689275118D-01
20  1.9000000000000D-01  1.0184678406137D+00 -4.8129154569971D-01
21  2.0000000000000D-01  1.0621635454796D+00 -4.9210841049810D-01
22  2.1000000000000D-01  1.1043728115413D+00 -5.0106170832078D-01
23  2.2000000000000D-01  1.1450308258904D+00 -5.0813149091123D-01
24  2.3000000000000D-01  1.1840742289758D+00 -5.1330299552331D-01
25  2.4000000000000D-01  1.2214412149917D+00 -5.1656596050297D-01
26  2.5000000000000D-01  1.2570716405002D+00 -5.1791391646437D-01
27  2.6000000000000D-01  1.2909071420111D+00 -5.1734346857798D-01
28  2.7000000000000D-01  1.3228912631560D+00 -5.1485358578617D-01
29  2.8000000000000D-01  1.3529695919852D+00 -5.1044491278526D-01
30  2.9000000000000D-01  1.3810899087839D+00 -5.0411912036048D-01
31  3.0000000000000D-01  1.4072023446593D+00 -4.9587830912890D-01
32  3.1000000000000D-01  1.4312595509776D+00 -4.8572448094347D-01
33  3.2000000000000D-01  1.4532168795460D+00 -4.7365909114461D-01
34  3.3000000000000D-01  1.4730325732359D+00 -4.5968269353210D-01
35  3.4000000000000D-01  1.4906679665276D+00 -4.4379468838371D-01
36  3.5000000000000D-01  1.5060876952362D+00 -4.2599318209209D-01
37  3.6000000000000D-01  1.5192599144481D+00 -4.0627496505456D-01
38  3.7000000000000D-01  1.5301565234637D+00 -3.8463561235700D-01
39  3.8000000000000D-01  1.5387533963093D+00 -3.6106970957948D-01
40  3.9000000000000D-01  1.5450306161520D+00 -3.3557120374891D-01
41  4.0000000000000D-01  1.5489727117283D+00 -3.0813387711141D-01
42  4.1000000000000D-01  1.5505688936857D+00 -2.7875193902929D-01
43  4.2000000000000D-01  1.5498132885430D+00 -2.4742072896719D-01
44  4.3000000000000D-01  1.5467051677949D+00 -2.1413752125437D-01
45  4.4000000000000D-01  1.5412491695324D+00 -1.7890242013536D-01
46  4.5000000000000D-01  1.5334555098225D+00 -1.4171933158740D-01
47  4.6000000000000D-01  1.5233401809887D+00 -1.0259699652436D-01
48  4.7000000000000D-01  1.5109251338660D+00 -6.1550068358788D-02
49  4.8000000000000D-01  1.4962384410693D+00 -1.8600216485841D-02
50  4.9000000000000D-01  1.4793144383177D+00  2.6222763887475D-02
51  5.0000000000000D-01  1.4601938408942D+00  7.2879855990402D-02
52  5.1000000000000D-01  1.4389238324024D+00  1.2132176077450D-01
53  5.2000000000000D-01  1.4155581230998D+00  1.7148789240676D-01
54  5.3000000000000D-01  1.3901569752442D+00  2.2330545101305D-01
55  5.4000000000000D-01  1.3627871930917D+00  2.7668859324690D-01
56  5.5000000000000D-01  1.3335220754177D+00  3.3153772045104D-01
57  5.6000000000000D-01  1.3024413287065D+00  3.8773890303634D-01
58  5.7000000000000D-01  1.2696309394647D+00  4.4516345823430D-01
59  5.8000000000000D-01  1.2351830044494D+00  5.0366769661107D-01
60  5.9000000000000D-01  1.1991955179740D+00  5.6309285066575D-01
61  6.0000000000000D-01  1.1617721158434D+00  6.2326519652732D-01
62  6.1000000000000D-01  1.1230217758866D+00  6.8399637721148D-01
63  6.2000000000000D-01  1.0830584754827D+00  7.4508393316889D-01
64  6.3000000000000D-01  1.0420008069156D+00  8.0631204296256D-01
65  6.4000000000000D-01  9.9997155184188D-01  8.6745247390347D-01
66  6.5000000000000D-01  9.5709721659907D-01  9.2826573941325D-01
67  6.6000000000000D-01  9.1350753052698D-01  9.8850245677523D-01
68  6.7000000000000D-01  8.6933490990458D-01  1.0479048958658D+00
69  6.8000000000000D-01  8.2471389051924D-01  1.1062087064641D+00
70  6.9000000000000D-01  7.7978053228059D-01  1.1631448088429D+00
71  7.0000000000000D-01  7.3467179965761D-01  1.2184414296220D+00
72  7.1000000000000D-01  6.8952492205338D-01  1.2718262623468D+00
73  7.2000000000000D-01  6.4447673853081D-01  1.3230287299825D+00
74  7.3000000000000D-01  5.9966303156235D-01  1.3717823245137D+00
75  7.4000000000000D-01  5.5521785469152D-01  1.4178269971664D+00
76  7.5000000000000D-01  5.1127285916158D-01  1.4609115714296D+00
77  7.6000000000000D-01  4.6795662468503D-01  1.5007961500859D+00
78  7.7000000000000D-01  4.2539399959393D-01  1.5372544868731D+00
79  7.8000000000000D-01  3.8370545562452D-01  1.5700762932084D+00
80  7.9000000000000D-01  3.4300646255021D-01  1.5990694506163D+00
81  8.0000000000000D-01  3.0340688778328D-01  1.6240621001143D+00
82  8.1000000000000D-01  2.6501042592114D-01  1.6449045808151D+00
83  8.2000000000000D-01  2.2791406301645D-01  1.6614711913904D+00
84  8.3000000000000D-01  1.9220758010647D-01  1.6736617497876D+00
85  8.4000000000000D-01  1.5797310024742D-01  1.6814029286795D+00
86  8.5000000000000D-01  1.2528468296811D-01  1.6846493465121D+00
87  8.6000000000000D-01  9.4207969688585D-02  1.6833843966814D+00
88  8.7000000000000D-01  6.4799883247541D-02  1.6776208002603D+00
89  8.8000000000000D-01  3.7108384253157D-02  1.6674008707747D+00
90  8.9000000000000D-01  1.1172286520462D-02  1.6527964827479D+00
91  9.0000000000000D-01 -1.2978866609484D-02  1.6339087390408D+00
92  9.1000000000000D-01 -3.5324863751278D-02  1.6108673353634D+00
93  9.2000000000000D-01 -5.5854823922787D-02  1.5838296236691D+00
94  9.3000000000000D-01 -7.4567131603383D-02  1.5529793794143D+00
95  9.4000000000000D-01 -9.1469308521122D-02  1.5185252808293D+00
96  9.5000000000000D-01 -1.0657782274294D-01  1.4806991113275D+00
97  9.6000000000000D-01 -1.1991783607997D-01  1.4397536989622D+00
98  9.7000000000000D-01 -1.3152289123655D-01  1.3959606093893D+00
99  9.8000000000000D-01 -1.4143454051017D-01  1.3496076110041D+00
100  9.9000000000000D-01 -1.4970191820004D-01  1.3009959328449D+00
101  1.0000000000000D+00 -1.5638125919106D-01  1.2504373374015D+00
102  1.0100000000000D+00 -1.6153536644750D-01  1.1982510316466D+00
103  1.0200000000000D+00 -1.6523303037652D-01  1.1447604403750D+00
104  1.0300000000000D+00 -1.6754840319196D-01  1.0902898663110D+00
105  1.0400000000000D+00 -1.6856033154704D-01  1.0351610614184D+00
106  1.0500000000000D+00 -1.6835165077973D-01  9.7968973338090D-01
107  1.0600000000000D+00 -1.6700844414939D-01  9.2418201039345D-01
108  1.0700000000000D+00 -1.6461927042797D-01  8.6893088615008D-01
109  1.0800000000000D+00 -1.6127436262060D-01  8.1421265948005D-01
110  1.0900000000000D+00 -1.5706480178814D-01  7.6028339885705D-01
111  1.1000000000000D+00 -1.5208167977201D-01  7.0737554475791D-01
112  1.1100000000000D+00 -1.4641521203282D-01  6.5569426691592D-01
113  1.1200000000000D+00 -1.4015384603090D-01  6.0541394615347D-01
114  1.1300000000000D+00 -1.3338412970129D-01  5.5668332189137D-01
115  1.1400000000000D+00 -1.2619092511575D-01  5.0963270952852D-01
116  1.1500000000000D+00 -1.1865748803207D-01  4.6437846078309D-01
117  1.1600000000000D+00 -1.1086507737488D-01  4.2102158386283D-01
118  1.1700000000000D+00 -1.0289271757733D-01  3.7964821751944D-01
119  1.1800000000000D+00 -9.4816950830804D-02  3.4032985852676D-01
120  1.1900000000000D+00 -8.6711620690431D-02  3.0312387233691D-01
121  1.2000000000000D+00 -7.8647677011700D-02  2.6807414652545D-01
122  1.2100000000000D+00 -7.0693004334639D-02  2.3521190259070D-01
123  1.2200000000000D+00 -6.2912272363050D-02  2.0455664136050D-01
124  1.2300000000000D+00 -5.5366807351484D-02  1.7611720066004D-01
125  1.2400000000000D+00 -4.8114483033350D-02  1.4989290259423D-01
126  1.2500000000000D+00 -4.1209629346144D-02  1.2587476564814D-01
127  1.2600000000000D+00 -3.4702957190505D-02  1.0404675714464D-01
128  1.2700000000000D+00 -2.8641497339262D-02  8.4387060877536D-02
129  1.2800000000000D+00 -2.3068551467501D-02  6.6869334582340D-02
130  1.2900000000000D+00 -1.8023653375451D-02  5.1463933482325D-02
131  1.3000000000000D+00 -1.3542538414800D-02  3.8139075720079D-02
132  1.3100000000000D+00 -9.6571192098227D-03  2.6861927498623D-02
133  1.3200000000000D+00 -6.3970194250581D-03  1.7603715076458D-02
134  1.3300000000000D+00 -3.7821814301556D-03  1.0320998462157D-02
135  1.3400000000000D+00 -1.8243514300434D-03  4.9599992111901D-03
136  1.3500000000000D+00 -5.9368398156258D-04  1.6375854411297D-03
137  1.3600000000000D+00 -4.5206263783434D-05  1.7127608922318D-04
138  1.3700000000000D+00  5.7394503283214D-05 -1.2397076653276D-04
139  1.3800000000000D+00 -2.8617386363623D-06  6.6047790891809D-06
140  1.3900000000000D+00 -1.3715763707272D-05  3.2331831396749D-05
141  1.4000000000000D+00  2.3409284438419D-06 -5.3652063990287D-06
142  1.4100000000000D+00  1.3577435627327D-06 -3.1442771081481D-06
143  1.4200000000000D+00 -5.3743015475138D-08  7.5148395946644D-09
144  1.4300000000000D+00  0.0000000000000D+00  0.0000000000000D+00
145  1.4400000000000D+00  0.0000000000000D+00  0.0000000000000D+00
146  1.4500000000000D+00  0.0000000000000D+00  0.0000000000000D+00
147  1.4600000000000D+00  0.0000000000000D+00  0.0000000000000D+00
148  1.4700000000000D+00  0.0000000000000D+00  0.0000000000000D+00
149  1.4800000000000D+00  0.0000000000000D+00  0.0000000000000D+00
150  1.4900000000000D+00  0.0000000000000D+00  0.0000000000000D+00
151  1.5000000000000D+00  0.0000000000000D+00  0.0000000000000D+00
152  1.5100000000000D+00  0.0000000000000D+00  0.0000000000000D+00
153  1.5200000000000D+00  0.0000000000000D+00  0.0000000000000D+00
154  1.5300000000000D+00  0.0000000000000D+00  0.0000000000000D+00
155  1.5400000000000D+00  0.0000000000000D+00  0.0000000000000D+00
156  1.5500000000000D+00  0.0000000000000D+00  0.0000000000000D+00
157  1.5600000000000D+00  0.0000000000000D+00  0.0000000000000D+00
158  1.5700000000000D+00  0.0000000000000D+00  0.0000000000000D+00
159  1.5800000000000D+00  0.0000000000000D+00  0.0000000000000D+00
160  1.5900000000000D+00  0.0000000000000D+00  0.0000000000000D+00
161  1.6000000000000D+00  0.0000000000000D+00  0.0000000000000D+00
162  1.6100000000000D+00  0.0000000000000D+00  0.0000000000000D+00
163  1.6200000000000D+00  0.0000000000000D+00  0.0000000000000D+00
164  1.6300000000000D+00  0.0000000000000D+00  0.0000000000000D+00
165  1.6400000000000D+00  0.0000000000000D+00  0.0000000000000D+00
166  1.6500000000000D+00  0.0000000000000D+00  0.0000000000000D+00
167  1.6600000000000D+00  0.0000000000000D+00  0.0000000000000D+00
168  1.6700000000000D+00  0.0000000000000D+00  0.0000000000000D+00
169  1.6800000000000D+00  0.0000000000000D+00  0.0000000000000D+00
170  1.6900000000000D+00  0.0000000000000D+00  0.0000000000000D+00
171  1.7000000000000D+00  0.0000000000000D+00  0.0000000000000D+00
172  1.7100000000000D+00  0.0000000000000D+00  0.0000000000000D+00
173  1.7200000000000D+00  0.0000000000000D+00  0.0000000000000D+00
174  1.7300000000000D+00  0.0000000000000D+00  0.0000000000000D+00
175  1.7400000000000D+00  0.0000000000000D+00  0.0000000000000D+00
176  1.7500000000000D+00  0.0000000000000D+00  0.0000000000000D+00
177  1.7600000000000D+00  0.0000000000000D+00  0.0000000000000D+00
178  1.7700000000000D+00  0.0000000000000D+00  0.0000000000000D+00
179  1.7800000000000D+00  0.0000000000000D+00  0.0000000000000D+00
180  1.7900000000000D+00  0.0000000000000D+00  0.0000000000000D+00
181  1.8000000000000D+00  0.0000000000000D+00  0.0000000000000D+00
182  1.8100000000000D+00  0.0000000000000D+00  0.0000000000000D+00
183  1.8200000000000D+00  0.0000000000000D+00  0.0000000000000D+00
184  1.8300000000000D+00  0.0000000000000D+00  0.0000000000000D+00
185  1.8400000000000D+00  0.0000000000000D+00  0.0000000000000D+00
186  1.8500000000000D+00  0.0000000000000D+00  0.0000000000000D+00
187  1.8600000000000D+00  0.0000000000000D+00  0.0000000000000D+00
188  1.8700000000000D+00  0.0000000000000D+00  0.0000000000000D+00
189  1.8800000000000D+00  0.0000000000000D+00  0.0000000000000D+00
190  1.8900000000000D+00  0.0000000000000D+00  0.0000000000000D+00
191  1.9000000000000D+00  0.0000000000000D+00  0.0000000000000D+00
192  1.9100000000000D+00  0.0000000000000D+00  0.0000000000000D+00
193  1.9200000000000D+00  0.0000000000000D+00  0.0000000000000D+00
194  1.9300000000000D+00  0.0000000000000D+00  0.0000000000000D+00
195  1.9400000000000D+00  0.0000000000000D+00  0.0000000000000D+00
196  1.9500000000000D+00  0.0000000000000D+00  0.0000000000000D+00
197  1.9600000000000D+00  0.0000000000000D+00  0.0000000000000D+00
198  1.9700000000000D+00  0.0000000000000D+00  0.0000000000000D+00
199  1.9800000000000D+00  0.0000000000000D+00  0.0000000000000D+00
200  1.9900000000000D+00  0.0000000000000D+00  0.0000000000000D+00
201  2.0000000000000D+00  0.0000000000000D+00  0.0000000000000D+00
202  2.0100000000000D+00  0.0000000000000D+00  0.0000000000000D+00
203  2.0200000000000D+00  0.0000000000000D+00  0.0000000000000D+00
204  2.0300000000000D+00  0.0000000000000D+00  0.0000000000000D+00
205  2.0400000000000D+00  0.0000000000000D+00  0.0000000000000D+00
206  2.0500000000000D+00  0.0000000000000D+00  0.0000000000000D+00
207  2.0600000000000D+00  0.0000000000000D+00  0.0000000000000D+00
208  2.0700000000000D+00  0.0000000000000D+00  0.0000000000000D+00
209  2.0800000000000D+00  0.0000000000000D+00  0.0000000000000D+00
210  2.0900000000000D+00  0.0000000000000D+00  0.0000000000000D+00
211  2.1000000000000D+00  0.0000000000000D+00  0.0000000000000D+00
212  2.1100000000000D+00  0.0000000000000D+00  0.0000000000000D+00
213  2.1200000000000D+00  0.0000000000000D+00  0.0000000000000D+00
214  2.1300000000000D+00  0.0000000000000D+00  0.0000000000000D+00
215  2.1400000000000D+00  0.0000000000000D+00  0.0000000000000D+00
216  2.1500000000000D+00  0.0000000000000D+00  0.0000000000000D+00
217  2.1600000000000D+00  0.0000000000000D+00  0.0000000000000D+00
218  2.1700000000000D+00  0.0000000000000D+00  0.0000000000000D+00
219  2.1800000000000D+00  0.0000000000000D+00  0.0000000000000D+00
220  2.1900000000000D+00  0.0000000000000D+00  0.0000000000000D+00
221  2.2000000000000D+00  0.0000000000000D+00  0.0000000000000D+00
222  2.2100000000000D+00  0.0000000000000D+00  0.0000000000000D+00
223  2.2200000000000D+00  0.0000000000000D+00  0.0000000000000D+00
224  2.2300000000000D+00  0.0000000000000D+00  0.0000000000000D+00
225  2.2400000000000D+00  0.0000000000000D+00  0.0000000000000D+00
226  2.2500000000000D+00  0.0000000000000D+00  0.0000000000000D+00
227  2.2600000000000D+00  0.0000000000000D+00  0.0000000000000D+00
228  2.2700000000000D+00  0.0000000000000D+00  0.0000000000000D+00
229  2.2800000000000D+00  0.0000000000000D+00  0.0000000000000D+00
230  2.2900000000000D+00  0.0000000000000D+00  0.0000000000000D+00
231  2.3000000000000D+00  0.0000000000000D+00  0.0000000000000D+00
232  2.3100000000000D+00  0.0000000000000D+00  0.0000000000000D+00
233  2.3200000000000D+00  0.0000000000000D+00  0.0000000000000D+00
234  2.3300000000000D+00  0.0000000000000D+00  0.0000000000000D+00
235  2.3400000000000D+00  0.0000000000000D+00  0.0000000000000D+00
236  2.3500000000000D+00  0.0000000000000D+00  0.0000000000000D+00
237  2.3600000000000D+00  0.0000000000000D+00  0.0000000000000D+00
238  2.3700000000000D+00  0.0000000000000D+00  0.0000000000000D+00
239  2.3800000000000D+00  0.0000000000000D+00  0.0000000000000D+00
240  2.3900000000000D+00  0.0000000000000D+00  0.0000000000000D+00
241  2.4000000000000D+00  0.0000000000000D+00  0.0000000000000D+00
242  2.4100000000000D+00  0.0000000000000D+00  0.0000000000000D+00
243  2.4200000000000D+00  0.0000000000000D+00  0.0000000000000D+00
244  2.4300000000000D+00  0.0000000000000D+00  0.0000000000000D+00
245  2.4400000000000D+00  0.0000000000000D+00  0.0000000000000D+00
246  2.4500000000000D+00  0.0000000000000D+00  0.0000000000000D+00
247  2.4600000000000D+00  0.0000000000000D+00  0.0000000000000D+00
248  2.4700000000000D+00  0.0000000000000D+00  0.0000000000000D+00
249  2.4800000000000D+00  0.0000000000000D+00  0.0000000000000D+00
250  2.4900000000000D+00  0.0000000000000D+00  0.0000000000000D+00
251  2.5000000000000D+00  0.0000000000000D+00  0.0000000000000D+00
252  2.5100000000000D+00  0.0000000000000D+00  0.0000000000000D+00
253  2.5200000000000D+00  0.0000000000000D+00  0.0000000000000D+00
254  2.5300000000000D+00  0.0000000000000D+00  0.0000000000000D+00
255  2.5400000000000D+00  0.0000000000000D+00  0.0000000000000D+00
256  2.5500000000000D+00  0.0000000000000D+00  0.0000000000000D+00
257  2.5600000000000D+00  0.0000000000000D+00  0.0000000000000D+00
258  2.5700000000000D+00  0.0000000000000D+00  0.0000000000000D+00
259  2.5800000000000D+00  0.0000000000000D+00  0.0000000000000D+00
260  2.5900000000000D+00  0.0000000000000D+00  0.0000000000000D+00
261  2.6000000000000D+00  0.0000000000000D+00  0.0000000000000D+00
262  2.6100000000000D+00  0.0000000000000D+00  0.0000000000000D+00
263  2.6200000000000D+00  0.0000000000000D+00  0.0000000000000D+00
264  2.6300000000000D+00  0.0000000000000D+00  0.0000000000000D+00
265  2.6400000000000D+00  0.0000000000000D+00  0.0000000000000D+00
266  2.6500000000000D+00  0.0000000000000D+00  0.0000000000000D+00
267  2.6600000000000D+00  0.0000000000000D+00  0.0000000000000D+00
268  2.6700000000000D+00  0.0000000000000D+00  0.0000000000000D+00
269  2.6800000000000D+00  0.0000000000000D+00  0.0000000000000D+00
270  2.6900000000000D+00  0.0000000000000D+00  0.0000000000000D+00
271  2.7000000000000D+00  0.0000000000000D+00  0.0000000000000D+00
272  2.7100000000000D+00  0.0000000000000D+00  0.0000000000000D+00
273  2.7200000000000D+00  0.0000000000000D+00  0.0000000000000D+00
274  2.7300000000000D+00  0.0000000000000D+00  0.0000000000000D+00
275  2.7400000000000D+00  0.0000000000000D+00  0.0000000000000D+00
276  2.7500000000000D+00  0.0000000000000D+00  0.0000000000000D+00
277  2.7600000000000D+00  0.0000000000000D+00  0.0000000000000D+00
278  2.7700000000000D+00  0.0000000000000D+00  0.0000000000000D+00
279  2.7800000000000D+00  0.0000000000000D+00  0.0000000000000D+00
280  2.7900000000000D+00  0.0000000000000D+00  0.0000000000000D+00
281  2.8000000000000D+00  0.0000000000000D+00  0.0000000000000D+00
282  2.8100000000000D+00  0.0000000000000D+00  0.0000000000000D+00
283  2.8200000000000D+00  0.0000000000000D+00  0.0000000000000D+00
284  2.8300000000000D+00  0.0000000000000D+00  0.0000000000000D+00
285  2.8400000000000D+00  0.0000000000000D+00  0.0000000000000D+00
286  2.8500000000000D+00  0.0000000000000D+00  0.0000000000000D+00
287  2.8600000000000D+00  0.0000000000000D+00  0.0000000000000D+00
288  2.8700000000000D+00  0.0000000000000D+00  0.0000000000000D+00
289  2.8800000000000D+00  0.0000000000000D+00  0.0000000000000D+00
290  2.8900000000000D+00  0.0000000000000D+00  0.0000000000000D+00
291  2.9000000000000D+00  0.0000000000000D+00  0.0000000000000D+00
292  2.9100000000000D+00  0.0000000000000D+00  0.0000000000000D+00
293  2.9200000000000D+00  0.0000000000000D+00  0.0000000000000D+00
294  2.9300000000000D+00  0.0000000000000D+00  0.0000000000000D+00
295  2.9400000000000D+00  0.0000000000000D+00  0.0000000000000D+00
296  2.9500000000000D+00  0.0000000000000D+00  0.0000000000000D+00
297  2.9600000000000D+00  0.0000000000000D+00  0.0000000000000D+00
298  2.9700000000000D+00  0.0000000000000D+00  0.0000000000000D+00
299  2.9800000000000D+00  0.0000000000000D+00  0.0000000000000D+00
300  2.9900000000000D+00  0.0000000000000D+00  0.0000000000000D+00
301  3.0000000000000D+00  0.0000000000000D+00  0.0000000000000D+00
302  3.0100000000000D+00  0.0000000000000D+00  0.0000000000000D+00
303  3.0200000000000D+00  0.0000000000000D+00  0.0000000000000D+00
304  3.0300000000000D+00  0.0000000000000D+00  0.0000000000000D+00
305  3.0400000000000D+00  0.0000000000000D+00  0.0000000000000D+00
306  3.0500000000000D+00  0.0000000000000D+00  0.0000000000000D+00
307  3.0600000000000D+00  0.0000000000000D+00  0.0000000000000D+00
308  3.0700000000000D+00  0.0000000000000D+00  0.0000000000000D+00
309  3.0800000000000D+00  0.0000000000000D+00  0.0000000000000D+00
310  3.0900000000000D+00  0.0000000000000D+00  0.0000000000000D+00
311  3.1000000000000D+00  0.0000000000000D+00  0.0000000000000D+00
312  3.1100000000000D+00  0.0000000000000D+00  0.0000000000000D+00
313  3.1200000000000D+00  0.0000000000000D+00  0.0000000000000D+00
314  3.1300000000000D+00  0.0000000000000D+00  0.0000000000000D+00
315  3.1400000000000D+00  0.0000000000000D+00  0.0000000000000D+00
316  3.1500000000000D+00  0.0000000000000D+00  0.0000000000000D+00
317  3.1600000000000D+00  0.0000000000000D+00  0.0000000000000D+00
318  3.1700000000000D+00  0.0000000000000D+00  0.0000000000000D+00
319  3.1800000000000D+00  0.0000000000000D+00  0.0000000000000D+00
320  3.1900000000000D+00  0.0000000000000D+00  0.0000000000000D+00
321  3.2000000000000D+00  0.0000000000000D+00  0.0000000000000D+00
322  3.2100000000000D+00  0.0000000000000D+00  0.0000000000000D+00
323  3.2200000000000D+00  0.0000000000000D+00  0.0000000000000D+00
324  3.2300000000000D+00  0.0000000000000D+00  0.0000000000000D+00
325  3.2400000000000D+00  0.0000000000000D+00  0.0000000000000D+00
326  3.2500000000000D+00  0.0000000000000D+00  0.0000000000000D+00
327  3.2600000000000D+00  0.0000000000000D+00  0.0000000000000D+00
328  3.2700000000000D+00  0.0000000000000D+00  0.0000000000000D+00
329  3.2800000000000D+00  0.0000000000000D+00  0.0000000000000D+00
330  3.2900000000000D+00  0.0000000000000D+00  0.0000000000000D+00
331  3.3000000000000D+00  0.0000000000000D+00  0.0000000000000D+00
332  3.3100000000000D+00  0.0000000000000D+00  0.0000000000000D+00
333  3.3200000000000D+00  0.0000000000000D+00  0.0000000000000D+00
334  3.3300000000000D+00  0.0000000000000D+00  0.0000000000000D+00
335  3.3400000000000D+00  0.0000000000000D+00  0.0000000000000D+00
336  3.3500000000000D+00  0.0000000000000D+00  0.0000000000000D+00
337  3.3600000000000D+00  0.0000000000000D+00  0.0000000000000D+00
338  3.3700000000000D+00  0.0000000000000D+00  0.0000000000000D+00
339  3.3800000000000D+00  0.0000000000000D+00  0.0000000000000D+00
340  3.3900000000000D+00  0.0000000000000D+00  0.0000000000000D+00
341  3.4000000000000D+00  0.0000000000000D+00  0.0000000000000D+00
342  3.4100000000000D+00  0.0000000000000D+00  0.0000000000000D+00
343  3.4200000000000D+00  0.0000000000000D+00  0.0000000000000D+00
344  3.4300000000000D+00  0.0000000000000D+00  0.0000000000000D+00
345  3.4400000000000D+00  0.0000000000000D+00  0.0000000000000D+00
346  3.4500000000000D+00  0.0000000000000D+00  0.0000000000000D+00
347  3.4600000000000D+00  0.0000000000000D+00  0.0000000000000D+00
348  3.4700000000000D+00  0.0000000000000D+00  0.0000000000000D+00
349  3.4800000000000D+00  0.0000000000000D+00  0.0000000000000D+00
350  3.4900000000000D+00  0.0000000000000D+00  0.0000000000000D+00
351  3.5000000000000D+00  0.0000000000000D+00  0.0000000000000D+00
352  3.5100000000000D+00  0.0000000000000D+00  0.0000000000000D+00
353  3.5200000000000D+00  0.0000000000000D+00  0.0000000000000D+00
354  3.5300000000000D+00  0.0000000000000D+00  0.0000000000000D+00
355  3.5400000000000D+00  0.0000000000000D+00  0.0000000000000D+00
356  3.5500000000000D+00  0.0000000000000D+00  0.0000000000000D+00
357  3.5600000000000D+00  0.0000000000000D+00  0.0000000000000D+00
358  3.5700000000000D+00  0.0000000000000D+00  0.0000000000000D+00
359  3.5800000000000D+00  0.0000000000000D+00  0.0000000000000D+00
360  3.5900000000000D+00  0.0000000000000D+00  0.0000000000000D+00
361  3.6000000000000D+00  0.0000000000000D+00  0.0000000000000D+00
362  3.6100000000000D+00  0.0000000000000D+00  0.0000000000000D+00
363  3.6200000000000D+00  0.0000000000000D+00  0.0000000000000D+00
364  3.6300000000000D+00  0.0000000000000D+00  0.0000000000000D+00
365  3.6400000000000D+00  0.0000000000000D+00  0.0000000000000D+00
366  3.6500000000000D+00  0.0000000000000D+00  0.0000000000000D+00
367  3.6600000000000D+00  0.0000000000000D+00  0.0000000000000D+00
368  3.6700000000000D+00  0.0000000000000D+00  0.0000000000000D+00
369  3.6800000000000D+00  0.0000000000000D+00  0.0000000000000D+00
370  3.6900000000000D+00  0.0000000000000D+00  0.0000000000000D+00
371  3.7000000000000D+00  0.0000000000000D+00  0.0000000000000D+00
372  3.7100000000000D+00  0.0000000000000D+00  0.0000000000000D+00
373  3.7200000000000D+00  0.0000000000000D+00  0.0000000000000D+00
374  3.7300000000000D+00  0.0000000000000D+00  0.0000000000000D+00
375  3.7400000000000D+00  0.0000000000000D+00  0.0000000000000D+00
376  3.7500000000000D+00  0.0000000000000D+00  0.0000000000000D+00
377  3.7600000000000D+00  0.0000000000000D+00  0.0000000000000D+00
378  3.7700000000000D+00  0.0000000000000D+00  0.0000000000000D+00
379  3.7800000000000D+00  0.0000000000000D+00  0.0000000000000D+00
380  3.7900000000000D+00  0.0000000000000D+00  0.0000000000000D+00
381  3.8000000000000D+00  0.0000000000000D+00  0.0000000000000D+00
382  3.8100000000000D+00  0.0000000000000D+00  0.0000000000000D+00
383  3.8200000000000D+00  0.0000000000000D+00  0.0000000000000D+00
384  3.8300000000000D+00  0.0000000000000D+00  0.0000000000000D+00
385  3.8400000000000D+00  0.0000000000000D+00  0.0000000000000D+00
386  3.8500000000000D+00  0.0000000000000D+00  0.0000000000000D+00
387  3.8600000000000D+00  0.0000000000000D+00  0.0000000000000D+00
388  3.8700000000000D+00  0.0000000000000D+00  0.0000000000000D+00
389  3.8800000000000D+00  0.0000000000000D+00  0.0000000000000D+00
390  3.8900000000000D+00  0.0000000000000D+00  0.0000000000000D+00
391  3.9000000000000D+00  0.0000000000000D+00  0.0000000000000D+00
392  3.9100000000000D+00  0.0000000000000D+00  0.0000000000000D+00
393  3.9200000000000D+00  0.0000000000000D+00  0.0000000000000D+00
394  3.9300000000000D+00  0.0000000000000D+00  0.0000000000000D+00
395  3.9400000000000D+00  0.0000000000000D+00  0.0000000000000D+00
396  3.9500000000000D+00  0.0000000000000D+00  0.0000000000000D+00
397  3.9600000000000D+00  0.0000000000000D+00  0.0000000000000D+00
398  3.9700000000000D+00  0.0000000000000D+00  0.0000000000000D+00
399  3.9800000000000D+00  0.0000000000000D+00  0.0000000000000D+00
400  3.9900000000000D+00  0.0000000000000D+00  0.0000000000000D+00
1                         4.1793755733665D+00  5.0215019607223D-01
1  0.0000000000000D+00  4.6049691698746D-09 -1.8979350188686D-08
2  1.0000000000000D-02  1.7498434297170D-03 -1.9904781039379D-03
3  2.0000000000000D-02  6.9863140876552D-03 -7.9245974852182D-03
4  3.0000000000000D-02  1.5670401083189D-02 -1.7691060671297D-02
5  4.0000000000000D-02  2.7737643644302D-02 -3.1106518738320D-02
6  5.0000000000000D-02  4.3098958018705D-02 -4.7918753746497D-02
7  6.0000000000000D-02  6.1641776950837D-02 -6.7811059059039D-02
8  7.0000000000000D-02  8.3231483898740D-02 -9.0407743914830D-02
9  8.0000000000000D-02  1.0771311954981D-01 -1.1528066964570D-01
10  9.0000000000000D-02  1.3491333394863D-01 -1.4195670745491D-01
11  1.0000000000000D-01  1.6464255372936D-01 -1.6992599198070D-01
12  1.1000000000000D-01  1.9669733061358D-01 -1.9865083122394D-01
13  1.2000000000000D-01  2.3086283454297D-01 -2.2757512203955D-01
14  1.3000000000000D-01  2.6691545261359D-01 -2.5613411147409D-01
15  1.4000000000000D-01  3.0462545339802D-01 -2.8376433792409D-01
16  1.5000000000000D-01  3.4375967531155D-01 -3.0991358250303D-01
17  1.6000000000000D-01  3.8408419741559D-01 -3.3405066020905D-01
18  1.7000000000000D-01  4.2536695145910D-01 -3.5567488249906D-01
19  1.8000000000000D-01  4.6738023503528D-01 -3.7432502768299D-01
20  1.9000000000000D-01  5.0990308745828D-01 -3.8958766308229D-01
21  2.0000000000000D-01  5.5272349231833D-01 -4.0110467304500D-01
22  2.1000000000000D-01  5.9564037361743D-01 -4.0857985951929D-01
23  2.2000000000000D-01  6.3846535587613D-01 -4.1178449677018D-01
24  2.3000000000000D-01  6.8102426258043D-01 -4.1056173874692D-01
25  2.4000000000000D-01  7.2315833174349D-01 -4.0482979630949D-01
26  2.5000000000000D-01  7.6472513212100D-01 -3.9458382170846D-01
27  2.6000000000000D-01  8.0559916866456D-01 -3.7989645906055D-01
28  2.7000000000000D-01  8.4567217104460D-01 -3.6091704173597D-01
29  2.8000000000000D-01  8.8485306443771D-01 -3.3786944021419D-01
30  2.9000000000000D-01  9.2306762716641D-01 -3.1104858670650D-01
31  3.0000000000000D-01  9.6025784511415D-01 -2.8081572531730D-01
32  3.1000000000000D-01  9.9638097802660D-01 -2.4759245834939D-01
33  3.2000000000000D-01  1.0314083577669D+00 -2.1185368019443D-01
34  3.3000000000000D-01  1.0653239432337D+00 -1.7411950973420D-01
35  3.4000000000000D-01  1.0981226608984D+00 -1.3494634998529D-01
36  3.5000000000000D-01  1.1298085637004D+00 -9.4917219543537D-02
37  3.6000000000000D-01  1.1603928442885D+00 -5.4631513946905D-02
38  3.7000000000000D-01  1.1898917412585D+00 -1.4694366136806D-02
39  3.8000000000000D-01  1.2183243790582D+00  2.4294216446443D-02
40  3.9000000000000D-01  1.2457105835803D+00  6.1750255108357D-02
41  4.0000000000000D-01  1.2720687161042D+00  9.7116557954930D-02
42  4.1000000000000D-01  1.2974135681731D+00  1.2987314777043D-01
43  4.2000000000000D-01  1.3217543591868D+00  1.5954717835056D-01