Ni    ONCVPSP  r_core=  1.31  1.51  1.80
28.0000     18.0000      140827    zatom,zion,pspd
8    11     2     4   601     0    pspcod,pspxc,lmax,lloc,mmax,r2well
6.00000000  0.15000000  0.00000000    rchrg fchrg qchrg
2     2     2     0     0    nproj
0                 extension_switch
0                         5.8217250526842D+00 -4.3331659020941D-01
1  0.0000000000000D+00 -0.0000000000000D+00  0.0000000000000D+00
2  1.0000000000000D-02 -1.0415852823643D-01  2.0874703954709D-02
3  2.0000000000000D-02 -2.0795056912031D-01  4.1745390198288D-02
4  3.0000000000000D-02 -3.1101098820145D-01  6.2607717668424D-02
5  4.0000000000000D-02 -4.1297735379285D-01  8.3456705682237D-02
6  5.0000000000000D-02 -5.1349128071959D-01  1.0428643172167D-01
7  6.0000000000000D-02 -6.1219976482842D-01  1.2508975003016D-01
8  7.0000000000000D-02 -7.0875650504472D-01  1.4585803745665D-01
9  8.0000000000000D-02 -8.0282320966005D-01  1.6658097256030D-01
10  9.0000000000000D-02 -8.9407088338429D-01  1.8724635347593D-01
11  1.0000000000000D-01 -9.8218109158702D-01  2.0783995942874D-01
12  1.1000000000000D-01 -1.0668471979248D+00  2.2834546011191D-01
13  1.2000000000000D-01 -1.1477755714371D+00  2.4874437637429D-01
14  1.3000000000000D-01 -1.2246867589070D+00  2.6901609485274D-01
15  1.4000000000000D-01 -1.2973166184033D+00  2.8913793831394D-01
16  1.5000000000000D-01 -1.3654174090393D+00  3.0908529255740D-01
17  1.6000000000000D-01 -1.4287588330033D+00  3.2883178983264D-01
18  1.7000000000000D-01 -1.4871290239688D+00  3.4834954765149D-01
19  1.8000000000000D-01 -1.5403354781442D+00  3.6760946112959D-01
20  1.9000000000000D-01 -1.5882059223835D+00  3.8658154598046D-01
21  2.0000000000000D-01 -1.6305891133821D+00  4.0523532806814D-01
22  2.1000000000000D-01 -1.6673555641839D+00  4.2354027512343D-01
23  2.2000000000000D-01 -1.6983981917167D+00  4.4146626482535D-01
24  2.3000000000000D-01 -1.7236328812954D+00  4.5898408340189D-01
25  2.4000000000000D-01 -1.7429989616855D+00  4.7606594718190D-01
26  2.5000000000000D-01 -1.7564595858758D+00  4.9268603897814D-01
27  2.6000000000000D-01 -1.7640020168870D+00  5.0882105477921D-01
28  2.7000000000000D-01 -1.7656378062971D+00  5.2445074584383D-01
29  2.8000000000000D-01 -1.7614028688425D+00  5.3955845293738D-01
30  2.9000000000000D-01 -1.7513574464780D+00  5.5413162200056D-01
31  3.0000000000000D-01 -1.7355859583808D+00  5.6816229171006D-01
32  3.1000000000000D-01 -1.7141967345922D+00  5.8164754436689D-01
33  3.2000000000000D-01 -1.6873216310417D+00  5.9458991104079D-01
34  3.3000000000000D-01 -1.6551155268877D+00  6.0699771807896D-01
35  3.4000000000000D-01 -1.6177556964962D+00  6.1888538831997D-01
36  3.5000000000000D-01 -1.5754410700876D+00  6.3027364458878D-01
37  3.6000000000000D-01 -1.5283913588402D+00  6.4118966962814D-01
38  3.7000000000000D-01 -1.4768460870594D+00  6.5166715206143D-01
39  3.8000000000000D-01 -1.4210634789635D+00  6.6174627307426D-01
40  3.9000000000000D-01 -1.3613192532308D+00  6.7147358390340D-01
41  4.0000000000000D-01 -1.2979053089545D+00  6.8090179431132D-01
42  4.1000000000000D-01 -1.2311283026865D+00  6.9008946711945D-01
43  4.2000000000000D-01 -1.1613081312296D+00  6.9910061486352D-01
44  4.3000000000000D-01 -1.0887763253248D+00  7.0800420056774D-01
45  4.4000000000000D-01 -1.0138743619699D+00  7.1687354467785D-01
46  4.5000000000000D-01 -9.3695190392052D-01  7.2578564136903D-01
47  4.6000000000000D-01 -8.5836497599625D-01  7.3482038873853D-01
48  4.7000000000000D-01 -7.7847408926853D-01  7.4405973891712D-01
49  4.8000000000000D-01 -6.9764232613777D-01  7.5358677601153D-01
50  4.9000000000000D-01 -6.1623347030885D-01  7.6348475697516D-01
51  5.0000000000000D-01 -5.3460984818967D-01  7.7383600462594D-01
52  5.1000000000000D-01 -4.5313051131665D-01  7.8472086612721D-01
53  5.2000000000000D-01 -3.7214938157847D-01  7.9621664387758D-01
54  5.3000000000000D-01 -2.9201301725746D-01  8.0839633635437D-01
55  5.4000000000000D-01 -2.1305892407855D-01  8.2132757137007D-01
56  5.5000000000000D-01 -1.3561381299294D-01  8.3507152527045D-01
57  5.6000000000000D-01 -5.9991342144087D-02  8.4968157771214D-01
58  5.7000000000000D-01  1.3508837231340D-02  8.6520259068106D-01
59  5.8000000000000D-01  8.4603646191761D-02  8.8166940719431D-01
60  5.9000000000000D-01  1.5302710302127D-01  8.9910637595586D-01
61  6.0000000000000D-01  2.1853261277545D-01  9.1752600349676D-01
62  6.1000000000000D-01  2.8089368243639D-01  9.3692843927077D-01
63  6.2000000000000D-01  3.3990508361697D-01  9.5730076594230D-01
64  6.3000000000000D-01  3.9538443953611D-01  9.7861609965836D-01
65  6.4000000000000D-01  4.4717221727993D-01  1.0008335835478D+00
66  6.5000000000000D-01  4.9513294452354D-01  1.0238977805635D+00
67  6.6000000000000D-01  5.3915587649997D-01  1.0477384206607D+00
68  6.7000000000000D-01  5.7915487341554D-01  1.0722706227326D+00
69  6.8000000000000D-01  6.1506855796787D-01  1.0973950201001D+00
70  6.9000000000000D-01  6.4686100689214D-01  1.1229977238127D+00
71  7.0000000000000D-01  6.7452091242079D-01  1.1489511091143D+00
72  7.1000000000000D-01  6.9806137173448D-01  1.1751143663087D+00
73  7.2000000000000D-01  7.1751938240051D-01  1.2013342770512D+00
74  7.3000000000000D-01  7.3295506788726D-01  1.2274461678051D+00
75  7.4000000000000D-01  7.4445114127791D-01  1.2532749691270D+00
76  7.5000000000000D-01  7.5211149146114D-01  1.2786365711705D+00
77  7.6000000000000D-01  7.5606014846958D-01  1.3033391844940D+00
78  7.7000000000000D-01  7.5643997453682D-01  1.3271848709701D+00
79  7.8000000000000D-01  7.5341122650213D-01  1.3499711932244D+00
80  7.9000000000000D-01  7.4715000239258D-01  1.3714929682588D+00
81  8.0000000000000D-01  7.3784658608876D-01  1.3915441094099D+00
82  8.1000000000000D-01  7.2570370490873D-01  1.4099195394638D+00
83  8.2000000000000D-01  7.1093471571954D-01  1.4264171566044D+00
84  8.3000000000000D-01  6.9376173580720D-01  1.4408398339247D+00
85  8.4000000000000D-01  6.7441373520635D-01  1.4529974324753D+00
86  8.5000000000000D-01  6.5312460751472D-01  1.4627088072691D+00
87  8.6000000000000D-01  6.3013123640136D-01  1.4698037852979D+00
88  8.7000000000000D-01  6.0567157506631D-01  1.4741250944498D+00
89  8.8000000000000D-01  5.7998275582731D-01  1.4755302222355D+00
90  8.9000000000000D-01  5.5329924679653D-01  1.4738931834589D+00
91  9.0000000000000D-01  5.2585107226274D-01  1.4691061763948D+00
92  9.1000000000000D-01  4.9786211290067D-01  1.4610811076929D+00
93  9.2000000000000D-01  4.6954850127353D-01  1.4497509671416D+00
94  9.3000000000000D-01  4.4111712725088D-01  1.4350710346226D+00
95  9.4000000000000D-01  4.1276426690462D-01  1.4170199031194D+00
96  9.5000000000000D-01  3.8467434713729D-01  1.3956003035469D+00
97  9.6000000000000D-01  3.5701885670776D-01  1.3708397194886D+00
98  9.7000000000000D-01  3.2995544405675D-01  1.3427907519667D+00
99  9.8000000000000D-01  3.0362782062389D-01  1.3115306705871D+00
100  9.9000000000000D-01  2.7816289166019D-01  1.2771635208403D+00
101  1.0000000000000D+00  2.5367251082436D-01  1.2398176516582D+00
102  1.0100000000000D+00  2.3025253680903D-01  1.1996458665488D+00
103  1.0200000000000D+00  2.0798274784681D-01  1.1568246526912D+00
104  1.0300000000000D+00  1.8692692469550D-01  1.1115531908108D+00
105  1.0400000000000D+00  1.6713395963618D-01  1.0640516879986D+00
106  1.0500000000000D+00  1.4863549369512D-01  1.0145617381040D+00
107  1.0600000000000D+00  1.3144894465605D-01  9.6334286604691D-01
108  1.0700000000000D+00  1.1557778610802D-01  9.1067111839788D-01
109  1.0800000000000D+00  1.0101223380839D-01  8.5683723111594D-01
110  1.0900000000000D+00  8.7730868396900D-02  8.0214498903707D-01
111  1.1000000000000D+00  7.5699021438848D-02  7.4690843199418D-01
112  1.1100000000000D+00  6.4872967791276D-02  6.9144929646052D-01
113  1.1200000000000D+00  5.5200170530032D-02  6.3609489378454D-01
114  1.1300000000000D+00  4.6620602255241D-02  5.8117718834059D-01
115  1.1400000000000D+00  3.9067257171575D-02  5.2702695010220D-01
116  1.1500000000000D+00  3.2468810541880D-02  4.7397284286590D-01
117  1.1600000000000D+00  2.6750579018651D-02  4.2233962449480D-01
118  1.1700000000000D+00  2.1834981329476D-02  3.7244867022977D-01
119  1.1800000000000D+00  1.7644759409808D-02  3.2460582519409D-01
120  1.1900000000000D+00  1.4103204468304D-02  2.7910782955516D-01
121  1.2000000000000D+00  1.1134492814532D-02  2.3624114085613D-01
122  1.2100000000000D+00  8.6665232260002D-03  1.9627366208727D-01
123  1.2200000000000D+00  6.6324734549822D-03  1.5945316117110D-01
124  1.2300000000000D+00  4.9692319906234D-03  1.2601310464827D-01
125  1.2400000000000D+00  3.6192503283978D-03  9.6167509745359D-02
126  1.2500000000000D+00  2.5347477640980D-03  7.0101013646653D-02
127  1.2600000000000D+00  1.6731076915479D-03  4.7982118606170D-02
128  1.2700000000000D+00  9.9809976420331D-04  2.9960421988306D-02
129  1.2800000000000D+00  4.8898255262260D-04  1.6139697133178D-02
130  1.2900000000000D+00  1.3282324503495D-04  6.5990308203874D-03
131  1.3000000000000D+00 -6.2011592188275D-05  1.7164821107626D-03
132  1.3100000000000D+00 -1.0296725949602D-04 -5.8137192123240D-06
133  1.3200000000000D+00 -2.4592989749427D-05 -1.0939644746027D-04
134  1.3300000000000D+00  7.4682053700109D-06 -1.9079929502645D-05
135  1.3400000000000D+00  0.0000000000000D+00  0.0000000000000D+00
136  1.3500000000000D+00  0.0000000000000D+00  0.0000000000000D+00
137  1.3600000000000D+00  0.0000000000000D+00  0.0000000000000D+00
138  1.3700000000000D+00  0.0000000000000D+00  0.0000000000000D+00
139  1.3800000000000D+00  0.0000000000000D+00  0.0000000000000D+00
140  1.3900000000000D+00  0.0000000000000D+00  0.0000000000000D+00
141  1.4000000000000D+00  0.0000000000000D+00  0.0000000000000D+00
142  1.4100000000000D+00  0.0000000000000D+00  0.0000000000000D+00
143  1.4200000000000D+00  0.0000000000000D+00  0.0000000000000D+00
144  1.4300000000000D+00  0.0000000000000D+00  0.0000000000000D+00
145  1.4400000000000D+00  0.0000000000000D+00  0.0000000000000D+00
146  1.4500000000000D+00  0.0000000000000D+00  0.0000000000000D+00
147  1.4600000000000D+00  0.0000000000000D+00  0.0000000000000D+00
148  1.4700000000000D+00  0.0000000000000D+00  0.0000000000000D+00
149  1.4800000000000D+00  0.0000000000000D+00  0.0000000000000D+00
150  1.4900000000000D+00  0.0000000000000D+00  0.0000000000000D+00
151  1.5000000000000D+00  0.0000000000000D+00  0.0000000000000D+00
152  1.5100000000000D+00  0.0000000000000D+00  0.0000000000000D+00
153  1.5200000000000D+00  0.0000000000000D+00  0.0000000000000D+00
154  1.5300000000000D+00  0.0000000000000D+00  0.0000000000000D+00
155  1.5400000000000D+00  0.0000000000000D+00  0.0000000000000D+00
156  1.5500000000000D+00  0.0000000000000D+00  0.0000000000000D+00
157  1.5600000000000D+00  0.0000000000000D+00  0.0000000000000D+00
158  1.5700000000000D+00  0.0000000000000D+00  0.0000000000000D+00
159  1.5800000000000D+00  0.0000000000000D+00  0.0000000000000D+00
160  1.5900000000000D+00  0.0000000000000D+00  0.0000000000000D+00
161  1.6000000000000D+00  0.0000000000000D+00  0.0000000000000D+00
162  1.6100000000000D+00  0.0000000000000D+00  0.0000000000000D+00
163  1.6200000000000D+00  0.0000000000000D+00  0.0000000000000D+00
164  1.6300000000000D+00  0.0000000000000D+00  0.0000000000000D+00
165  1.6400000000000D+00  0.0000000000000D+00  0.0000000000000D+00
166  1.6500000000000D+00  0.0000000000000D+00  0.0000000000000D+00
167  1.6600000000000D+00  0.0000000000000D+00  0.0000000000000D+00
168  1.6700000000000D+00  0.0000000000000D+00  0.0000000000000D+00
169  1.6800000000000D+00  0.0000000000000D+00  0.0000000000000D+00
170  1.6900000000000D+00  0.0000000000000D+00  0.0000000000000D+00
171  1.7000000000000D+00  0.0000000000000D+00  0.0000000000000D+00
172  1.7100000000000D+00  0.0000000000000D+00  0.0000000000000D+00
173  1.7200000000000D+00  0.0000000000000D+00  0.0000000000000D+00
174  1.7300000000000D+00  0.0000000000000D+00  0.0000000000000D+00
175  1.7400000000000D+00  0.0000000000000D+00  0.0000000000000D+00
176  1.7500000000000D+00  0.0000000000000D+00  0.0000000000000D+00
177  1.7600000000000D+00  0.0000000000000D+00  0.0000000000000D+00
178  1.7700000000000D+00  0.0000000000000D+00  0.0000000000000D+00
179  1.7800000000000D+00  0.0000000000000D+00  0.0000000000000D+00
180  1.7900000000000D+00  0.0000000000000D+00  0.0000000000000D+00
181  1.8000000000000D+00  0.0000000000000D+00  0.0000000000000D+00
182  1.8100000000000D+00  0.0000000000000D+00  0.0000000000000D+00
183  1.8200000000000D+00  0.0000000000000D+00  0.0000000000000D+00
184  1.8300000000000D+00  0.0000000000000D+00  0.0000000000000D+00
185  1.8400000000000D+00  0.0000000000000D+00  0.0000000000000D+00
186  1.8500000000000D+00  0.0000000000000D+00  0.0000000000000D+00
187  1.8600000000000D+00  0.0000000000000D+00  0.0000000000000D+00
188  1.8700000000000D+00  0.0000000000000D+00  0.0000000000000D+00
189  1.8800000000000D+00  0.0000000000000D+00  0.0000000000000D+00
190  1.8900000000000D+00  0.0000000000000D+00  0.0000000000000D+00
191  1.9000000000000D+00  0.0000000000000D+00  0.0000000000000D+00
192  1.9100000000000D+00  0.0000000000000D+00  0.0000000000000D+00
193  1.9200000000000D+00  0.0000000000000D+00  0.0000000000000D+00
194  1.9300000000000D+00  0.0000000000000D+00  0.0000000000000D+00
195  1.9400000000000D+00  0.0000000000000D+00  0.0000000000000D+00
196  1.9500000000000D+00  0.0000000000000D+00  0.0000000000000D+00
197  1.9600000000000D+00  0.0000000000000D+00  0.0000000000000D+00
198  1.9700000000000D+00  0.0000000000000D+00  0.0000000000000D+00
199  1.9800000000000D+00  0.0000000000000D+00  0.0000000000000D+00
200  1.9900000000000D+00  0.0000000000000D+00  0.0000000000000D+00
201  2.0000000000000D+00  0.0000000000000D+00  0.0000000000000D+00
202  2.0100000000000D+00  0.0000000000000D+00  0.0000000000000D+00
203  2.0200000000000D+00  0.0000000000000D+00  0.0000000000000D+00
204  2.0300000000000D+00  0.0000000000000D+00  0.0000000000000D+00
205  2.0400000000000D+00  0.0000000000000D+00  0.0000000000000D+00
206  2.0500000000000D+00  0.0000000000000D+00  0.0000000000000D+00
207  2.0600000000000D+00  0.0000000000000D+00  0.0000000000000D+00
208  2.0700000000000D+00  0.0000000000000D+00  0.0000000000000D+00
209  2.0800000000000D+00  0.0000000000000D+00  0.0000000000000D+00
210  2.0900000000000D+00  0.0000000000000D+00  0.0000000000000D+00
211  2.1000000000000D+00  0.0000000000000D+00  0.0000000000000D+00
212  2.1100000000000D+00  0.0000000000000D+00  0.0000000000000D+00
213  2.1200000000000D+00  0.0000000000000D+00  0.0000000000000D+00
214  2.1300000000000D+00  0.0000000000000D+00  0.0000000000000D+00
215  2.1400000000000D+00  0.0000000000000D+00  0.0000000000000D+00
216  2.1500000000000D+00  0.0000000000000D+00  0.0000000000000D+00
217  2.1600000000000D+00  0.0000000000000D+00  0.0000000000000D+00
218  2.1700000000000D+00  0.0000000000000D+00  0.0000000000000D+00
219  2.1800000000000D+00  0.0000000000000D+00  0.0000000000000D+00
220  2.1900000000000D+00  0.0000000000000D+00  0.0000000000000D+00
221  2.2000000000000D+00  0.0000000000000D+00  0.0000000000000D+00
222  2.2100000000000D+00  0.0000000000000D+00  0.0000000000000D+00
223  2.2200000000000D+00  0.0000000000000D+00  0.0000000000000D+00
224  2.2300000000000D+00  0.0000000000000D+00  0.0000000000000D+00
225  2.2400000000000D+00  0.0000000000000D+00  0.0000000000000D+00
226  2.2500000000000D+00  0.0000000000000D+00  0.0000000000000D+00
227  2.2600000000000D+00  0.0000000000000D+00  0.0000000000000D+00
228  2.2700000000000D+00  0.0000000000000D+00  0.0000000000000D+00
229  2.2800000000000D+00  0.0000000000000D+00  0.0000000000000D+00
230  2.2900000000000D+00  0.0000000000000D+00  0.0000000000000D+00
231  2.3000000000000D+00  0.0000000000000D+00  0.0000000000000D+00
232  2.3100000000000D+00  0.0000000000000D+00  0.0000000000000D+00
233  2.3200000000000D+00  0.0000000000000D+00  0.0000000000000D+00
234  2.3300000000000D+00  0.0000000000000D+00  0.0000000000000D+00
235  2.3400000000000D+00  0.0000000000000D+00  0.0000000000000D+00
236  2.3500000000000D+00  0.0000000000000D+00  0.0000000000000D+00
237  2.3600000000000D+00  0.0000000000000D+00  0.0000000000000D+00
238  2.3700000000000D+00  0.0000000000000D+00  0.0000000000000D+00
239  2.3800000000000D+00  0.0000000000000D+00  0.0000000000000D+00
240  2.3900000000000D+00  0.0000000000000D+00  0.0000000000000D+00
241  2.4000000000000D+00  0.0000000000000D+00  0.0000000000000D+00
242  2.4100000000000D+00  0.0000000000000D+00  0.0000000000000D+00
243  2.4200000000000D+00  0.0000000000000D+00  0.0000000000000D+00
244  2.4300000000000D+00  0.0000000000000D+00  0.0000000000000D+00
245  2.4400000000000D+00  0.0000000000000D+00  0.0000000000000D+00
246  2.4500000000000D+00  0.0000000000000D+00  0.0000000000000D+00
247  2.4600000000000D+00  0.0000000000000D+00  0.0000000000000D+00
248  2.4700000000000D+00  0.0000000000000D+00  0.0000000000000D+00
249  2.4800000000000D+00  0.0000000000000D+00  0.0000000000000D+00
250  2.4900000000000D+00  0.0000000000000D+00  0.0000000000000D+00
251  2.5000000000000D+00  0.0000000000000D+00  0.0000000000000D+00
252  2.5100000000000D+00  0.0000000000000D+00  0.0000000000000D+00
253  2.5200000000000D+00  0.0000000000000D+00  0.0000000000000D+00
254  2.5300000000000D+00  0.0000000000000D+00  0.0000000000000D+00
255  2.5400000000000D+00  0.0000000000000D+00  0.0000000000000D+00
256  2.5500000000000D+00  0.0000000000000D+00  0.0000000000000D+00
257  2.5600000000000D+00  0.0000000000000D+00  0.0000000000000D+00
258  2.5700000000000D+00  0.0000000000000D+00  0.0000000000000D+00
259  2.5800000000000D+00  0.0000000000000D+00  0.0000000000000D+00
260  2.5900000000000D+00  0.0000000000000D+00  0.0000000000000D+00
261  2.6000000000000D+00  0.0000000000000D+00  0.0000000000000D+00
262  2.6100000000000D+00  0.0000000000000D+00  0.0000000000000D+00
263  2.6200000000000D+00  0.0000000000000D+00  0.0000000000000D+00
264  2.6300000000000D+00  0.0000000000000D+00  0.0000000000000D+00
265  2.6400000000000D+00  0.0000000000000D+00  0.0000000000000D+00
266  2.6500000000000D+00  0.0000000000000D+00  0.0000000000000D+00
267  2.6600000000000D+00  0.0000000000000D+00  0.0000000000000D+00
268  2.6700000000000D+00  0.0000000000000D+00  0.0000000000000D+00
269  2.6800000000000D+00  0.0000000000000D+00  0.0000000000000D+00
270  2.6900000000000D+00  0.0000000000000D+00  0.0000000000000D+00
271  2.7000000000000D+00  0.0000000000000D+00  0.0000000000000D+00
272  2.7100000000000D+00  0.0000000000000D+00  0.0000000000000D+00
273  2.7200000000000D+00  0.0000000000000D+00  0.0000000000000D+00
274  2.7300000000000D+00  0.0000000000000D+00  0.0000000000000D+00
275  2.7400000000000D+00  0.0000000000000D+00  0.0000000000000D+00
276  2.7500000000000D+00  0.0000000000000D+00  0.0000000000000D+00
277  2.7600000000000D+00  0.0000000000000D+00  0.0000000000000D+00
278  2.7700000000000D+00  0.0000000000000D+00  0.0000000000000D+00
279  2.7800000000000D+00  0.0000000000000D+00  0.0000000000000D+00
280  2.7900000000000D+00  0.0000000000000D+00  0.0000000000000D+00
281  2.8000000000000D+00  0.0000000000000D+00  0.0000000000000D+00
282  2.8100000000000D+00  0.0000000000000D+00  0.0000000000000D+00
283  2.8200000000000D+00  0.0000000000000D+00  0.0000000000000D+00
284  2.8300000000000D+00  0.0000000000000D+00  0.0000000000000D+00
285  2.8400000000000D+00  0.0000000000000D+00  0.0000000000000D+00
286  2.8500000000000D+00  0.0000000000000D+00  0.0000000000000D+00
287  2.8600000000000D+00  0.0000000000000D+00  0.0000000000000D+00
288  2.8700000000000D+00  0.0000000000000D+00  0.0000000000000D+00
289  2.8800000000000D+00  0.0000000000000D+00  0.0000000000000D+00
290  2.8900000000000D+00  0.0000000000000D+00  0.0000000000000D+00
291  2.9000000000000D+00  0.0000000000000D+00  0.0000000000000D+00
292  2.9100000000000D+00  0.0000000000000D+00  0.0000000000000D+00
293  2.9200000000000D+00  0.0000000000000D+00  0.0000000000000D+00
294  2.9300000000000D+00  0.0000000000000D+00  0.0000000000000D+00
295  2.9400000000000D+00  0.0000000000000D+00  0.0000000000000D+00
296  2.9500000000000D+00  0.0000000000000D+00  0.0000000000000D+00
297  2.9600000000000D+00  0.0000000000000D+00  0.0000000000000D+00
298  2.9700000000000D+00  0.0000000000000D+00  0.0000000000000D+00
299  2.9800000000000D+00  0.0000000000000D+00  0.0000000000000D+00
300  2.9900000000000D+00  0.0000000000000D+00  0.0000000000000D+00
301  3.0000000000000D+00  0.0000000000000D+00  0.0000000000000D+00
302  3.0100000000000D+00  0.0000000000000D+00  0.0000000000000D+00
303  3.0200000000000D+00  0.0000000000000D+00  0.0000000000000D+00
304  3.0300000000000D+00  0.0000000000000D+00  0.0000000000000D+00
305  3.0400000000000D+00  0.0000000000000D+00  0.0000000000000D+00
306  3.0500000000000D+00  0.0000000000000D+00  0.0000000000000D+00
307  3.0600000000000D+00  0.0000000000000D+00  0.0000000000000D+00
308  3.0700000000000D+00  0.0000000000000D+00  0.0000000000000D+00
309  3.0800000000000D+00  0.0000000000000D+00  0.0000000000000D+00
310  3.0900000000000D+00  0.0000000000000D+00  0.0000000000000D+00
311  3.1000000000000D+00  0.0000000000000D+00  0.0000000000000D+00
312  3.1100000000000D+00  0.0000000000000D+00  0.0000000000000D+00
313  3.1200000000000D+00  0.0000000000000D+00  0.0000000000000D+00
314  3.1300000000000D+00  0.0000000000000D+00  0.0000000000000D+00
315  3.1400000000000D+00  0.0000000000000D+00  0.0000000000000D+00
316  3.1500000000000D+00  0.0000000000000D+00  0.0000000000000D+00
317  3.1600000000000D+00  0.0000000000000D+00  0.0000000000000D+00
318  3.1700000000000D+00  0.0000000000000D+00  0.0000000000000D+00
319  3.1800000000000D+00  0.0000000000000D+00  0.0000000000000D+00
320  3.1900000000000D+00  0.0000000000000D+00  0.0000000000000D+00
321  3.2000000000000D+00  0.0000000000000D+00  0.0000000000000D+00
322  3.2100000000000D+00  0.0000000000000D+00  0.0000000000000D+00
323  3.2200000000000D+00  0.0000000000000D+00  0.0000000000000D+00
324  3.2300000000000D+00  0.0000000000000D+00  0.0000000000000D+00
325  3.2400000000000D+00  0.0000000000000D+00  0.0000000000000D+00
326  3.2500000000000D+00  0.0000000000000D+00  0.0000000000000D+00
327  3.2600000000000D+00  0.0000000000000D+00  0.0000000000000D+00
328  3.2700000000000D+00  0.0000000000000D+00  0.0000000000000D+00
329  3.2800000000000D+00  0.0000000000000D+00  0.0000000000000D+00
330  3.2900000000000D+00  0.0000000000000D+00  0.0000000000000D+00
331  3.3000000000000D+00  0.0000000000000D+00  0.0000000000000D+00
332  3.3100000000000D+00  0.0000000000000D+00  0.0000000000000D+00
333  3.3200000000000D+00  0.0000000000000D+00  0.0000000000000D+00
334  3.3300000000000D+00  0.0000000000000D+00  0.0000000000000D+00
335  3.3400000000000D+00  0.0000000000000D+00  0.0000000000000D+00
336  3.3500000000000D+00  0.0000000000000D+00  0.0000000000000D+00
337  3.3600000000000D+00  0.0000000000000D+00  0.0000000000000D+00
338  3.3700000000000D+00  0.0000000000000D+00  0.0000000000000D+00
339  3.3800000000000D+00  0.0000000000000D+00  0.0000000000000D+00
340  3.3900000000000D+00  0.0000000000000D+00  0.0000000000000D+00
341  3.4000000000000D+00  0.0000000000000D+00  0.0000000000000D+00
342  3.4100000000000D+00  0.0000000000000D+00  0.0000000000000D+00
343  3.4200000000000D+00  0.0000000000000D+00  0.0000000000000D+00
344  3.4300000000000D+00  0.0000000000000D+00  0.0000000000000D+00
345  3.4400000000000D+00  0.0000000000000D+00  0.0000000000000D+00
346  3.4500000000000D+00  0.0000000000000D+00  0.0000000000000D+00
347  3.4600000000000D+00  0.0000000000000D+00  0.0000000000000D+00
348  3.4700000000000D+00  0.0000000000000D+00  0.0000000000000D+00
349  3.4800000000000D+00  0.0000000000000D+00  0.0000000000000D+00
350  3.4900000000000D+00  0.0000000000000D+00  0.0000000000000D+00
351  3.5000000000000D+00  0.0000000000000D+00  0.0000000000000D+00
352  3.5100000000000D+00  0.0000000000000D+00  0.0000000000000D+00
353  3.5200000000000D+00  0.0000000000000D+00  0.0000000000000D+00
354  3.5300000000000D+00  0.0000000000000D+00  0.0000000000000D+00
355  3.5400000000000D+00  0.0000000000000D+00  0.0000000000000D+00
356  3.5500000000000D+00  0.0000000000000D+00  0.0000000000000D+00
357  3.5600000000000D+00  0.0000000000000D+00  0.0000000000000D+00
358  3.5700000000000D+00  0.0000000000000D+00  0.0000000000000D+00
359  3.5800000000000D+00  0.0000000000000D+00  0.0000000000000D+00
360  3.5900000000000D+00  0.0000000000000D+00  0.0000000000000D+00
361  3.6000000000000D+00  0.0000000000000D+00  0.0000000000000D+00
362  3.6100000000000D+00  0.0000000000000D+00  0.0000000000000D+00
363  3.6200000000000D+00  0.0000000000000D+00  0.0000000000000D+00
364  3.6300000000000D+00  0.0000000000000D+00  0.0000000000000D+00
365  3.6400000000000D+00  0.0000000000000D+00  0.0000000000000D+00
366  3.6500000000000D+00  0.0000000000000D+00  0.0000000000000D+00
367  3.6600000000000D+00  0.0000000000000D+00  0.0000000000000D+00
368  3.6700000000000D+00  0.0000000000000D+00  0.0000000000000D+00
369  3.6800000000000D+00  0.0000000000000D+00  0.0000000000000D+00
370  3.6900000000000D+00  0.0000000000000D+00  0.0000000000000D+00
371  3.7000000000000D+00  0.0000000000000D+00  0.0000000000000D+00
372  3.7100000000000D+00  0.0000000000000D+00  0.0000000000000D+00
373  3.7200000000000D+00  0.0000000000000D+00  0.0000000000000D+00
374  3.7300000000000D+00  0.0000000000000D+00  0.0000000000000D+00
375  3.7400000000000D+00  0.0000000000000D+00  0.0000000000000D+00
376  3.7500000000000D+00  0.0000000000000D+00  0.0000000000000D+00
377  3.7600000000000D+00  0.0000000000000D+00  0.0000000000000D+00
378  3.7700000000000D+00  0.0000000000000D+00  0.0000000000000D+00
379  3.7800000000000D+00  0.0000000000000D+00  0.0000000000000D+00
380  3.7900000000000D+00  0.0000000000000D+00  0.0000000000000D+00
381  3.8000000000000D+00  0.0000000000000D+00  0.0000000000000D+00
382  3.8100000000000D+00  0.0000000000000D+00  0.0000000000000D+00
383  3.8200000000000D+00  0.0000000000000D+00  0.0000000000000D+00
384  3.8300000000000D+00  0.0000000000000D+00  0.0000000000000D+00
385  3.8400000000000D+00  0.0000000000000D+00  0.0000000000000D+00
386  3.8500000000000D+00  0.0000000000000D+00  0.0000000000000D+00
387  3.8600000000000D+00  0.0000000000000D+00  0.0000000000000D+00
388  3.8700000000000D+00  0.0000000000000D+00  0.0000000000000D+00
389  3.8800000000000D+00  0.0000000000000D+00  0.0000000000000D+00
390  3.8900000000000D+00  0.0000000000000D+00  0.0000000000000D+00
391  3.9000000000000D+00  0.0000000000000D+00  0.0000000000000D+00
392  3.9100000000000D+00  0.0000000000000D+00  0.0000000000000D+00
393  3.9200000000000D+00  0.0000000000000D+00  0.0000000000000D+00
394  3.9300000000000D+00  0.0000000000000D+00  0.0000000000000D+00
395  3.9400000000000D+00  0.0000000000000D+00  0.0000000000000D+00
396  3.9500000000000D+00  0.0000000000000D+00  0.0000000000000D+00
397  3.9600000000000D+00  0.0000000000000D+00  0.0000000000000D+00
398  3.9700000000000D+00  0.0000000000000D+00  0.0000000000000D+00
399  3.9800000000000D+00  0.0000000000000D+00  0.0000000000000D+00
400  3.9900000000000D+00  0.0000000000000D+00  0.0000000000000D+00
401  4.0000000000000D+00  0.0000000000000D+00  0.0000000000000D+00
402  4.0100000000000D+00  0.0000000000000D+00  0.0000000000000D+00
403  4.0200000000000D+00  0.0000000000000D+00  0.0000000000000D+00
404  4.0300000000000D+00  0.0000000000000D+00  0.0000000000000D+00
405  4.0400000000000D+00  0.0000000000000D+00  0.0000000000000D+00
406  4.0500000000000D+00  0.0000000000000D+00  0.0000000000000D+00
407  4.0600000000000D+00  0.0000000000000D+00  0.0000000000000D+00
408  4.0700000000000D+00  0.0000000000000D+00  0.0000000000000D+00
409  4.0800000000000D+00  0.0000000000000D+00  0.0000000000000D+00
410  4.0900000000000D+00  0.0000000000000D+00  0.0000000000000D+00
411  4.1000000000000D+00  0.0000000000000D+00  0.0000000000000D+00
412  4.1100000000000D+00  0.0000000000000D+00  0.0000000000000D+00
413  4.1200000000000D+00  0.0000000000000D+00  0.0000000000000D+00
414  4.1300000000000D+00  0.0000000000000D+00  0.0000000000000D+00
415  4.1400000000000D+00  0.0000000000000D+00  0.0000000000000D+00
416  4.1500000000000D+00  0.0000000000000D+00  0.0000000000000D+00
417  4.1600000000000D+00  0.0000000000000D+00  0.0000000000000D+00
418  4.1700000000000D+00  0.0000000000000D+00  0.0000000000000D+00
419  4.1800000000000D+00  0.0000000000000D+00  0.0000000000000D+00
420  4.1900000000000D+00  0.0000000000000D+00  0.0000000000000D+00
421  4.2000000000000D+00  0.0000000000000D+00  0.0000000000000D+00
422  4.2100000000000D+00  0.0000000000000D+00  0.0000000000000D+00
423  4.2200000000000D+00  0.0000000000000D+00  0.0000000000000D+00
424  4.2300000000000D+00  0.0000000000000D+00  0.0000000000000D+00
425  4.2400000000000D+00  0.0000000000000D+00  0.0000000000000D+00
426  4.2500000000000D+00  0.0000000000000D+00  0.0000000000000D+00
427  4.2600000000000D+00  0.0000000000000D+00  0.0000000000000D+00
428  4.2700000000000D+00  0.0000000000000D+00  0.0000000000000D+00
429  4.2800000000000D+00  0.0000000000000D+00  0.0000000000000D+00
430  4.2900000000000D+00  0.0000000000000D+00  0.0000000000000D+00
431  4.3000000000000D+00  0.0000000000000D+00  0.0000000000000D+00
432  4.3100000000000D+00  0.0000000000000D+00  0.0000000000000D+00
433  4.3200000000000D+00  0.0000000000000D+00  0.0000000000000D+00
434  4.3300000000000D+00  0.0000000000000D+00  0.0000000000000D+00
435  4.3400000000000D+00  0.0000000000000D+00  0.0000000000000D+00
436  4.3500000000000D+00  0.0000000000000D+00  0.0000000000000D+00
437  4.3600000000000D+00  0.0000000000000D+00  0.0000000000000D+00
438  4.3700000000000D+00  0.0000000000000D+00  0.0000000000000D+00
439  4.3800000000000D+00  0.0000000000000D+00  0.0000000000000D+00
440  4.3900000000000D+00  0.0000000000000D+00  0.0000000000000D+00
441  4.4000000000000D+00  0.0000000000000D+00  0.0000000000000D+00
442  4.4100000000000D+00  0.0000000000000D+00  0.0000000000000D+00
443  4.4200000000000D+00  0.0000000000000D+00  0.0000000000000D+00
444  4.4300000000000D+00  0.0000000000000D+00  0.0000000000000D+00