Sb    ONCVPSP  r_core=  2.20  2.20  1.82
51.0000     15.0000      161103    zatom,zion,pspd
8      11   2     4   600     0    pspcod,pspxc,lmax,lloc,mmax,r2well
5.99000000  5.00000000  0.00000000    rchrg fchrg qchrg
2     2     2     0     0    nproj
1                 extension_switch
0                         6.7035745217258D+00  6.9925398368509D-01
1  0.0000000000000D+00  1.8370860388472D-12 -8.9450669094049D-13
2  1.0000000000000D-02  1.6611756964165D-02 -2.9420440643000D-03
3  2.0000000000000D-02  3.3230139410775D-02 -5.9110115560153D-03
4  3.0000000000000D-02  4.9861735232434D-02 -8.9336987855504D-03
5  4.0000000000000D-02  6.6513057255584D-02 -1.2036648174601D-02
6  5.0000000000000D-02  8.3190505990722D-02 -1.5246022174866D-02
7  6.0000000000000D-02  9.9900332721304D-02 -1.8587478221875D-02
8  7.0000000000000D-02  1.1664860304203D-01 -2.2086045068008D-02
9  8.0000000000000D-02  1.3344116095543D-01 -2.5766000837859D-02
10  9.0000000000000D-02  1.5028359363332D-01 -2.9650753148076D-02
11  1.0000000000000D-01  1.6718119694717D-01 -3.3762721632258D-02
12  1.1000000000000D-01  1.8413894186806D-01 -3.8123223209839D-02
13  1.2000000000000D-01  2.0116144183374D-01 -4.2752360435698D-02
14  1.3000000000000D-01  2.1825292117630D-01 -4.7668913264778D-02
15  1.4000000000000D-01  2.3541718469972D-01 -5.2890234562971D-02
16  1.5000000000000D-01  2.5265758849247D-01 -5.8432149692034D-02
17  1.6000000000000D-01  2.6997701205505D-01 -6.4308860492252D-02
18  1.7000000000000D-01  2.8737783181794D-01 -7.0532853981935D-02
19  1.8000000000000D-01  3.0486189611986D-01 -7.7114816087401D-02
20  1.9000000000000D-01  3.2243050171106D-01 -8.4063550711157D-02
21  2.0000000000000D-01  3.4008437184077D-01 -9.1385904438886D-02
22  2.1000000000000D-01  3.5782363598247D-01 -9.9086697178467D-02
23  2.2000000000000D-01  3.7564781124476D-01 -1.0716865901521D-01
24  2.3000000000000D-01  3.9355578551015D-01 -1.1563237355827D-01
25  2.4000000000000D-01  4.1154580233814D-01 -1.2447622804239D-01
26  2.5000000000000D-01  4.2961544766341D-01 -1.3369637043748D-01
27  2.6000000000000D-01  4.4776163831440D-01 -1.4328667380573D-01
28  2.7000000000000D-01  4.6598061237186D-01 -1.5323870813222D-01
29  2.8000000000000D-01  4.8426792138172D-01 -1.6354171983960D-01
30  2.9000000000000D-01  5.0261842443134D-01 -1.7418261918128D-01
31  3.0000000000000D-01  5.2102628409326D-01 -1.8514597568999D-01
32  3.1000000000000D-01  5.3948496423549D-01 -1.9641402183981D-01
33  3.2000000000000D-01  5.5798722969315D-01 -2.0796666505948D-01
34  3.3000000000000D-01  5.7652514779156D-01 -2.1978150821410D-01
35  3.4000000000000D-01  5.9509009170703D-01 -2.3183387864890D-01
36  3.5000000000000D-01  6.1367274564769D-01 -2.4409686586610D-01
37  3.6000000000000D-01  6.3226311183321D-01 -2.5654136787995D-01
38  3.7000000000000D-01  6.5085051924905D-01 -2.6913614626972D-01
39  3.8000000000000D-01  6.6942363414789D-01 -2.8184788992262D-01
40  3.9000000000000D-01  6.8797047226842D-01 -2.9464128743128D-01
41  4.0000000000000D-01  7.0647841273917D-01 -3.0747910808009D-01
42  4.1000000000000D-01  7.2493421363314D-01 -3.2032229132579D-01
43  4.2000000000000D-01  7.4332402913734D-01 -3.3313004464617D-01
44  4.3000000000000D-01  7.6163342829956D-01 -3.4585994959933D-01
45  4.4000000000000D-01  7.7984741531390D-01 -3.5846807590396D-01
46  4.5000000000000D-01  7.9795045130527D-01 -3.7090910331838D-01
47  4.6000000000000D-01  8.1592647757262D-01 -3.8313645106323D-01
48  4.7000000000000D-01  8.3375894024981D-01 -3.9510241449938D-01
49  4.8000000000000D-01  8.5143081634285D-01 -4.0675830873957D-01
50  4.9000000000000D-01  8.6892464110205D-01 -4.1805461883923D-01
51  5.0000000000000D-01  8.8622253668726D-01 -4.2894115617866D-01
52  5.1000000000000D-01  9.0330624208477D-01 -4.3936722061671D-01
53  5.2000000000000D-01  9.2015714423395D-01 -4.4928176796390D-01
54  5.3000000000000D-01  9.3675631032221D-01 -4.5863358229176D-01
55  5.4000000000000D-01  9.5308452120686D-01 -4.6737145256487D-01
56  5.5000000000000D-01  9.6912230592206D-01 -4.7544435305292D-01
57  5.6000000000000D-01  9.8484997722962D-01 -4.8280162695201D-01
58  5.7000000000000D-01  1.0002476681718D+00 -4.8939317261830D-01
59  5.8000000000000D-01  1.0152953695840D+00 -4.9516963179126D-01
60  5.9000000000000D-01  1.0299729685251D+00 -5.0008257916182D-01
61  6.0000000000000D-01  1.0442602875824D+00 -5.0408471261862D-01
62  6.1000000000000D-01  1.0581371250068D+00 -5.0713004348652D-01
63  6.2000000000000D-01  1.0715832956335D+00 -5.0917408605523D-01
64  6.3000000000000D-01  1.0845786725419D+00 -5.1017404568101D-01
65  6.4000000000000D-01  1.0971032294066D+00 -5.1008900473229D-01
66  6.5000000000000D-01  1.1091370834890D+00 -5.0888010564181D-01
67  6.6000000000000D-01  1.1206605392183D+00 -5.0651073032019D-01
68  6.7000000000000D-01  1.1316541323063D+00 -5.0294667518382D-01
69  6.8000000000000D-01  1.1420986743383D+00 -4.9815632104809D-01
70  6.9000000000000D-01  1.1519752977808D+00 -4.9211079714116D-01
71  7.0000000000000D-01  1.1612655013389D+00 -4.8478413849814D-01
72  7.1000000000000D-01  1.1699511955984D+00 -4.7615343600575D-01
73  7.2000000000000D-01  1.1780147488782D+00 -4.6619897837911D-01
74  7.3000000000000D-01  1.1854390332172D+00 -4.5490438536920D-01
75  7.4000000000000D-01  1.1922074704144D+00 -4.4225673151794D-01
76  7.5000000000000D-01  1.1983040780368D+00 -4.2824665980077D-01
77  7.6000000000000D-01  1.2037135153025D+00 -4.1286848452270D-01
78  7.7000000000000D-01  1.2084211287440D+00 -3.9612028286302D-01
79  7.8000000000000D-01  1.2124129975501D+00 -3.7800397449638D-01
80  7.9000000000000D-01  1.2156759784779D+00 -3.5852538875388D-01
81  8.0000000000000D-01  1.2181977502245D+00 -3.3769431882670D-01
82  8.1000000000000D-01  1.2199668571385D+00 -3.1552456255685D-01
83  8.2000000000000D-01  1.2209727521493D+00 -2.9203394940451D-01
84  8.3000000000000D-01  1.2212058387852D+00 -2.6724435322913D-01
85  8.4000000000000D-01  1.2206575121466D+00 -2.4118169057197D-01
86  8.5000000000000D-01  1.2193201986962D+00 -2.1387590418034D-01
87  8.6000000000000D-01  1.2171873947234D+00 -1.8536093156930D-01
88  8.7000000000000D-01  1.2142537033350D+00 -1.5567465847370D-01
89  8.8000000000000D-01  1.2105148698229D+00 -1.2485885710247D-01
90  8.9000000000000D-01  1.2059678152536D+00 -9.2959109168723D-02
91  9.0000000000000D-01  1.2006106681237D+00 -6.0024713730195D-02
92  9.1000000000000D-01  1.1944427939223D+00 -2.6108579940183D-02
93  9.2000000000000D-01  1.1874648224415D+00  8.7328951282132D-03
94  9.3000000000000D-01  1.1796786726727D+00  4.4439963355048D-02
95  9.4000000000000D-01  1.1710875751304D+00  8.0949676849100D-02
96  9.5000000000000D-01  1.1616960914434D+00  1.1819605326467D-01
97  9.6000000000000D-01  1.1515101310566D+00  1.5611025473310D-01
98  9.7000000000000D-01  1.1405369648890D+00  1.9462077991629D-01
99  9.8000000000000D-01  1.1287852357989D+00  2.3365366862447D-01
100  9.9000000000000D-01  1.1162649657094D+00  2.7313271837670D-01
101  1.0000000000000D+00  1.1029875592578D+00  3.1297971221912D-01
102  1.0100000000000D+00  1.0889658038352D+00  3.5311465705408D-01
103  1.0200000000000D+00  1.0742138658941D+00  3.9345603167571D-01
104  1.0300000000000D+00  1.0587472834104D+00  4.3392104364589D-01
105  1.0400000000000D+00  1.0425829543964D+00  4.7442589409191D-01
106  1.0500000000000D+00  1.0257391213735D+00  5.1488604945280D-01
107  1.0600000000000D+00  1.0082353517283D+00  5.5521651915008D-01
108  1.0700000000000D+00  9.9009251388509D-01  5.9533213811298D-01
109  1.0800000000000D+00  9.7133274924932D-01  6.3514785304278D-01
110  1.0900000000000D+00  9.5197943988729D-01  6.7457901125858D-01
111  1.1000000000000D+00  9.3205717192862D-01  7.1354165093161D-01
112  1.1100000000000D+00  9.1159169469558D-01  7.5195279147870D-01
113  1.1200000000000D+00  8.9060987558034D-01  7.8973072285994D-01
114  1.1300000000000D+00  8.6913965071498D-01  8.2679529249424D-01
115  1.1400000000000D+00  8.4720997149810D-01  8.6306818848811D-01
116  1.1500000000000D+00  8.2485074706594D-01  8.9847321785428D-01
117  1.1600000000000D+00  8.0209278281360D-01  9.3293657838511D-01
118  1.1700000000000D+00  7.7896771510058D-01  9.6638712283392D-01
119  1.1800000000000D+00  7.5550794229539D-01  9.9875661405470D-01
120  1.1900000000000D+00  7.3174655234150D-01  1.0299799697529D+00
121  1.2000000000000D+00  7.0771724704149D-01  1.0599954954985D+00
122  1.2100000000000D+00  6.8345426329343D-01  1.0887451046667D+00
123  1.2200000000000D+00  6.5899229153229D-01  1.1161745239858D+00
124  1.2300000000000D+00  6.3436639164795D-01  1.1422334833831D+00
125  1.2400000000000D+00  6.0961190668316D-01  1.1668758888449D+00
126  1.2500000000000D+00  5.8476437463912D-01  1.1900599770391D+00
127  1.2600000000000D+00  5.5985943873234D-01  1.2117484504708D+00
128  1.2700000000000D+00  5.3493275647134D-01  1.2319085919687D+00
129  1.2800000000000D+00  5.1001990795291D-01  1.2505123573648D+00
130  1.2900000000000D+00  4.8515630378505D-01  1.2675364452447D+00
131  1.3000000000000D+00  4.6037709306777D-01  1.2829623426874D+00
132  1.3100000000000D+00  4.3571707189311D-01  1.2967763460038D+00
133  1.3200000000000D+00  4.1121059282464D-01  1.3089695554817D+00
134  1.3300000000000D+00  3.8689147584391D-01  1.3195378432149D+00
135  1.3400000000000D+00  3.6279292127216D-01  1.3284817932017D+00
136  1.3500000000000D+00  3.3894742516820D-01  1.3358066128566D+00
137  1.3600000000000D+00  3.1538669773670D-01  1.3415220152231D+00
138  1.3700000000000D+00  2.9214158528025D-01  1.3456420712520D+00
139  1.3800000000000D+00  2.6924199623049D-01  1.3481850314332D+00
140  1.3900000000000D+00  2.4671683181531D-01  1.3491731163477D+00
141  1.4000000000000D+00  2.2459392190457D-01  1.3486322755970D+00
142  1.4100000000000D+00  2.0289996659493D-01  1.3465919146773D+00
143  1.4200000000000D+00  1.8166048407527D-01  1.3430845895657D+00
144  1.4300000000000D+00  1.6089976533402D-01  1.3381456685739D+00
145  1.4400000000000D+00  1.4064083624077D-01  1.3318129614237D+00
146  1.4500000000000D+00  1.2090542754004D-01  1.3241263153130D+00
147  1.4600000000000D+00  1.0171395321767D-01  1.3151271740756D+00
148  1.4700000000000D+00  8.3085498298160D-02  1.3048581181894D+00
149  1.4800000000000D+00  6.5037814906717D-02  1.2933623453125D+00
150  1.4900000000000D+00  4.7587331365546D-02  1.2806832708213D+00
151  1.5000000000000D+00  3.0749162125169D-02  1.2668635073422D+00
152  1.5100000000000D+00  1.4537142258165D-02  1.2519447503116D+00
153  1.5200000000000D+00 -1.0360918281473D-03  1.2359686246142D+00
154  1.5300000000000D+00 -1.5959083156179D-02  1.2189774395697D+00
155  1.5400000000000D+00 -3.0221550557101D-02  1.2010154625274D+00
156  1.5500000000000D+00 -4.3814426376581D-02  1.1821287075797D+00
157  1.5600000000000D+00 -5.6729914794241D-02  1.1623644967445D+00
158  1.5700000000000D+00 -6.8961515781354D-02  1.1417714924892D+00
159  1.5800000000000D+00 -8.0504060110645D-02  1.1203994731375D+00
160  1.5900000000000D+00 -9.1353735641012D-02  1.0982991912932D+00
161  1.6000000000000D+00 -1.0150811031852D-01  1.0755222038799D+00
162  1.6100000000000D+00 -1.1096615033384D-01  1.0521207041063D+00
163  1.6200000000000D+00 -1.1972823358525D-01  1.0281473523449D+00
164  1.6300000000000D+00 -1.2779615828063D-01  1.0036551066887D+00
165  1.6400000000000D+00 -1.3517314665339D-01  9.7869705445839D-01
166  1.6500000000000D+00 -1.4186384376799D-01  9.5332624559171D-01
167  1.6600000000000D+00 -1.4787431140478D-01  9.2759552923921D-01
168  1.6700000000000D+00 -1.5321201712220D-01  9.0155739445046D-01
169  1.6800000000000D+00 -1.5788581852134D-01  8.7526381636611D-01
170  1.6900000000000D+00 -1.6190594289148D-01  8.4876610856519D-01
171  1.7000000000000D+00 -1.6528396232075D-01  8.2211478305378D-01
172  1.7100000000000D+00 -1.6803276448238D-01  7.9535941821851D-01
173  1.7200000000000D+00 -1.7016651925333D-01  7.6854853617284D-01
174  1.7300000000000D+00 -1.7170064137018D-01  7.4172948954205D-01
175  1.7400000000000D+00 -1.7265174934314D-01  7.1494835882708D-01
176  1.7500000000000D+00 -1.7303762081434D-01  6.8824986029050D-01
177  1.7600000000000D+00 -1.7287714461188D-01  6.6167726494501D-01
178  1.7700000000000D+00 -1.7219026968175D-01  6.3527232872108D-01
179  1.7800000000000D+00 -1.7099795112803D-01  6.0907523360261D-01
180  1.7900000000000D+00 -1.6932209357048D-01  5.8312454012558D-01
181  1.8000000000000D+00 -1.6718549198141D-01  5.5745715017907D-01
182  1.8100000000000D+00 -1.6461177026246D-01  5.3210828083877D-01
183  1.8200000000000D+00 -1.6162531763643D-01  5.0711144750908D-01
184  1.8300000000000D+00 -1.5825122315848D-01  4.8249845721648D-01
185  1.8400000000000D+00 -1.5451520836838D-01  4.5829941012288D-01
186  1.8500000000000D+00 -1.5044355837692D-01  4.3454270977459D-01
187  1.8600000000000D+00 -1.4606305144015D-01  4.1125508057372D-01
188  1.8700000000000D+00 -1.4140088722326D-01  3.8846159220084D-01
189  1.8800000000000D+00 -1.3648461390407D-01  3.6618569021858D-01
190  1.8900000000000D+00 -1.3134205423153D-01  3.4444923197087D-01
191  1.9000000000000D+00 -1.2600123073574D-01  3.2327252732159D-01
192  1.9100000000000D+00 -1.2049029022446D-01  3.0267438344446D-01
193  1.9200000000000D+00 -1.1483742769491D-01  2.8267215284159D-01
194  1.9300000000000D+00 -1.0907080993758D-01  2.6328178455652D-01
195  1.9400000000000D+00 -1.0321849881608D-01  2.4451787700178D-01
196  1.9500000000000D+00 -9.7308374649089D-02  2.2639373315042D-01
197  1.9600000000000D+00 -9.1368059631199D-02  2.0892141624263D-01
198  1.9700000000000D+00 -8.5424841691523D-02  1.9211180665813D-01
199  1.9800000000000D+00 -7.9505598879736D-02  1.7597465886302D-01
200  1.9900000000000D+00 -7.3636724499576D-02  1.6051865812661D-01
201  2.0000000000000D+00 -6.7844053275017D-02  1.4575147711917D-01
202  2.0100000000000D+00 -6.2152788657994D-02  1.3167983114338D-01
203  2.0200000000000D+00 -5.6587431592843D-02  1.1830953281930D-01
204  2.0300000000000D+00 -5.1171710923333D-02  1.0564554489083D-01
205  2.0400000000000D+00 -4.5928515649438D-02  9.3692031631960D-02
206  2.0500000000000D+00 -4.0879829283642D-02  8.2452408345127D-02
207  2.0600000000000D+00 -3.6046666569935D-02  7.1929388513493D-02
208  2.0700000000000D+00 -3.1449012593460D-02  6.2125029038580D-02
209  2.0800000000000D+00 -2.7105764838446D-02  5.3040772514020D-02
210  2.0900000000000D+00 -2.3034677999689D-02  4.4677487174642D-02
211  2.1000000000000D+00 -1.9252312032844D-02  3.7035503866905D-02
212  2.1100000000000D+00 -1.5773983625095D-02  3.0114649922456D-02
213  2.1200000000000D+00 -1.2613720881251D-02  2.3914280263465D-02
214  2.1300000000000D+00 -9.7857721540385D-03  1.8436139236672D-02
215  2.1400000000000D+00 -7.2995819444589D-03  1.3675266858761D-02
216  2.1500000000000D+00 -5.1615872666716D-03  9.6233660029005D-03
217  2.1600000000000D+00 -3.3714616656794D-03  6.2619493268377D-03
218  2.1700000000000D+00 -1.9654870835026D-03  3.6419421040344D-03
219  2.1800000000000D+00 -9.6475806221715D-04  1.7889706194251D-03
220  2.1900000000000D+00 -3.4942063326130D-04  6.5568949651999D-04
221  2.2000000000000D+00 -3.8517965311051D-05  8.4663685796321D-05
222  2.2100000000000D+00  6.1381808522724D-05 -1.0196354018618D-04
223  2.2200000000000D+00  4.4741648675698D-05 -7.7181896110783D-05
224  2.2300000000000D+00 -4.0332365460119D-06  7.0442521671038D-06
225  2.2400000000000D+00 -2.0090957578832D-05  3.5270550278929D-05
226  2.2500000000000D+00 -1.0712877895988D-05  1.8857123478053D-05
227  2.2600000000000D+00  2.0664711897412D-06 -3.6122282171586D-06
228  2.2700000000000D+00  3.5767531824286D-06 -6.2695738018005D-06
229  2.2800000000000D+00  9.8353651919859D-07 -1.7275492381553D-06
230  2.2900000000000D+00  2.5750184495598D-09 -3.6388053600833D-08
231  2.3000000000000D+00  2.7761690597114D-09 -3.9230549422675D-08
232  2.3100000000000D+00  0.0000000000000D+00  0.0000000000000D+00
233  2.3200000000000D+00  0.0000000000000D+00  0.0000000000000D+00
234  2.3300000000000D+00  0.0000000000000D+00  0.0000000000000D+00
235  2.3400000000000D+00  0.0000000000000D+00  0.0000000000000D+00
236  2.3500000000000D+00  0.0000000000000D+00  0.0000000000000D+00
237  2.3600000000000D+00  0.0000000000000D+00  0.0000000000000D+00
238  2.3700000000000D+00  0.0000000000000D+00  0.0000000000000D+00
239  2.3800000000000D+00  0.0000000000000D+00  0.0000000000000D+00
240  2.3900000000000D+00  0.0000000000000D+00  0.0000000000000D+00
241  2.4000000000000D+00  0.0000000000000D+00  0.0000000000000D+00
242  2.4100000000000D+00  0.0000000000000D+00  0.0000000000000D+00
243  2.4200000000000D+00  0.0000000000000D+00  0.0000000000000D+00
244  2.4300000000000D+00  0.0000000000000D+00  0.0000000000000D+00
245  2.4400000000000D+00  0.0000000000000D+00  0.0000000000000D+00
246  2.4500000000000D+00  0.0000000000000D+00  0.0000000000000D+00
247  2.4600000000000D+00  0.0000000000000D+00  0.0000000000000D+00
248  2.4700000000000D+00  0.0000000000000D+00  0.0000000000000D+00
249  2.4800000000000D+00  0.0000000000000D+00  0.0000000000000D+00
250  2.4900000000000D+00  0.0000000000000D+00  0.0000000000000D+00
251  2.5000000000000D+00  0.0000000000000D+00  0.0000000000000D+00
252  2.5100000000000D+00  0.0000000000000D+00  0.0000000000000D+00
253  2.5200000000000D+00  0.0000000000000D+00  0.0000000000000D+00
254  2.5300000000000D+00  0.0000000000000D+00  0.0000000000000D+00
255  2.5400000000000D+00  0.0000000000000D+00  0.0000000000000D+00
256  2.5500000000000D+00  0.0000000000000D+00  0.0000000000000D+00
257  2.5600000000000D+00  0.0000000000000D+00  0.0000000000000D+00
258  2.5700000000000D+00  0.0000000000000D+00  0.0000000000000D+00
259  2.5800000000000D+00  0.0000000000000D+00  0.0000000000000D+00
260  2.5900000000000D+00  0.0000000000000D+00  0.0000000000000D+00
261  2.6000000000000D+00  0.0000000000000D+00  0.0000000000000D+00
262  2.6100000000000D+00  0.0000000000000D+00  0.0000000000000D+00
263  2.6200000000000D+00  0.0000000000000D+00  0.0000000000000D+00
264  2.6300000000000D+00  0.0000000000000D+00  0.0000000000000D+00
265  2.6400000000000D+00  0.0000000000000D+00  0.0000000000000D+00
266  2.6500000000000D+00  0.0000000000000D+00  0.0000000000000D+00
267  2.6600000000000D+00  0.0000000000000D+00  0.0000000000000D+00
268  2.6700000000000D+00  0.0000000000000D+00  0.0000000000000D+00
269  2.6800000000000D+00  0.0000000000000D+00  0.0000000000000D+00
270  2.6900000000000D+00  0.0000000000000D+00  0.0000000000000D+00
271  2.7000000000000D+00  0.0000000000000D+00  0.0000000000000D+00
272  2.7100000000000D+00  0.0000000000000D+00  0.0000000000000D+00
273  2.7200000000000D+00  0.0000000000000D+00  0.0000000000000D+00
274  2.7300000000000D+00  0.0000000000000D+00  0.0000000000000D+00
275  2.7400000000000D+00  0.0000000000000D+00  0.0000000000000D+00
276  2.7500000000000D+00  0.0000000000000D+00  0.0000000000000D+00
277  2.7600000000000D+00  0.0000000000000D+00  0.0000000000000D+00
278  2.7700000000000D+00  0.0000000000000D+00  0.0000000000000D+00
279  2.7800000000000D+00  0.0000000000000D+00  0.0000000000000D+00
280  2.7900000000000D+00  0.0000000000000D+00  0.0000000000000D+00
281  2.8000000000000D+00  0.0000000000000D+00  0.0000000000000D+00
282  2.8100000000000D+00  0.0000000000000D+00  0.0000000000000D+00
283  2.8200000000000D+00  0.0000000000000D+00  0.0000000000000D+00
284  2.8300000000000D+00  0.0000000000000D+00  0.0000000000000D+00
285  2.8400000000000D+00  0.0000000000000D+00  0.0000000000000D+00
286  2.8500000000000D+00  0.0000000000000D+00  0.0000000000000D+00
287  2.8600000000000D+00  0.0000000000000D+00  0.0000000000000D+00
288  2.8700000000000D+00  0.0000000000000D+00  0.0000000000000D+00
289  2.8800000000000D+00  0.0000000000000D+00  0.0000000000000D+00
290  2.8900000000000D+00  0.0000000000000D+00  0.0000000000000D+00
291  2.9000000000000D+00  0.0000000000000D+00  0.0000000000000D+00
292  2.9100000000000D+00  0.0000000000000D+00  0.0000000000000D+00
293  2.9200000000000D+00  0.0000000000000D+00  0.0000000000000D+00
294  2.9300000000000D+00  0.0000000000000D+00  0.0000000000000D+00
295  2.9400000000000D+00  0.0000000000000D+00  0.0000000000000D+00
296  2.9500000000000D+00  0.0000000000000D+00  0.0000000000000D+00
297  2.9600000000000D+00  0.0000000000000D+00  0.0000000000000D+00
298  2.9700000000000D+00  0.0000000000000D+00  0.0000000000000D+00
299  2.9800000000000D+00  0.0000000000000D+00  0.0000000000000D+00
300  2.9900000000000D+00  0.0000000000000D+00  0.0000000000000D+00
301  3.0000000000000D+00  0.0000000000000D+00  0.0000000000000D+00
302  3.0100000000000D+00  0.0000000000000D+00  0.0000000000000D+00
303  3.0200000000000D+00  0.0000000000000D+00  0.0000000000000D+00
304  3.0300000000000D+00  0.0000000000000D+00  0.0000000000000D+00
305  3.0400000000000D+00  0.0000000000000D+00  0.0000000000000D+00
306  3.0500000000000D+00  0.0000000000000D+00  0.0000000000000D+00
307  3.0600000000000D+00  0.0000000000000D+00  0.0000000000000D+00
308  3.0700000000000D+00  0.0000000000000D+00  0.0000000000000D+00
309  3.0800000000000D+00  0.0000000000000D+00  0.0000000000000D+00
310  3.0900000000000D+00  0.0000000000000D+00  0.0000000000000D+00
311  3.1000000000000D+00  0.0000000000000D+00  0.0000000000000D+00
312  3.1100000000000D+00  0.0000000000000D+00  0.0000000000000D+00
313  3.1200000000000D+00  0.0000000000000D+00  0.0000000000000D+00
314  3.1300000000000D+00  0.0000000000000D+00  0.0000000000000D+00
315  3.1400000000000D+00  0.0000000000000D+00  0.0000000000000D+00
316  3.1500000000000D+00  0.0000000000000D+00  0.0000000000000D+00
317  3.1600000000000D+00  0.0000000000000D+00  0.0000000000000D+00
318  3.1700000000000D+00  0.0000000000000D+00  0.0000000000000D+00
319  3.1800000000000D+00  0.0000000000000D+00  0.0000000000000D+00
320  3.1900000000000D+00  0.0000000000000D+00  0.0000000000000D+00
321  3.2000000000000D+00  0.0000000000000D+00  0.0000000000000D+00
322  3.2100000000000D+00  0.0000000000000D+00  0.0000000000000D+00
323  3.2200000000000D+00  0.0000000000000D+00  0.0000000000000D+00
324  3.2300000000000D+00  0.0000000000000D+00  0.0000000000000D+00
325  3.2400000000000D+00  0.0000000000000D+00  0.0000000000000D+00
326  3.2500000000000D+00  0.0000000000000D+00  0.0000000000000D+00
327  3.2600000000000D+00  0.0000000000000D+00  0.0000000000000D+00
328  3.2700000000000D+00  0.0000000000000D+00  0.0000000000000D+00
329  3.2800000000000D+00  0.0000000000000D+00  0.0000000000000D+00
330  3.2900000000000D+00  0.0000000000000D+00  0.0000000000000D+00
331  3.3000000000000D+00  0.0000000000000D+00  0.0000000000000D+00
332  3.3100000000000D+00  0.0000000000000D+00  0.0000000000000D+00
333  3.3200000000000D+00  0.0000000000000D+00  0.0000000000000D+00
334  3.3300000000000D+00  0.0000000000000D+00  0.0000000000000D+00
335  3.3400000000000D+00  0.0000000000000D+00  0.0000000000000D+00
336  3.3500000000000D+00  0.0000000000000D+00  0.0000000000000D+00
337  3.3600000000000D+00  0.0000000000000D+00  0.0000000000000D+00
338  3.3700000000000D+00  0.0000000000000D+00  0.0000000000000D+00
339  3.3800000000000D+00  0.0000000000000D+00  0.0000000000000D+00
340  3.3900000000000D+00  0.0000000000000D+00  0.0000000000000D+00
341  3.4000000000000D+00  0.0000000000000D+00  0.0000000000000D+00
342  3.4100000000000D+00  0.0000000000000D+00  0.0000000000000D+00
343  3.4200000000000D+00  0.0000000000000D+00  0.0000000000000D+00
344  3.4300000000000D+00  0.0000000000000D+00  0.0000000000000D+00
345  3.4400000000000D+00  0.0000000000000D+00  0.0000000000000D+00
346  3.4500000000000D+00  0.0000000000000D+00  0.0000000000000D+00
347  3.4600000000000D+00  0.0000000000000D+00  0.0000000000000D+00
348  3.4700000000000D+00  0.0000000000000D+00  0.0000000000000D+00
349  3.4800000000000D+00  0.0000000000000D+00  0.0000000000000D+00
350  3.4900000000000D+00  0.0000000000000D+00  0.0000000000000D+00
351  3.5000000000000D+00  0.0000000000000D+00  0.0000000000000D+00
352  3.5100000000000D+00  0.0000000000000D+00  0.0000000000000D+00
353  3.5200000000000D+00  0.0000000000000D+00  0.0000000000000D+00
354  3.5300000000000D+00  0.0000000000000D+00  0.0000000000000D+00
355  3.5400000000000D+00  0.0000000000000D+00  0.0000000000000D+00
356  3.5500000000000D+00  0.0000000000000D+00  0.0000000000000D+00
357  3.5600000000000D+00  0.0000000000000D+00  0.0000000000000D+00
358  3.5700000000000D+00  0.0000000000000D+00  0.0000000000000D+00
359  3.5800000000000D+00  0.0000000000000D+00  0.0000000000000D+00
360  3.5900000000000D+00  0.0000000000000D+00  0.0000000000000D+00
361  3.6000000000000D+00  0.0000000000000D+00  0.0000000000000D+00
362  3.6100000000000D+00  0.0000000000000D+00  0.0000000000000D+00
363  3.6200000000000D+00  0.0000000000000D+00  0.0000000000000D+00
364  3.6300000000000D+00  0.0000000000000D+00  0.0000000000000D+00
365  3.6400000000000D+00  0.0000000000000D+00  0.0000000000000D+00
366  3.6500000000000D+00  0.0000000000000D+00  0.0000000000000D+00
367  3.6600000000000D+00  0.0000000000000D+00  0.0000000000000D+00
368  3.6700000000000D+00  0.0000000000000D+00  0.0000000000000D+00
369  3.6800000000000D+00  0.0000000000000D+00  0.0000000000000D+00
370  3.6900000000000D+00  0.0000000000000D+00  0.0000000000000D+00
371  3.7000000000000D+00  0.0000000000000D+00  0.0000000000000D+00
372  3.7100000000000D+00  0.0000000000000D+00  0.0000000000000D+00
373  3.7200000000000D+00  0.0000000000000D+00  0.0000000000000D+00
374  3.7300000000000D+00  0.0000000000000D+00  0.0000000000000D+00
375  3.7400000000000D+00  0.0000000000000D+00  0.0000000000000D+00
376  3.7500000000000D+00  0.0000000000000D+00  0.0000000000000D+00
377  3.7600000000000D+00  0.0000000000000D+00  0.0000000000000D+00
378  3.7700000000000D+00  0.0000000000000D+00  0.0000000000000D+00
379  3.7800000000000D+00  0.0000000000000D+00  0.0000000000000D+00
380  3.7900000000000D+00  0.0000000000000D+00  0.0000000000000D+00
381  3.8000000000000D+00  0.0000000000000D+00  0.0000000000000D+00
382  3.8100000000000D+00  0.0000000000000D+00  0.0000000000000D+00
383  3.8200000000000D+00  0.0000000000000D+00  0.0000000000000D+00
384  3.8300000000000D+00  0.0000000000000D+00  0.0000000000000D+00
385  3.8400000000000D+00  0.0000000000000D+00  0.0000000000000D+00
386  3.8500000000000D+00  0.0000000000000D+00  0.0000000000000D+00
387  3.8600000000000D+00  0.0000000000000D+00  0.0000000000000D+00
388  3.8700000000000D+00  0.0000000000000D+00  0.0000000000000D+00
389  3.8800000000000D+00  0.0000000000000D+00  0.0000000000000D+00
390  3.8900000000000D+00  0.0000000000000D+00  0.0000000000000D+00
391  3.9000000000000D+00  0.0000000000000D+00  0.0000000000000D+00
392  3.9100000000000D+00  0.0000000000000D+00  0.0000000000000D+00
393  3.9200000000000D+00  0.0000000000000D+00  0.0000000000000D+00
394  3.9300000000000D+00  0.0000000000000D+00  0.0000000000000D+00
395  3.9400000000000D+00  0.0000000000000D+00  0.0000000000000D+00
396  3.9500000000000D+00  0.0000000000000D+00  0.0000000000000D+00
397  3.9600000000000D+00  0.0000000000000D+00  0.0000000000000D+00
398  3.9700000000000D+00  0.0000000000000D+00  0.0000000000000D+00
399  3.9800000000000D+00  0.0000000000000D+00  0.0000000000000D+00
400  3.9900000000000D+00  0.0000000000000D+00  0.0000000000000D+00
401  4.0000000000000D+00  0.0000000000000D+00  0.0000000000000D+00
402  4.0100000000000D+00  0.0000000000000D+00  0.0000000000000D+00
403  4.0200000000000D+00  0.0000000000000D+00  0.0000000000000D+00
404  4.0300000000000D+00  0.0000000000000D+00  0.0000000000000D+00
405  4.0400000000000D+00  0.0000000000000D+00  0.0000000000000D+00
406  4.0500000000000D+00  0.0000000000000D+00  0.0000000000000D+00
407  4.0600000000000D+00  0.0000000000000D+00  0.0000000000000D+00
408  4.0700000000000D+00  0.0000000000000D+00  0.0000000000000D+00
409  4.0800000000000D+00  0.0000000000000D+00  0.0000000000000D+00
410  4.0900000000000D+00  0.0000000000000D+00  0.0000000000000D+00
411  4.1000000000000D+00  0.0000000000000D+00  0.0000000000000D+00
412  4.1100000000000D+00  0.0000000000000D+00  0.0000000000000D+00
413  4.1200000000000D+00  0.0000000000000D+00  0.0000000000000D+00
414  4.1300000000000D+00  0.0000000000000D+00  0.0000000000000D+00
415  4.1400000000000D+00  0.0000000000000D+00  0.0000000000000D+00
416  4.1500000000000D+00  0.0000000000000D+00  0.0000000000000D+00
417  4.1600000000000D+00  0.0000000000000D+00  0.0000000000000D+00
418  4.1700000000000D+00  0.0000000000000D+00  0.0000000000000D+00
419  4.1800000000000D+00  0.0000000000000D+00  0.0000000000000D+00
420  4.1900000000000D+00  0.0000000000000D+00  0.0000000000000D+00
421  4.2000000000000D+00  0.0000000000000D+00  0.0000000000000D+00
422  4.2100000000000D+00  0.0000000000000D+00  0.0000000000000D+00
423  4.2200000000000D+00  0.0000000000000D+00  0.0000000000000D+00
424  4.2300000000000D+00  0.0000000000000D+00  0.0000000000000D+00
425  4.2400000000000D+00  0.0000000000000D+00  0.0000000000000D+00
426  4.2500000000000D+00  0.0000000000000D+00  0.0000000000000D+00
427  4.2600000000000D+00  0.0000000000000D+00  0.0000000000000D+00
428  4.2700000000000D+00  0.0000000000000D+00  0.0000000000000D+00
429  4.2800000000000D+00  0.0000000000000D+00  0.0000000000000D+00
430  4.2900000000000D+00  0.0000000000000D+00  0.0000000000000D+00
431  4.3000000000000D+00  0.0000000000000D+00  0.0000000000000D+00
432  4.3100000000000D+00  0.0000000000000D+00  0.0000000000000D+00
433  4.3200000000000D+00  0.0000000000000D+00  0.0000000000000D+00
434  4.3300000000000D+00  0.0000000000000D+00  0.0000000000000D+00
435  4.3400000000000D+00  0.0000000000000D+00  0.0000000000000D+00
436  4.3500000000000D+00  0.0000000000000D+00  0.0000000000000D+00
437  4.3600000000000D+00  0.0000000000000D+00  0.0000000000000D+00
438  4.3700000000000D+00  0.0000000000000D+00  0.0000000000000D+00
439  4.3800000000000D+00  0.0000000000000D+00  0.0000000000000D+00
440  4.3900000000000D+00  0.0000000000000D+00  0.0000000000000D+00
441  4.4000000000000D+00  0.0000000000000D+00  0.0000000000000D+00
442  4.4100000000000D+00  0.0000000000000D+00  0.0000000000000D+00
443  4.4200000000000D+00  0.0000000000000D+00  0.0000000000000D+00
444  4.4300000000000D+00  0.0000000000000D+00  0.0000000000000D+00