Sb    ONCVPSP  r_core=  2.00  2.12  1.82
51.0000     15.0000      160330    zatom,zion,pspd
8      11   2     4   600     0    pspcod,pspxc,lmax,lloc,mmax,r2well
5.99000000  5.00000000  0.00000000    rchrg fchrg qchrg
2     3     3     0    nproj
3                 extension_switch
4     4     0    nprojso
0                         7.3410121815780D-01  6.8390807732983D+00
1  0.0000000000000D+00  1.3381573626958D-11 -9.0721874457245D-12
2  1.0000000000000D-02 -2.6063764208679D-02  2.5115498131690D-02
3  2.0000000000000D-02 -5.2050463171033D-02  5.0193265615837D-02
4  3.0000000000000D-02 -7.7883333562019D-02  7.5195739523595D-02
5  4.0000000000000D-02 -1.0348621469537D-01  1.0008569162659D-01
6  5.0000000000000D-02 -1.2878384683686D-01  1.2482639390710D-01
7  6.0000000000000D-02 -1.5370216591953D-01  1.4938178186650D-01
8  7.0000000000000D-02 -1.7816859347708D-01  1.7371661490865D-01
9  8.0000000000000D-02 -2.0211232062506D-01  1.9779663308394D-01
10  9.0000000000000D-02 -2.2546458493609D-01  2.2158870949112D-01
11  1.0000000000000D-01 -2.4815893907587D-01  2.4506099764756D-01
12  1.1000000000000D-01 -2.7013151008994D-01  2.6818307315475D-01
13  1.2000000000000D-01 -2.9132124825884D-01  2.9092606900386D-01
14  1.3000000000000D-01 -3.1167016446951D-01  3.1326280388685D-01
15  1.4000000000000D-01 -3.3112355508550D-01  3.3516790290159D-01
16  1.5000000000000D-01 -3.4963021333623D-01  3.5661791006445D-01
17  1.6000000000000D-01 -3.6714262628707D-01  3.7759139207153D-01
18  1.7000000000000D-01 -3.8361715649742D-01  3.9806903277936D-01
19  1.8000000000000D-01 -3.9901420752283D-01  4.1803371790818D-01
20  1.9000000000000D-01 -4.1329837246972D-01  4.3747060950521D-01
21  2.0000000000000D-01 -4.2643856486780D-01  4.5636720974193D-01
22  2.1000000000000D-01 -4.3840813118506D-01  4.7471341365847D-01
23  2.2000000000000D-01 -4.4918494437421D-01  4.9250155050895D-01
24  2.3000000000000D-01 -4.5875147790614D-01  5.0972641340491D-01
25  2.4000000000000D-01 -4.6709485981739D-01  5.2638527699915D-01
26  2.5000000000000D-01 -4.7420690637200D-01  5.4247790299932D-01
27  2.6000000000000D-01 -4.8008413501632D-01  5.5800653334965D-01
28  2.7000000000000D-01 -4.8472775638523D-01  5.7297587096979D-01
29  2.8000000000000D-01 -4.8814364520226D-01  5.8739304799226D-01
30  2.9000000000000D-01 -4.9034229000184D-01  6.0126758149354D-01
31  3.0000000000000D-01 -4.9133872169133D-01  6.1461131676909D-01
32  3.1000000000000D-01 -4.9115242106080D-01  6.2743835825878D-01
33  3.2000000000000D-01 -4.8980720544191D-01  6.3976498828620D-01
34  3.3000000000000D-01 -4.8733109481183D-01  6.5160957383354D-01
35  3.4000000000000D-01 -4.8375615773372D-01  6.6299246163177D-01
36  3.5000000000000D-01 -4.7911833762221D-01  6.7393586190465D-01
37  3.6000000000000D-01 -4.7345725991974D-01  6.8446372116393D-01
38  3.7000000000000D-01 -4.6681602086632D-01  6.9460158451114D-01
39  3.8000000000000D-01 -4.5924095864252D-01  7.0437644795967D-01
40  3.9000000000000D-01 -4.5078140776140D-01  7.1381660134755D-01
41  4.0000000000000D-01 -4.4148943767919D-01  7.2295146246741D-01
42  4.1000000000000D-01 -4.3141957668736D-01  7.3181140309463D-01
43  4.2000000000000D-01 -4.2062852223867D-01  7.4042756764727D-01
44  4.3000000000000D-01 -4.0917483894660D-01  7.4883168526198D-01
45  4.4000000000000D-01 -3.9711864558092D-01  7.5705587611853D-01
46  4.5000000000000D-01 -3.8452129246160D-01  7.6513245289087D-01
47  4.6000000000000D-01 -3.7144503072699D-01  7.7309371824491D-01
48  4.7000000000000D-01 -3.5795267502196D-01  7.8097175934269D-01
49  4.8000000000000D-01 -3.4410726121434D-01  7.8879824034736D-01
50  4.9000000000000D-01 -3.2997170080490D-01  7.9660419395505D-01
51  5.0000000000000D-01 -3.1560843374585D-01  8.0441981300645D-01
52  5.1000000000000D-01 -3.0107908142498D-01  8.1227424325342D-01
53  5.2000000000000D-01 -2.8644410160688D-01  8.2019537837332D-01
54  5.3000000000000D-01 -2.7176244714856D-01  8.2820965833608D-01
55  5.4000000000000D-01 -2.5709123032352D-01  8.3634187223609D-01
56  5.5000000000000D-01 -2.4248539459620D-01  8.4461496670225D-01
57  5.6000000000000D-01 -2.2799739568691D-01  8.5304986099540D-01
58  5.7000000000000D-01 -2.1367689375513D-01  8.6166526989176D-01
59  5.8000000000000D-01 -1.9957045850758D-01  8.7047753543505D-01
60  5.9000000000000D-01 -1.8572128900500D-01  8.7950046861723D-01
61  6.0000000000000D-01 -1.7216894989859D-01  8.8874520201946D-01
62  6.1000000000000D-01 -1.5894912577430D-01  8.9822005440985D-01
63  6.2000000000000D-01 -1.4609339521848D-01  9.0793040825349D-01
64  6.3000000000000D-01 -1.3362902614517D-01  9.1787860104347D-01
65  6.4000000000000D-01 -1.2157879383934D-01  9.2806383130780D-01
66  6.5000000000000D-01 -1.0996082307649D-01  9.3848208008832D-01
67  6.6000000000000D-01 -9.8788455573717D-02  9.4912604862288D-01
68  6.7000000000000D-01 -8.8070143912969D-02  9.5998511289100D-01
69  6.8000000000000D-01 -7.7809372953671D-02  9.7104529560820D-01
70  6.9000000000000D-01 -6.8004609619990D-02  9.8228925617283D-01
71  7.0000000000000D-01 -5.8649281807053D-02  9.9369629898397D-01
72  7.1000000000000D-01 -4.9731787002708D-02  1.0052424004593D+00
73  7.2000000000000D-01 -4.1235531066806D-02  1.0169002549874D+00
74  7.3000000000000D-01 -3.3138997448861D-02  1.0286393399539D+00
75  7.4000000000000D-01 -2.5415846958809D-02  1.0404259998767D+00
76  7.5000000000000D-01 -1.8035048035062D-02  1.0522235495883D+00
77  7.6000000000000D-01 -1.0961037279452D-02  1.0639923962930D+00
78  7.7000000000000D-01 -4.1539098523888D-03  1.0756901802259D+00
79  7.8000000000000D-01  2.4303608566361D-03  1.0872719335290D+00
80  7.9000000000000D-01  8.8396750481422D-03  1.0986902568575D+00
81  8.0000000000000D-01  1.5125530762700D-02  1.1098955131181D+00
82  8.1000000000000D-01  2.1342721681485D-02  1.1208360376398D+00
83  8.2000000000000D-01  2.7549009770493D-02  1.1314583639704D+00
84  8.3000000000000D-01  3.3804774230992D-02  1.1417074643928D+00
85  8.4000000000000D-01  4.0172638384839D-02  1.1515270041549D+00
86  8.5000000000000D-01  4.6717076281739D-02  1.1608596083141D+00
87  8.6000000000000D-01  5.3504000967022D-02  1.1696471400041D+00
88  8.7000000000000D-01  6.0600336492966D-02  1.1778309888476D+00
89  8.8000000000000D-01  6.8073575889451D-02  1.1853523681598D+00
90  8.9000000000000D-01  7.5991327434856D-02  1.1921526195085D+00
91  9.0000000000000D-01  8.4420851678951D-02  1.1981735231356D+00
92  9.1000000000000D-01  9.3428591770887D-02  1.2033576126792D+00
93  9.2000000000000D-01  1.0307969973136D-01  1.2076484925862D+00
94  9.3000000000000D-01  1.1343756138087D-01  1.2109911565587D+00
95  9.4000000000000D-01  1.2456332269448D-01  1.2133323053439D+00
96  9.5000000000000D-01  1.3651542039573D-01  1.2146206621489D+00
97  9.6000000000000D-01  1.4934911962915D-01  1.2148072839440D+00
98  9.7000000000000D-01  1.6311606156088D-01  1.2138458669121D+00
99  9.8000000000000D-01  1.7786382375025D-01  1.2116930443011D+00
100  9.9000000000000D-01  1.9363549611145D-01  1.2083086749509D+00
101  1.0000000000000D+00  2.1046927524257D-01  1.2036561207859D+00
102  1.0100000000000D+00  2.2839807984015D-01  1.1977025115990D+00
103  1.0200000000000D+00  2.4744918984416D-01  1.1904189954916D+00
104  1.0300000000000D+00  2.6764391186036D-01  1.1817809733903D+00
105  1.0400000000000D+00  2.8899727329950D-01  1.1717683161218D+00
106  1.0500000000000D+00  3.1151774754518D-01  1.1603655625975D+00
107  1.0600000000000D+00  3.3520701231542D-01  1.1475620977467D+00
108  1.0700000000000D+00  3.6005974322795D-01  1.1333523089211D+00
109  1.0800000000000D+00  3.8606344440704D-01  1.1177357195949D+00
110  1.0900000000000D+00  4.1319831777152D-01  1.1007170992972D+00
111  1.1000000000000D+00  4.4143717245416D-01  1.0823065488211D+00
112  1.1100000000000D+00  4.7074537556738D-01  1.0625195598904D+00
113  1.1200000000000D+00  5.0108084534529D-01  1.0413770485701D+00
114  1.1300000000000D+00  5.3239408741220D-01  1.0189053618678D+00
115  1.1400000000000D+00  5.6462827471206D-01  9.9513625709908D-01
116  1.1500000000000D+00  5.9771937135144D-01  9.7010685375064D-01
117  1.1600000000000D+00  6.3159630041021D-01  9.4385955769054D-01
118  1.1700000000000D+00  6.6618115544794D-01  9.1644195776445D-01
119  1.1800000000000D+00  7.0138945520121D-01  8.8790669495035D-01
120  1.1900000000000D+00  7.3713044066524D-01  8.5831130442073D-01
121  1.2000000000000D+00  7.7330741358895D-01  8.2771803095605D-01
122  1.2100000000000D+00  8.0981811500531D-01  7.9619361839081D-01
123  1.2200000000000D+00  8.4655514222577D-01  7.6380907388674D-01
124  1.2300000000000D+00  8.8340640252289D-01  7.3063940794701D-01
125  1.2400000000000D+00  9.2025560139450D-01  6.9676335127952D-01
126  1.2500000000000D+00  9.5698276305654D-01  6.6226304976232D-01
127  1.2600000000000D+00  9.9346478065618D-01  6.2722373885653D-01
128  1.2700000000000D+00  1.0295759934415D+00  5.9173339896235D-01
129  1.2800000000000D+00  1.0651887878373D+00  5.5588239338576D-01
130  1.2900000000000D+00  1.1001742193082D+00  5.1976309062357D-01
131  1.3000000000000D+00  1.1344026516643D+00  4.8346947281110D-01
132  1.3100000000000D+00  1.1677444102135D+00  4.4709673232869D-01
133  1.3200000000000D+00  1.2000704451799D+00  4.1074085855539D-01
134  1.3300000000000D+00  1.2312530015700D+00  3.7449821690278D-01
135  1.3400000000000D+00  1.2611662915526D+00  3.3846512233963D-01
136  1.3500000000000D+00  1.2896871654518D+00  3.0273740959491D-01
137  1.3600000000000D+00  1.3166957772322D+00  2.6741000236794D-01
138  1.3700000000000D+00  1.3420762404443D+00  2.3257648383483D-01
139  1.3800000000000D+00  1.3657172704957D+00  1.9832867078731D-01
140  1.3900000000000D+00  1.3875128091572D+00  1.6475619374956D-01
141  1.4000000000000D+00  1.4073626272574D+00  1.3194608537905D-01
142  1.4100000000000D+00  1.4251729014394D+00  9.9982379517394D-02
143  1.4200000000000D+00  1.4408567612353D+00  6.8945723060914D-02
144  1.4300000000000D+00  1.4543348023145D+00  3.8913003024778D-02
145  1.4400000000000D+00  1.4655355624318D+00  9.9569908388526D-03
146  1.4500000000000D+00  1.4743959563673D+00 -1.7853993974091D-02
147  1.4600000000000D+00  1.4808616662635D+00 -4.4456398637423D-02
148  1.4700000000000D+00  1.4848874845766D+00 -6.9791728811492D-02
149  1.4800000000000D+00  1.4864376058254D+00 -9.3806814916832D-02
150  1.4900000000000D+00  1.4854858651852D+00 -1.1645405186966D-01
151  1.5000000000000D+00  1.4820159205144D+00 -1.3769161022536D-01
152  1.5100000000000D+00  1.4760213760020D+00 -1.5748361758732D-01
153  1.5200000000000D+00  1.4675058452064D+00 -1.7580030891883D-01
154  1.5300000000000D+00  1.4564829513281D+00 -1.9261814442588D-01
155  1.5400000000000D+00  1.4429762640799D+00 -2.0791989452214D-01
156  1.5500000000000D+00  1.4270191705010D+00 -2.2169469026941D-01
157  1.5600000000000D+00  1.4086546796752D+00 -2.3393803967053D-01
158  1.5700000000000D+00  1.3879351620900D+00 -2.4465180824279D-01
159  1.5800000000000D+00  1.3649220168369D+00 -2.5384416422942D-01
160  1.5900000000000D+00  1.3396852903601D+00 -2.6152948955987D-01
161  1.6000000000000D+00  1.3123033025576D+00 -2.6772825782979D-01
162  1.6100000000000D+00  1.2828617467218D+00 -2.7246685569134D-01
163  1.6200000000000D+00  1.2514534049453D+00 -2.7577740357893D-01
164  1.6300000000000D+00  1.2181786337929D+00 -2.7769756673018D-01
165  1.6400000000000D+00  1.1831456035691D+00 -2.7827036143546D-01
166  1.6500000000000D+00  1.1464708973996D+00 -2.7754397992872D-01
167  1.6600000000000D+00  1.1082793572702D+00 -2.7557156036501D-01
168  1.6700000000000D+00  1.0687032218564D+00 -2.7241091858888D-01
169  1.6800000000000D+00  1.0278816113430D+00 -2.6812426677466D-01
170  1.6900000000000D+00  9.8595997101234D-01 -2.6277790781360D-01
171  1.7000000000000D+00  9.4308942166122D-01 -2.5644190928662D-01
172  1.7100000000000D+00  8.9942611145914D-01 -2.4918975940840D-01
173  1.7200000000000D+00  8.5513053174244D-01 -2.4109800577281D-01
174  1.7300000000000D+00  8.1036681410245D-01 -2.3224587931196D-01
175  1.7400000000000D+00  7.6530200980504D-01 -2.2271490524245D-01
176  1.7500000000000D+00  7.2010535482009D-01 -2.1258850299927D-01
177  1.7600000000000D+00  6.7494752415262D-01 -2.0195157726037D-01
178  1.7700000000000D+00  6.2999987874538D-01 -1.9089010199874D-01
179  1.7800000000000D+00  5.8543370844732D-01 -1.7949069979314D-01
180  1.7900000000000D+00  5.4141947448249D-01 -1.6784021835529D-01
181  1.8000000000000D+00  4.9812605444079D-01 -1.5602530640412D-01
182  1.8100000000000D+00  4.5571999360018D-01 -1.4413199105328D-01
183  1.8200000000000D+00  4.1436476485447D-01 -1.3224525842528D-01
184  1.8300000000000D+00  3.7422004166129D-01 -1.2044864014401D-01
185  1.8400000000000D+00  3.3544098527944D-01 -1.0882380663631D-01
186  1.8500000000000D+00  2.9817755144061D-01 -9.7450170595589D-02
187  1.8600000000000D+00  2.6257381686479D-01 -8.6404500731012D-02
188  1.8700000000000D+00  2.2876733092047D-01 -7.5760549460646D-02
189  1.8800000000000D+00  1.9688849279972D-01 -6.5588694499898D-02
190  1.8900000000000D+00  1.6705995872830D-01 -5.5955597479762D-02
191  1.9000000000000D+00  1.3939608044653D-01 -4.6923880197583D-02
192  1.9100000000000D+00  1.1400237768269D-01 -3.8551820224896D-02
193  1.9200000000000D+00  9.0975047835538D-02 -3.0893067993086D-02
194  1.9300000000000D+00  7.0400512465413D-02 -2.3996384773953D-02
195  1.9400000000000D+00  5.2369799455485D-02 -1.7910532070784D-02
196  1.9500000000000D+00  3.6915292976754D-02 -1.2662266836291D-02
197  1.9600000000000D+00  2.4041429304548D-02 -8.2669108559407D-03
198  1.9700000000000D+00  1.3894360664020D-02 -4.7870577125036D-03
199  1.9800000000000D+00  6.6756953279466D-03 -2.3025935275354D-03
200  1.9900000000000D+00  2.3352253727705D-03 -8.0423423796178D-04
201  2.0000000000000D+00  2.4278831826616D-04 -8.0241575973110D-05
202  2.0100000000000D+00 -3.5287309476229D-04  1.2507850080100D-04
203  2.0200000000000D+00 -1.9154928144209D-04  6.7408587047248D-05
204  2.0300000000000D+00  7.0639571692432D-05 -2.4753209854614D-05
205  2.0400000000000D+00  1.0727231409358D-04 -3.7554844115436D-05
206  2.0500000000000D+00  1.9740146721687D-06 -6.9078763036372D-07
207  2.0600000000000D+00 -2.0349937032756D-05  7.1168858018756D-06
208  2.0700000000000D+00 -1.1291373523924D-05  3.9464185507103D-06
209  2.0800000000000D+00 -9.0599441423829D-08  2.4065330902077D-08
210  2.0900000000000D+00 -1.2215100189006D-07  3.2446163401304D-08
211  2.1000000000000D+00  0.0000000000000D+00  0.0000000000000D+00
212  2.1100000000000D+00  0.0000000000000D+00  0.0000000000000D+00
213  2.1200000000000D+00  0.0000000000000D+00  0.0000000000000D+00
214  2.1300000000000D+00  0.0000000000000D+00  0.0000000000000D+00
215  2.1400000000000D+00  0.0000000000000D+00  0.0000000000000D+00
216  2.1500000000000D+00  0.0000000000000D+00  0.0000000000000D+00
217  2.1600000000000D+00  0.0000000000000D+00  0.0000000000000D+00
218  2.1700000000000D+00  0.0000000000000D+00  0.0000000000000D+00
219  2.1800000000000D+00  0.0000000000000D+00  0.0000000000000D+00
220  2.1900000000000D+00  0.0000000000000D+00  0.0000000000000D+00
221  2.2000000000000D+00  0.0000000000000D+00  0.0000000000000D+00
222  2.2100000000000D+00  0.0000000000000D+00  0.0000000000000D+00
223  2.2200000000000D+00  0.0000000000000D+00  0.0000000000000D+00
224  2.2300000000000D+00  0.0000000000000D+00  0.0000000000000D+00
225  2.2400000000000D+00  0.0000000000000D+00  0.0000000000000D+00
226  2.2500000000000D+00  0.0000000000000D+00  0.0000000000000D+00
227  2.2600000000000D+00  0.0000000000000D+00  0.0000000000000D+00
228  2.2700000000000D+00  0.0000000000000D+00  0.0000000000000D+00
229  2.2800000000000D+00  0.0000000000000D+00  0.0000000000000D+00
230  2.2900000000000D+00  0.0000000000000D+00  0.0000000000000D+00
231  2.3000000000000D+00  0.0000000000000D+00  0.0000000000000D+00
232  2.3100000000000D+00  0.0000000000000D+00  0.0000000000000D+00
233  2.3200000000000D+00  0.0000000000000D+00  0.0000000000000D+00
234  2.3300000000000D+00  0.0000000000000D+00  0.0000000000000D+00
235  2.3400000000000D+00  0.0000000000000D+00  0.0000000000000D+00
236  2.3500000000000D+00  0.0000000000000D+00  0.0000000000000D+00
237  2.3600000000000D+00  0.0000000000000D+00  0.0000000000000D+00
238  2.3700000000000D+00  0.0000000000000D+00  0.0000000000000D+00
239  2.3800000000000D+00  0.0000000000000D+00  0.0000000000000D+00
240  2.3900000000000D+00  0.0000000000000D+00  0.0000000000000D+00
241  2.4000000000000D+00  0.0000000000000D+00  0.0000000000000D+00
242  2.4100000000000D+00  0.0000000000000D+00  0.0000000000000D+00
243  2.4200000000000D+00  0.0000000000000D+00  0.0000000000000D+00
244  2.4300000000000D+00  0.0000000000000D+00  0.0000000000000D+00
245  2.4400000000000D+00  0.0000000000000D+00  0.0000000000000D+00
246  2.4500000000000D+00  0.0000000000000D+00  0.0000000000000D+00
247  2.4600000000000D+00  0.0000000000000D+00  0.0000000000000D+00
248  2.4700000000000D+00  0.0000000000000D+00  0.0000000000000D+00
249  2.4800000000000D+00  0.0000000000000D+00  0.0000000000000D+00
250  2.4900000000000D+00  0.0000000000000D+00  0.0000000000000D+00
251  2.5000000000000D+00  0.0000000000000D+00  0.0000000000000D+00
252  2.5100000000000D+00  0.0000000000000D+00  0.0000000000000D+00
253  2.5200000000000D+00  0.0000000000000D+00  0.0000000000000D+00
254  2.5300000000000D+00  0.0000000000000D+00  0.0000000000000D+00
255  2.5400000000000D+00  0.0000000000000D+00  0.0000000000000D+00
256  2.5500000000000D+00  0.0000000000000D+00  0.0000000000000D+00
257  2.5600000000000D+00  0.0000000000000D+00  0.0000000000000D+00
258  2.5700000000000D+00  0.0000000000000D+00  0.0000000000000D+00
259  2.5800000000000D+00  0.0000000000000D+00  0.0000000000000D+00
260  2.5900000000000D+00  0.0000000000000D+00  0.0000000000000D+00
261  2.6000000000000D+00  0.0000000000000D+00  0.0000000000000D+00
262  2.6100000000000D+00  0.0000000000000D+00  0.0000000000000D+00
263  2.6200000000000D+00  0.0000000000000D+00  0.0000000000000D+00
264  2.6300000000000D+00  0.0000000000000D+00  0.0000000000000D+00
265  2.6400000000000D+00  0.0000000000000D+00  0.0000000000000D+00
266  2.6500000000000D+00  0.0000000000000D+00  0.0000000000000D+00
267  2.6600000000000D+00  0.0000000000000D+00  0.0000000000000D+00
268  2.6700000000000D+00  0.0000000000000D+00  0.0000000000000D+00
269  2.6800000000000D+00  0.0000000000000D+00  0.0000000000000D+00
270  2.6900000000000D+00  0.0000000000000D+00  0.0000000000000D+00
271  2.7000000000000D+00  0.0000000000000D+00  0.0000000000000D+00
272  2.7100000000000D+00  0.0000000000000D+00  0.0000000000000D+00
273  2.7200000000000D+00  0.0000000000000D+00  0.0000000000000D+00
274  2.7300000000000D+00  0.0000000000000D+00  0.0000000000000D+00
275  2.7400000000000D+00  0.0000000000000D+00  0.0000000000000D+00
276  2.7500000000000D+00  0.0000000000000D+00  0.0000000000000D+00
277  2.7600000000000D+00  0.0000000000000D+00  0.0000000000000D+00
278  2.7700000000000D+00  0.0000000000000D+00  0.0000000000000D+00
279  2.7800000000000D+00  0.0000000000000D+00  0.0000000000000D+00
280  2.7900000000000D+00  0.0000000000000D+00  0.0000000000000D+00
281  2.8000000000000D+00  0.0000000000000D+00  0.0000000000000D+00
282  2.8100000000000D+00  0.0000000000000D+00  0.0000000000000D+00
283  2.8200000000000D+00  0.0000000000000D+00  0.0000000000000D+00
284  2.8300000000000D+00  0.0000000000000D+00  0.0000000000000D+00
285  2.8400000000000D+00  0.0000000000000D+00  0.0000000000000D+00
286  2.8500000000000D+00  0.0000000000000D+00  0.0000000000000D+00
287  2.8600000000000D+00  0.0000000000000D+00  0.0000000000000D+00
288  2.8700000000000D+00  0.0000000000000D+00  0.0000000000000D+00
289  2.8800000000000D+00  0.0000000000000D+00  0.0000000000000D+00
290  2.8900000000000D+00  0.0000000000000D+00  0.0000000000000D+00
291  2.9000000000000D+00  0.0000000000000D+00  0.0000000000000D+00
292  2.9100000000000D+00  0.0000000000000D+00  0.0000000000000D+00
293  2.9200000000000D+00  0.0000000000000D+00  0.0000000000000D+00
294  2.9300000000000D+00  0.0000000000000D+00  0.0000000000000D+00
295  2.9400000000000D+00  0.0000000000000D+00  0.0000000000000D+00
296  2.9500000000000D+00  0.0000000000000D+00  0.0000000000000D+00
297  2.9600000000000D+00  0.0000000000000D+00  0.0000000000000D+00
298  2.9700000000000D+00  0.0000000000000D+00  0.0000000000000D+00
299  2.9800000000000D+00  0.0000000000000D+00  0.0000000000000D+00
300  2.9900000000000D+00  0.0000000000000D+00  0.0000000000000D+00
301  3.0000000000000D+00  0.0000000000000D+00  0.0000000000000D+00
302  3.0100000000000D+00  0.0000000000000D+00  0.0000000000000D+00
303  3.0200000000000D+00  0.0000000000000D+00  0.0000000000000D+00
304  3.0300000000000D+00  0.0000000000000D+00  0.0000000000000D+00
305  3.0400000000000D+00  0.0000000000000D+00  0.0000000000000D+00
306  3.0500000000000D+00  0.0000000000000D+00  0.0000000000000D+00
307  3.0600000000000D+00  0.0000000000000D+00  0.0000000000000D+00
308  3.0700000000000D+00  0.0000000000000D+00  0.0000000000000D+00
309  3.0800000000000D+00  0.0000000000000D+00  0.0000000000000D+00
310  3.0900000000000D+00  0.0000000000000D+00  0.0000000000000D+00
311  3.1000000000000D+00  0.0000000000000D+00  0.0000000000000D+00
312  3.1100000000000D+00  0.0000000000000D+00  0.0000000000000D+00
313  3.1200000000000D+00  0.0000000000000D+00  0.0000000000000D+00
314  3.1300000000000D+00  0.0000000000000D+00  0.0000000000000D+00
315  3.1400000000000D+00  0.0000000000000D+00  0.0000000000000D+00
316  3.1500000000000D+00  0.0000000000000D+00  0.0000000000000D+00
317  3.1600000000000D+00  0.0000000000000D+00  0.0000000000000D+00
318  3.1700000000000D+00  0.0000000000000D+00  0.0000000000000D+00
319  3.1800000000000D+00  0.0000000000000D+00  0.0000000000000D+00
320  3.1900000000000D+00  0.0000000000000D+00  0.0000000000000D+00
321  3.2000000000000D+00  0.0000000000000D+00  0.0000000000000D+00
322  3.2100000000000D+00  0.0000000000000D+00  0.0000000000000D+00
323  3.2200000000000D+00  0.0000000000000D+00  0.0000000000000D+00
324  3.2300000000000D+00  0.0000000000000D+00  0.0000000000000D+00
325  3.2400000000000D+00  0.0000000000000D+00  0.0000000000000D+00
326  3.2500000000000D+00  0.0000000000000D+00  0.0000000000000D+00
327  3.2600000000000D+00  0.0000000000000D+00  0.0000000000000D+00
328  3.2700000000000D+00  0.0000000000000D+00  0.0000000000000D+00
329  3.2800000000000D+00  0.0000000000000D+00  0.0000000000000D+00
330  3.2900000000000D+00  0.0000000000000D+00  0.0000000000000D+00
331  3.3000000000000D+00  0.0000000000000D+00  0.0000000000000D+00
332  3.3100000000000D+00  0.0000000000000D+00  0.0000000000000D+00
333  3.3200000000000D+00  0.0000000000000D+00  0.0000000000000D+00
334  3.3300000000000D+00  0.0000000000000D+00  0.0000000000000D+00
335  3.3400000000000D+00  0.0000000000000D+00  0.0000000000000D+00
336  3.3500000000000D+00  0.0000000000000D+00  0.0000000000000D+00
337  3.3600000000000D+00  0.0000000000000D+00  0.0000000000000D+00
338  3.3700000000000D+00  0.0000000000000D+00  0.0000000000000D+00
339  3.3800000000000D+00  0.0000000000000D+00  0.0000000000000D+00
340  3.3900000000000D+00  0.0000000000000D+00  0.0000000000000D+00
341  3.4000000000000D+00  0.0000000000000D+00  0.0000000000000D+00
342  3.4100000000000D+00  0.0000000000000D+00  0.0000000000000D+00
343  3.4200000000000D+00  0.0000000000000D+00  0.0000000000000D+00
344  3.4300000000000D+00  0.0000000000000D+00  0.0000000000000D+00
345  3.4400000000000D+00  0.0000000000000D+00  0.0000000000000D+00
346  3.4500000000000D+00  0.0000000000000D+00  0.0000000000000D+00
347  3.4600000000000D+00  0.0000000000000D+00  0.0000000000000D+00
348  3.4700000000000D+00  0.0000000000000D+00  0.0000000000000D+00
349  3.4800000000000D+00  0.0000000000000D+00  0.0000000000000D+00
350  3.4900000000000D+00  0.0000000000000D+00  0.0000000000000D+00
351  3.5000000000000D+00  0.0000000000000D+00  0.0000000000000D+00
352  3.5100000000000D+00  0.0000000000000D+00  0.0000000000000D+00
353  3.5200000000000D+00  0.0000000000000D+00  0.0000000000000D+00
354  3.5300000000000D+00  0.0000000000000D+00  0.0000000000000D+00
355  3.5400000000000D+00  0.0000000000000D+00  0.0000000000000D+00
356  3.5500000000000D+00  0.0000000000000D+00  0.0000000000000D+00
357  3.5600000000000D+00  0.0000000000000D+00  0.0000000000000D+00
358  3.5700000000000D+00  0.0000000000000D+00  0.0000000000000D+00
359  3.5800000000000D+00  0.0000000000000D+00  0.0000000000000D+00
360  3.5900000000000D+00  0.0000000000000D+00  0.0000000000000D+00
361  3.6000000000000D+00  0.0000000000000D+00  0.0000000000000D+00
362  3.6100000000000D+00  0.0000000000000D+00  0.0000000000000D+00
363  3.6200000000000D+00  0.0000000000000D+00  0.0000000000000D+00
364  3.6300000000000D+00  0.0000000000000D+00  0.0000000000000D+00
365  3.6400000000000D+00  0.0000000000000D+00  0.0000000000000D+00
366  3.6500000000000D+00  0.0000000000000D+00  0.0000000000000D+00
367  3.6600000000000D+00  0.0000000000000D+00  0.0000000000000D+00
368  3.6700000000000D+00  0.0000000000000D+00  0.0000000000000D+00
369  3.6800000000000D+00  0.0000000000000D+00  0.0000000000000D+00
370  3.6900000000000D+00  0.0000000000000D+00  0.0000000000000D+00
371  3.7000000000000D+00  0.0000000000000D+00  0.0000000000000D+00
372  3.7100000000000D+00  0.0000000000000D+00  0.0000000000000D+00
373  3.7200000000000D+00  0.0000000000000D+00  0.0000000000000D+00
374  3.7300000000000D+00  0.0000000000000D+00  0.0000000000000D+00
375  3.7400000000000D+00  0.0000000000000D+00  0.0000000000000D+00
376  3.7500000000000D+00  0.0000000000000D+00  0.0000000000000D+00
377  3.7600000000000D+00  0.0000000000000D+00  0.0000000000000D+00
378  3.7700000000000D+00  0.0000000000000D+00  0.0000000000000D+00
379  3.7800000000000D+00  0.0000000000000D+00  0.0000000000000D+00
380  3.7900000000000D+00  0.0000000000000D+00  0.0000000000000D+00
381  3.8000000000000D+00  0.0000000000000D+00  0.0000000000000D+00
382  3.8100000000000D+00  0.0000000000000D+00  0.0000000000000D+00
383  3.8200000000000D+00  0.0000000000000D+00  0.0000000000000D+00
384  3.8300000000000D+00  0.0000000000000D+00  0.0000000000000D+00
385  3.8400000000000D+00  0.0000000000000D+00  0.0000000000000D+00
386  3.8500000000000D+00  0.0000000000000D+00  0.0000000000000D+00
387  3.8600000000000D+00  0.0000000000000D+00  0.0000000000000D+00
388  3.8700000000000D+00  0.0000000000000D+00  0.0000000000000D+00
389  3.8800000000000D+00  0.0000000000000D+00  0.0000000000000D+00
390  3.8900000000000D+00  0.0000000000000D+00  0.0000000000000D+00
391  3.9000000000000D+00  0.0000000000000D+00  0.0000000000000D+00
392  3.9100000000000D+00  0.0000000000000D+00  0.0000000000000D+00
393  3.9200000000000D+00  0.0000000000000D+00  0.0000000000000D+00
394  3.9300000000000D+00  0.0000000000000D+00  0.0000000000000D+00
395  3.9400000000000D+00  0.0000000000000D+00  0.0000000000000D+00
396  3.9500000000000D+00  0.0000000000000D+00  0.0000000000000D+00
397  3.9600000000000D+00  0.0000000000000D+00  0.0000000000000D+00
398  3.9700000000000D+00  0.0000000000000D+00  0.0000000000000D+00
399  3.9800000000000D+00  0.0000000000000D+00  0.0000000000000D+00
400  3.9900000000000D+00  0.0000000000000D+00  0.0000000000000D+00
401  4.0000000000000D+00  0.0000000000000D+00  0.0000000000000D+00
402  4.0100000000000D+00  0.0000000000000D+00  0.0000000000000D+00
403  4.0200000000000D+00  0.0000000000000D+00  0.0000000000000D+00
404  4.0300000000000D+00  0.0000000000000D+00  0.0000000000000D+00
405  4.0400000000000D+00  0.0000000000000D+00  0.0000000000000D+00
406  4.0500000000000D+00  0.0000000000000D+00  0.0000000000000D+00
407  4.0600000000000D+00  0.0000000000000D+00  0.0000000000000D+00
408  4.0700000000000D+00  0.0000000000000D+00  0.0000000000000D+00
409  4.0800000000000D+00  0.0000000000000D+00  0.0000000000000D+00
410  4.0900000000000D+00  0.0000000000000D+00  0.0000000000000D+00
411  4.1000000000000D+00  0.0000000000000D+00  0.0000000000000D+00
412  4.1100000000000D+00  0.0000000000000D+00  0.0000000000000D+00
413  4.1200000000000D+00  0.0000000000000D+00  0.0000000000000D+00
414  4.1300000000000D+00  0.0000000000000D+00  0.0000000000000D+00
415  4.1400000000000D+00  0.0000000000000D+00  0.0000000000000D+00
416  4.1500000000000D+00  0.0000000000000D+00  0.0000000000000D+00
417  4.1600000000000D+00  0.0000000000000D+00  0.0000000000000D+00
418  4.1700000000000D+00  0.0000000000000D+00  0.0000000000000D+00
419  4.1800000000000D+00  0.0000000000000D+00  0.0000000000000D+00
420  4.1900000000000D+00  0.0000000000000D+00  0.0000000000000D+00
421  4.2000000000000D+00  0.0000000000000D+00  0.0000000000000D+00
422  4.2100000000000D+00  0.0000000000000D+00  0.0000000000000D+00
423  4.2200000000000D+00  0.0000000000000D+00  0.0000000000000D+00
424  4.2300000000000D+00  0.0000000000000D+00  0.0000000000000D+00
425  4.2400000000000D+00  0.0000000000000D+00  0.0000000000000D+00
426  4.2500000000000D+00  0.0000000000000D+00  0.0000000000000D+00
427  4.2600000000000D+00  0.0000000000000D+00  0.0000000000000D+00
428  4.2700000000000D+00  0.0000000000000D+00  0.0000000000000D+00
429  4.2800000000000D+00  0.0000000000000D+00  0.0000000000000D+00
430  4.2900000000000D+00  0.0000000000000D+00  0.0000000000000D+00
431  4.3000000000000D+00  0.0000000000000D+00  0.0000000000000D+00
432  4.3100000000000D+00  0.0000000000000D+00  0.0000000000000D+00
433  4.3200000000000D+00  0.0000000000000D+00  0.0000000000000D+00
434  4.3300000000000D+00  0.0000000000000D+00  0.0000000000000D+00
435  4.3400000000000D+00  0.0000000000000D+00  0.0000000000000D+00
436  4.3500000000000D+00  0.0000000000000D+00  0.0000000000000D+00
437  4.3600000000000D+00  0.0000000000000D+00  0.0000000000000D+00
438  4.3700000000000D+00  0.0000000000000D+00  0.0000000000000D+00
439  4.3800000000000D+00  0.0000000000000D+00  0.0000000000000D+00
440  4.3900000000000D+00  0.0000000000000D+00  0.0000000000000D+00
441  4.4000000000000D+00  0.0000000000000D+00  0.0000000000000D+00
442  4.4100000000000D+00  0.0000000000000D+00  0.0000000000000D+00
443  4.4200000000000D+00  0.0000000000000D+00  0.0000000000000D+00