Sb    ONCVPSP  r_core=  2.00  2.12  1.82
51.0000     15.0000      150804    zatom,zion,pspd
8      11   2     4   600     0    pspcod,pspxc,lmax,lloc,mmax,r2well
5.99000000  5.00000000  0.00000000    rchrg fchrg qchrg
2     2     2     0     0    nproj
0                 extension_switch
0                         6.8364008168450D+00  7.3362731956064D-01
1  0.0000000000000D+00 -9.0204510527769D-12  1.3133716336711D-11
2  1.0000000000000D-02  2.5095448001174D-02 -2.5922716572031D-02
3  2.0000000000000D-02  5.0153335800949D-02 -5.1769130964502D-02
4  3.0000000000000D-02  7.5136270113089D-02 -7.7463239495556D-02
5  4.0000000000000D-02  1.0000719074781D-01 -1.0292963428837D-01
6  5.0000000000000D-02  1.2472953532758D-01 -1.2809379820110D-01
7  6.0000000000000D-02  1.4926740181027D-01 -1.5288239619885D-01
8  7.0000000000000D-02  1.7358570809943D-01 -1.7722356199725D-01
9  8.0000000000000D-02  1.9765034803030D-01 -2.0104717882000D-01
10  9.0000000000000D-02  2.2142834303157D-01 -2.2428515312977D-01
11  1.0000000000000D-01  2.4488798877664D-01 -2.4687168021163D-01
12  1.1000000000000D-01  2.6799899615376D-01 -2.6874350051132D-01
13  1.2000000000000D-01  2.9073262590276D-01 -2.8984014565796D-01
14  1.3000000000000D-01  3.1306181628669D-01 -3.1010417313089D-01
15  1.4000000000000D-01  3.3496130318916D-01 -3.2948138856425D-01
16  1.5000000000000D-01  3.5640773205365D-01 -3.4792105472036D-01
17  1.6000000000000D-01  3.7737976110826D-01 -3.6537608620416D-01
18  1.7000000000000D-01  3.9785815534905D-01 -3.8180322903570D-01
19  1.8000000000000D-01  4.1782587078742D-01 -3.9716322424584D-01
20  1.9000000000000D-01  4.3726812850089D-01 -4.1142095471252D-01
21  2.0000000000000D-01  4.5617247806338D-01 -4.2454557451084D-01
22  2.1000000000000D-01  4.7452884996987D-01 -4.3651062010914D-01
23  2.2000000000000D-01  4.9232959671095D-01 -4.4729410280658D-01
24  2.3000000000000D-01  5.0956952219597D-01 -4.5687858187404D-01
25  2.4000000000000D-01  5.2624589926841D-01 -4.6525121793014D-01
26  2.5000000000000D-01  5.4235847510408D-01 -4.7240380615764D-01
27  2.6000000000000D-01  5.5790946433135D-01 -4.7833278904199D-01
28  2.7000000000000D-01  5.7290352976354D-01 -4.8303924839336D-01
29  2.8000000000000D-01  5.8734775068518D-01 -4.8652887649671D-01
30  2.9000000000000D-01  6.0125157868790D-01 -4.8881192631864D-01
31  3.0000000000000D-01  6.1462678110629D-01 -4.8990314078919D-01
32  3.1000000000000D-01  6.2748737216015D-01 -4.8982166126522D-01
33  3.2000000000000D-01  6.3984953196662D-01 -4.8859091537525D-01
34  3.3000000000000D-01  6.5173151364306D-01 -4.8623848453854D-01
35  3.4000000000000D-01  6.6315353877995D-01 -4.8279595154630D-01
36  3.5000000000000D-01  6.7413768162145D-01 -4.7829872868874D-01
37  3.6000000000000D-01  6.8470774234961D-01 -4.7278586700780D-01
38  3.7000000000000D-01  6.9488910992640D-01 -4.6629984735162D-01
39  3.8000000000000D-01  7.0470861500556D-01 -4.5888635400273D-01
40  3.9000000000000D-01  7.1419437348281D-01 -4.5059403174700D-01
41  4.0000000000000D-01  7.2337562130885D-01 -4.4147422734351D-01
42  4.1000000000000D-01  7.3228254124374D-01 -4.3158071644760D-01
43  4.2000000000000D-01  7.4094608228360D-01 -4.2096941712790D-01
44  4.3000000000000D-01  7.4939777254140D-01 -4.0969809120489D-01
45  4.4000000000000D-01  7.5766952641099D-01 -3.9782603472021D-01
46  4.5000000000000D-01  7.6579344688938D-01 -3.8541375892530D-01
47  4.6000000000000D-01  7.7380162397406D-01 -3.7252266325039D-01
48  4.7000000000000D-01  7.8172593009121D-01 -3.5921470178441D-01
49  4.8000000000000D-01  7.8959781354568D-01 -3.4555204485795D-01
50  4.9000000000000D-01  7.9744809101468D-01 -3.3159673737808D-01
51  5.0000000000000D-01  8.0530674013416D-01 -3.1741035561287D-01
52  5.1000000000000D-01  8.1320269324874D-01 -3.0305366416521D-01
53  5.2000000000000D-01  8.2116363341364D-01 -2.8858627490943D-01
54  5.3000000000000D-01  8.2921579374929D-01 -2.7406630968984D-01
55  5.4000000000000D-01  8.3738376125603D-01 -2.5955006859694D-01
56  5.5000000000000D-01  8.4569028619784D-01 -2.4509170564451D-01
57  5.6000000000000D-01  8.5415609815950D-01 -2.3074291366910D-01
58  5.7000000000000D-01  8.6279972987150D-01 -2.1655262026148D-01
59  5.8000000000000D-01  8.7163734988037D-01 -2.0256669651765D-01
60  5.9000000000000D-01  8.8068260512014D-01 -1.8882768036550D-01
61  6.0000000000000D-01  8.8994647441180D-01 -1.7537451617992D-01
62  6.1000000000000D-01  8.9943713388284D-01 -1.6224231234725D-01
63  6.2000000000000D-01  9.0915983525827D-01 -1.4946211837560D-01
64  6.3000000000000D-01  9.1911679792718D-01 -1.3706072307474D-01
65  6.4000000000000D-01  9.2930711563607D-01 -1.2506047524457D-01
66  6.5000000000000D-01  9.3972667860096D-01 -1.1347912821729D-01
67  6.6000000000000D-01  9.5036811176564D-01 -1.0232970949467D-01
68  6.7000000000000D-01  9.6122072986335D-01 -9.1620416607832D-02
69  6.8000000000000D-01  9.7227050986310D-01 -8.1354540204951D-02
70  6.9000000000000D-01  9.8350008130209D-01 -7.1530415241112D-02
71  7.0000000000000D-01  9.9488873491972D-01 -6.2141401004738D-02
72  7.1000000000000D-01  1.0064124499198D+00 -5.3175890569311D-02
73  7.2000000000000D-01  1.0180439400937D+00 -4.4617350104610D-02
74  7.3000000000000D-01  1.0297527189409D+00 -3.6444388322998D-02
75  7.4000000000000D-01  1.0415051838229D+00 -2.8630856171319D-02
76  7.5000000000000D-01  1.0532647190849D+00 -2.1145976709312D-02
77  7.6000000000000D-01  1.0649918179754D+00 -1.3954504943409D-02
78  7.7000000000000D-01  1.0766442230867D+00 -7.0169172095049D-03
79  7.8000000000000D-01  1.0881770849355D+00 -2.8962952107996D-04
80  7.9000000000000D-01  1.0995431381949D+00  6.2747558775658D-03
81  8.0000000000000D-01  1.1106928949809D+00  1.2727176690578D-02
82  8.1000000000000D-01  1.1215748544961D+00  1.9121810594277D-02
83  8.2000000000000D-01  1.1321357282246D+00  2.5515750390353D-02
84  8.3000000000000D-01  1.1423206797753D+00  3.1968655741768D-02
85  8.4000000000000D-01  1.1520735783692D+00  3.8542383108012D-02
86  8.5000000000000D-01  1.1613372648747D+00  4.5300595654130D-02
87  8.6000000000000D-01  1.1700538292026D+00  5.2308355058121D-02
88  8.7000000000000D-01  1.1781648977886D+00  5.9631697283326D-02
89  8.8000000000000D-01  1.1856119298087D+00  6.7337194515440D-02
90  8.9000000000000D-01  1.1923365207039D+00  7.5491505585738D-02
91  9.0000000000000D-01  1.1982807115180D+00  8.4160917314038D-02
92  9.1000000000000D-01  1.2033873024952D+00  9.3410879302923D-02
93  9.2000000000000D-01  1.2076001693331D+00  1.0330553480140D-01
94  9.3000000000000D-01  1.2108645804391D+00  1.1390725032742D-01
95  9.4000000000000D-01  1.2131275135058D+00  1.2527614679652D-01
96  9.5000000000000D-01  1.2143379696921D+00  1.3746963494556D-01
97  9.6000000000000D-01  1.2144472836820D+00  1.5054195786656D-01
98  9.7000000000000D-01  1.2134094278811D+00  1.6454374347578D-01
99  9.8000000000000D-01  1.2111813090185D+00  1.7952156973571D-01
100  9.9000000000000D-01  1.2077230554282D+00  1.9551754542401D-01
101  1.0000000000000D+00  1.2029982933095D+00  2.1256890920224D-01
102  1.0100000000000D+00  1.1969744102977D+00  2.3070764967671D-01
103  1.0200000000000D+00  1.1896228047171D+00  2.4996014907274D-01
104  1.0300000000000D+00  1.1809191189427D+00  2.7034685304442D-01
105  1.0400000000000D+00  1.1708434553561D+00  2.9188196903619D-01
106  1.0500000000000D+00  1.1593805734585D+00  3.1457319548519D-01
107  1.0600000000000D+00  1.1465200667781D+00  3.3842148400694D-01
108  1.0700000000000D+00  1.1322565183077D+00  3.6342083655416D-01
109  1.0800000000000D+00  1.1165896332957D+00  3.8955813936578D-01
110  1.0900000000000D+00  1.0995243483370D+00  4.1681303532761D-01
111  1.1000000000000D+00  1.0810709158093D+00  4.4515783617736D-01
112  1.1100000000000D+00  1.0612449628428D+00  4.7455747575291D-01
113  1.1200000000000D+00  1.0400675241115D+00  5.0496950529959D-01
114  1.1300000000000D+00  1.0175650478979D+00  5.3634413157389D-01
115  1.1400000000000D+00  9.9376937500675D-01  5.6862429826692D-01
116  1.1500000000000D+00  9.6871769026400D-01  6.0174581099141D-01
117  1.1600000000000D+00  9.4245244645397D-01  6.3563750587853D-01
118  1.1700000000000D+00  9.1502126073328D-01  6.7022146150745D-01
119  1.1800000000000D+00  8.8647678369675D-01  7.0541325365947D-01
120  1.1900000000000D+00  8.5687654144424D-01  7.4112225208867D-01
121  1.2000000000000D+00  8.2628275109292D-01  7.7725195833834D-01
122  1.2100000000000D+00  7.9476211041553D-01  8.1370038322812D-01
123  1.2200000000000D+00  7.6238556239849D-01  8.5036046244532D-01
124  1.2300000000000D+00  7.2922803563252D-01  8.8712050847070D-01
125  1.2400000000000D+00  6.9536816164168D-01  9.2386469674081D-01
126  1.2500000000000D+00  6.6088797040177D-01  9.6047358370496D-01
127  1.2600000000000D+00  6.2587256539034D-01  9.9682465428053D-01
128  1.2700000000000D+00  5.9040977966087D-01  1.0327928959569D+00
129  1.2800000000000D+00  5.5458981460445D-01  1.0682513965139D+00
130  1.2900000000000D+00  5.1850486310288D-01  1.1030719622543D+00
131  1.3000000000000D+00  4.8224871891238D-01  1.1371257534230D+00
132  1.3100000000000D+00  4.4591637426930D-01  1.1702839332393D+00
133  1.3200000000000D+00  4.0960360770063D-01  1.2024183269838D+00
134  1.3300000000000D+00  3.7340656416660D-01  1.2334020873435D+00
135  1.3400000000000D+00  3.3742132973983D-01  1.2631103621069D+00
136  1.3500000000000D+00  3.0174350300253D-01  1.2914209603322D+00
137  1.3600000000000D+00  2.6646776548368D-01  1.3182150128962D+00
138  1.3700000000000D+00  2.3168745341872D-01  1.3433776234156D+00
139  1.3800000000000D+00  1.9749413316100D-01  1.3667985054362D+00
140  1.3900000000000D+00  1.6397718258352D-01  1.3883726018250D+00
141  1.4000000000000D+00  1.3122338076992D-01  1.4080006823481D+00
142  1.4100000000000D+00  9.9316508353592D-02  1.4255899153338D+00
143  1.4200000000000D+00  6.8336960667559D-02  1.4410544097056D+00
144  1.4300000000000D+00  3.8361376071914D-02  1.4543157232689D+00
145  1.4400000000000D+00  9.4622814899963D-03  1.4653033338028D+00
146  1.4500000000000D+00 -1.8292242702735D-02  1.4739550692751D+00
147  1.4600000000000D+00 -4.4838876343697D-02  1.4802174936146D+00
148  1.4700000000000D+00 -7.0119350042333D-02  1.4840462452759D+00
149  1.4800000000000D+00 -9.4080710421164D-02  1.4854063248110D+00
150  1.4900000000000D+00 -1.1667555882332D-01  1.4842723295106D+00
151  1.5000000000000D+00 -1.3786226148889D-01  1.4806286317280D+00
152  1.5100000000000D+00 -1.5760513006197D-01  1.4744694990909D+00
153  1.5200000000000D+00 -1.7587457107090D-01  1.4657991543898D+00
154  1.5300000000000D+00 -1.9264720305467D-01  1.4546317730026D+00
155  1.5400000000000D+00 -2.0790594084913D-01  1.4409914172294D+00
156  1.5500000000000D+00 -2.2164004543231D-01  1.4249119049045D+00
157  1.5600000000000D+00 -2.3384513970512D-01  1.4064366122432D+00
158  1.5700000000000D+00 -2.4452318864273D-01  1.3856182116842D+00
159  1.5800000000000D+00 -2.5368244417049D-01  1.3625183379121D+00
160  1.5900000000000D+00 -2.6133735588492D-01  1.3372072058195D+00
161  1.6000000000000D+00 -2.6750844890022D-01  1.3097632362067D+00
162  1.6100000000000D+00 -2.7222214510577D-01  1.2802721553792D+00
163  1.6200000000000D+00 -2.7551058398043D-01  1.2488267109060D+00
164  1.6300000000000D+00 -2.7741143397713D-01  1.2155271586648D+00
165  1.6400000000000D+00 -2.7796769913404D-01  1.1804815032685D+00
166  1.6500000000000D+00 -2.7722754444825D-01  1.1438060983389D+00
167  1.6600000000000D+00 -2.7524406626755D-01  1.1056254939973D+00
168  1.6700000000000D+00 -2.7207502439624D-01  1.0660715762110D+00
169  1.6800000000000D+00 -2.6778256121236D-01  1.0252830535372D+00
170  1.6900000000000D+00 -2.6243289659151D-01  9.8340490294091D-01
171  1.7000000000000D+00 -2.5609600246440D-01  9.4058772275947D-01
172  1.7100000000000D+00 -2.4884525941070D-01  8.9698708743562D-01
173  1.7200000000000D+00 -2.4075709611141D-01  8.5276286649908D-01
174  1.7300000000000D+00 -2.3191061407170D-01  8.0807852514038D-01
175  1.7400000000000D+00 -2.2238719938782D-01  7.6310040741353D-01
176  1.7500000000000D+00 -2.1227012355428D-01  7.1799700531862D-01
177  1.7600000000000D+00 -2.0164413541341D-01  6.7293821744185D-01
178  1.7700000000000D+00 -1.9059504618019D-01  6.2809460039956D-01
179  1.7800000000000D+00 -1.7920930976897D-01  5.8363661654654D-01
180  1.7900000000000D+00 -1.6757360037767D-01  5.3973388136713D-01
181  1.8000000000000D+00 -1.5577438945090D-01  4.9655441351927D-01
182  1.8100000000000D+00 -1.4389752418819D-01  4.5426389132852D-01
183  1.8200000000000D+00 -1.3202780929717D-01  4.1302491794913D-01
184  1.8300000000000D+00 -1.2024859464477D-01  3.7299629958571D-01
185  1.8400000000000D+00 -1.0864136972179D-01  3.3433233800101D-01
186  1.8500000000000D+00 -9.7285368273249D-02  2.9718214241036D-01
187  1.8600000000000D+00 -8.6257183205802D-02  2.6168896115609D-01
188  1.8700000000000D+00 -7.5630395424063D-02  2.2798953839427D-01
189  1.8800000000000D+00 -6.5475216540956D-02  1.9621349616743D-01
190  1.8900000000000D+00 -5.5858148585510D-02  1.6648274631477D-01
191  1.9000000000000D+00 -4.6841661306709D-02  1.3891093345019D-01
192  1.9100000000000D+00 -3.8483888789196D-02  1.1360291169378D-01
193  1.9200000000000D+00 -3.0838347492118D-02  9.0654258329132D-02
194  1.9300000000000D+00 -2.3953675130136D-02  7.0150824010364D-02
195  1.9400000000000D+00 -1.7878511510959D-02  5.2183063983525D-02
196  1.9500000000000D+00 -1.2639534395541D-02  3.6783021945353D-02
197  1.9600000000000D+00 -8.2520099638578D-03  2.3954914151048D-02
198  1.9700000000000D+00 -4.7783923745744D-03  1.3844173652691D-02
199  1.9800000000000D+00 -2.2983996726599D-03  6.6515082595181D-03
200  1.9900000000000D+00 -8.0274661379004D-04  2.3267538492776D-03
201  2.0000000000000D+00 -8.0069392040912D-05  2.4193055621181D-04
202  2.0100000000000D+00  1.2486789353228D-04 -3.5156315112100D-04
203  2.0200000000000D+00  6.7291248881705D-05 -1.9084088588817D-04
204  2.0300000000000D+00 -2.4709998790019D-05  7.0379940061746D-05
205  2.0400000000000D+00 -3.7488943723764D-05  1.0687816285190D-04
206  2.0500000000000D+00 -6.8957179226073D-07  1.9667615886566D-06
207  2.0600000000000D+00  7.1046071590441D-06 -2.0275532873419D-05
208  2.0700000000000D+00  3.9395935216379D-06 -1.1250107362345D-05
209  2.0800000000000D+00  2.3973186507380D-08 -9.0323205913201D-08
210  2.0900000000000D+00  3.2321929410963D-08 -1.2177856643294D-07
211  2.1000000000000D+00  0.0000000000000D+00  0.0000000000000D+00
212  2.1100000000000D+00  0.0000000000000D+00  0.0000000000000D+00
213  2.1200000000000D+00  0.0000000000000D+00  0.0000000000000D+00
214  2.1300000000000D+00  0.0000000000000D+00  0.0000000000000D+00
215  2.1400000000000D+00  0.0000000000000D+00  0.0000000000000D+00
216  2.1500000000000D+00  0.0000000000000D+00  0.0000000000000D+00
217  2.1600000000000D+00  0.0000000000000D+00  0.0000000000000D+00
218  2.1700000000000D+00  0.0000000000000D+00  0.0000000000000D+00
219  2.1800000000000D+00  0.0000000000000D+00  0.0000000000000D+00
220  2.1900000000000D+00  0.0000000000000D+00  0.0000000000000D+00
221  2.2000000000000D+00  0.0000000000000D+00  0.0000000000000D+00
222  2.2100000000000D+00  0.0000000000000D+00  0.0000000000000D+00
223  2.2200000000000D+00  0.0000000000000D+00  0.0000000000000D+00
224  2.2300000000000D+00  0.0000000000000D+00  0.0000000000000D+00
225  2.2400000000000D+00  0.0000000000000D+00  0.0000000000000D+00
226  2.2500000000000D+00  0.0000000000000D+00  0.0000000000000D+00
227  2.2600000000000D+00  0.0000000000000D+00  0.0000000000000D+00
228  2.2700000000000D+00  0.0000000000000D+00  0.0000000000000D+00
229  2.2800000000000D+00  0.0000000000000D+00  0.0000000000000D+00
230  2.2900000000000D+00  0.0000000000000D+00  0.0000000000000D+00
231  2.3000000000000D+00  0.0000000000000D+00  0.0000000000000D+00
232  2.3100000000000D+00  0.0000000000000D+00  0.0000000000000D+00
233  2.3200000000000D+00  0.0000000000000D+00  0.0000000000000D+00
234  2.3300000000000D+00  0.0000000000000D+00  0.0000000000000D+00
235  2.3400000000000D+00  0.0000000000000D+00  0.0000000000000D+00
236  2.3500000000000D+00  0.0000000000000D+00  0.0000000000000D+00
237  2.3600000000000D+00  0.0000000000000D+00  0.0000000000000D+00
238  2.3700000000000D+00  0.0000000000000D+00  0.0000000000000D+00
239  2.3800000000000D+00  0.0000000000000D+00  0.0000000000000D+00
240  2.3900000000000D+00  0.0000000000000D+00  0.0000000000000D+00
241  2.4000000000000D+00  0.0000000000000D+00  0.0000000000000D+00
242  2.4100000000000D+00  0.0000000000000D+00  0.0000000000000D+00
243  2.4200000000000D+00  0.0000000000000D+00  0.0000000000000D+00
244  2.4300000000000D+00  0.0000000000000D+00  0.0000000000000D+00
245  2.4400000000000D+00  0.0000000000000D+00  0.0000000000000D+00
246  2.4500000000000D+00  0.0000000000000D+00  0.0000000000000D+00
247  2.4600000000000D+00  0.0000000000000D+00  0.0000000000000D+00
248  2.4700000000000D+00  0.0000000000000D+00  0.0000000000000D+00
249  2.4800000000000D+00  0.0000000000000D+00  0.0000000000000D+00
250  2.4900000000000D+00  0.0000000000000D+00  0.0000000000000D+00
251  2.5000000000000D+00  0.0000000000000D+00  0.0000000000000D+00
252  2.5100000000000D+00  0.0000000000000D+00  0.0000000000000D+00
253  2.5200000000000D+00  0.0000000000000D+00  0.0000000000000D+00
254  2.5300000000000D+00  0.0000000000000D+00  0.0000000000000D+00
255  2.5400000000000D+00  0.0000000000000D+00  0.0000000000000D+00
256  2.5500000000000D+00  0.0000000000000D+00  0.0000000000000D+00
257  2.5600000000000D+00  0.0000000000000D+00  0.0000000000000D+00
258  2.5700000000000D+00  0.0000000000000D+00  0.0000000000000D+00
259  2.5800000000000D+00  0.0000000000000D+00  0.0000000000000D+00
260  2.5900000000000D+00  0.0000000000000D+00  0.0000000000000D+00
261  2.6000000000000D+00  0.0000000000000D+00  0.0000000000000D+00
262  2.6100000000000D+00  0.0000000000000D+00  0.0000000000000D+00
263  2.6200000000000D+00  0.0000000000000D+00  0.0000000000000D+00
264  2.6300000000000D+00  0.0000000000000D+00  0.0000000000000D+00
265  2.6400000000000D+00  0.0000000000000D+00  0.0000000000000D+00
266  2.6500000000000D+00  0.0000000000000D+00  0.0000000000000D+00
267  2.6600000000000D+00  0.0000000000000D+00  0.0000000000000D+00
268  2.6700000000000D+00  0.0000000000000D+00  0.0000000000000D+00
269  2.6800000000000D+00  0.0000000000000D+00  0.0000000000000D+00
270  2.6900000000000D+00  0.0000000000000D+00  0.0000000000000D+00
271  2.7000000000000D+00  0.0000000000000D+00  0.0000000000000D+00
272  2.7100000000000D+00  0.0000000000000D+00  0.0000000000000D+00
273  2.7200000000000D+00  0.0000000000000D+00  0.0000000000000D+00
274  2.7300000000000D+00  0.0000000000000D+00  0.0000000000000D+00
275  2.7400000000000D+00  0.0000000000000D+00  0.0000000000000D+00
276  2.7500000000000D+00  0.0000000000000D+00  0.0000000000000D+00
277  2.7600000000000D+00  0.0000000000000D+00  0.0000000000000D+00
278  2.7700000000000D+00  0.0000000000000D+00  0.0000000000000D+00
279  2.7800000000000D+00  0.0000000000000D+00  0.0000000000000D+00
280  2.7900000000000D+00  0.0000000000000D+00  0.0000000000000D+00
281  2.8000000000000D+00  0.0000000000000D+00  0.0000000000000D+00
282  2.8100000000000D+00  0.0000000000000D+00  0.0000000000000D+00
283  2.8200000000000D+00  0.0000000000000D+00  0.0000000000000D+00
284  2.8300000000000D+00  0.0000000000000D+00  0.0000000000000D+00
285  2.8400000000000D+00  0.0000000000000D+00  0.0000000000000D+00
286  2.8500000000000D+00  0.0000000000000D+00  0.0000000000000D+00
287  2.8600000000000D+00  0.0000000000000D+00  0.0000000000000D+00
288  2.8700000000000D+00  0.0000000000000D+00  0.0000000000000D+00
289  2.8800000000000D+00  0.0000000000000D+00  0.0000000000000D+00
290  2.8900000000000D+00  0.0000000000000D+00  0.0000000000000D+00
291  2.9000000000000D+00  0.0000000000000D+00  0.0000000000000D+00
292  2.9100000000000D+00  0.0000000000000D+00  0.0000000000000D+00
293  2.9200000000000D+00  0.0000000000000D+00  0.0000000000000D+00
294  2.9300000000000D+00  0.0000000000000D+00  0.0000000000000D+00
295  2.9400000000000D+00  0.0000000000000D+00  0.0000000000000D+00
296  2.9500000000000D+00  0.0000000000000D+00  0.0000000000000D+00
297  2.9600000000000D+00  0.0000000000000D+00  0.0000000000000D+00
298  2.9700000000000D+00  0.0000000000000D+00  0.0000000000000D+00
299  2.9800000000000D+00  0.0000000000000D+00  0.0000000000000D+00
300  2.9900000000000D+00  0.0000000000000D+00  0.0000000000000D+00
301  3.0000000000000D+00  0.0000000000000D+00  0.0000000000000D+00
302  3.0100000000000D+00  0.0000000000000D+00  0.0000000000000D+00
303  3.0200000000000D+00  0.0000000000000D+00  0.0000000000000D+00
304  3.0300000000000D+00  0.0000000000000D+00  0.0000000000000D+00
305  3.0400000000000D+00  0.0000000000000D+00  0.0000000000000D+00
306  3.0500000000000D+00  0.0000000000000D+00  0.0000000000000D+00
307  3.0600000000000D+00  0.0000000000000D+00  0.0000000000000D+00
308  3.0700000000000D+00  0.0000000000000D+00  0.0000000000000D+00
309  3.0800000000000D+00  0.0000000000000D+00  0.0000000000000D+00
310  3.0900000000000D+00  0.0000000000000D+00  0.0000000000000D+00
311  3.1000000000000D+00  0.0000000000000D+00  0.0000000000000D+00
312  3.1100000000000D+00  0.0000000000000D+00  0.0000000000000D+00
313  3.1200000000000D+00  0.0000000000000D+00  0.0000000000000D+00
314  3.1300000000000D+00  0.0000000000000D+00  0.0000000000000D+00
315  3.1400000000000D+00  0.0000000000000D+00  0.0000000000000D+00
316  3.1500000000000D+00  0.0000000000000D+00  0.0000000000000D+00
317  3.1600000000000D+00  0.0000000000000D+00  0.0000000000000D+00
318  3.1700000000000D+00  0.0000000000000D+00  0.0000000000000D+00
319  3.1800000000000D+00  0.0000000000000D+00  0.0000000000000D+00
320  3.1900000000000D+00  0.0000000000000D+00  0.0000000000000D+00
321  3.2000000000000D+00  0.0000000000000D+00  0.0000000000000D+00
322  3.2100000000000D+00  0.0000000000000D+00  0.0000000000000D+00
323  3.2200000000000D+00  0.0000000000000D+00  0.0000000000000D+00
324  3.2300000000000D+00  0.0000000000000D+00  0.0000000000000D+00
325  3.2400000000000D+00  0.0000000000000D+00  0.0000000000000D+00
326  3.2500000000000D+00  0.0000000000000D+00  0.0000000000000D+00
327  3.2600000000000D+00  0.0000000000000D+00  0.0000000000000D+00
328  3.2700000000000D+00  0.0000000000000D+00  0.0000000000000D+00
329  3.2800000000000D+00  0.0000000000000D+00  0.0000000000000D+00
330  3.2900000000000D+00  0.0000000000000D+00  0.0000000000000D+00
331  3.3000000000000D+00  0.0000000000000D+00  0.0000000000000D+00
332  3.3100000000000D+00  0.0000000000000D+00  0.0000000000000D+00
333  3.3200000000000D+00  0.0000000000000D+00  0.0000000000000D+00
334  3.3300000000000D+00  0.0000000000000D+00  0.0000000000000D+00
335  3.3400000000000D+00  0.0000000000000D+00  0.0000000000000D+00
336  3.3500000000000D+00  0.0000000000000D+00  0.0000000000000D+00
337  3.3600000000000D+00  0.0000000000000D+00  0.0000000000000D+00
338  3.3700000000000D+00  0.0000000000000D+00  0.0000000000000D+00
339  3.3800000000000D+00  0.0000000000000D+00  0.0000000000000D+00
340  3.3900000000000D+00  0.0000000000000D+00  0.0000000000000D+00
341  3.4000000000000D+00  0.0000000000000D+00  0.0000000000000D+00
342  3.4100000000000D+00  0.0000000000000D+00  0.0000000000000D+00
343  3.4200000000000D+00  0.0000000000000D+00  0.0000000000000D+00
344  3.4300000000000D+00  0.0000000000000D+00  0.0000000000000D+00
345  3.4400000000000D+00  0.0000000000000D+00  0.0000000000000D+00
346  3.4500000000000D+00  0.0000000000000D+00  0.0000000000000D+00
347  3.4600000000000D+00  0.0000000000000D+00  0.0000000000000D+00
348  3.4700000000000D+00  0.0000000000000D+00  0.0000000000000D+00
349  3.4800000000000D+00  0.0000000000000D+00  0.0000000000000D+00
350  3.4900000000000D+00  0.0000000000000D+00  0.0000000000000D+00
351  3.5000000000000D+00  0.0000000000000D+00  0.0000000000000D+00
352  3.5100000000000D+00  0.0000000000000D+00  0.0000000000000D+00
353  3.5200000000000D+00  0.0000000000000D+00  0.0000000000000D+00
354  3.5300000000000D+00  0.0000000000000D+00  0.0000000000000D+00
355  3.5400000000000D+00  0.0000000000000D+00  0.0000000000000D+00
356  3.5500000000000D+00  0.0000000000000D+00  0.0000000000000D+00
357  3.5600000000000D+00  0.0000000000000D+00  0.0000000000000D+00
358  3.5700000000000D+00  0.0000000000000D+00  0.0000000000000D+00
359  3.5800000000000D+00  0.0000000000000D+00  0.0000000000000D+00
360  3.5900000000000D+00  0.0000000000000D+00  0.0000000000000D+00
361  3.6000000000000D+00  0.0000000000000D+00  0.0000000000000D+00
362  3.6100000000000D+00  0.0000000000000D+00  0.0000000000000D+00
363  3.6200000000000D+00  0.0000000000000D+00  0.0000000000000D+00
364  3.6300000000000D+00  0.0000000000000D+00  0.0000000000000D+00
365  3.6400000000000D+00  0.0000000000000D+00  0.0000000000000D+00
366  3.6500000000000D+00  0.0000000000000D+00  0.0000000000000D+00
367  3.6600000000000D+00  0.0000000000000D+00  0.0000000000000D+00
368  3.6700000000000D+00  0.0000000000000D+00  0.0000000000000D+00
369  3.6800000000000D+00  0.0000000000000D+00  0.0000000000000D+00
370  3.6900000000000D+00  0.0000000000000D+00  0.0000000000000D+00
371  3.7000000000000D+00  0.0000000000000D+00  0.0000000000000D+00
372  3.7100000000000D+00  0.0000000000000D+00  0.0000000000000D+00
373  3.7200000000000D+00  0.0000000000000D+00  0.0000000000000D+00
374  3.7300000000000D+00  0.0000000000000D+00  0.0000000000000D+00
375  3.7400000000000D+00  0.0000000000000D+00  0.0000000000000D+00
376  3.7500000000000D+00  0.0000000000000D+00  0.0000000000000D+00
377  3.7600000000000D+00  0.0000000000000D+00  0.0000000000000D+00
378  3.7700000000000D+00  0.0000000000000D+00  0.0000000000000D+00
379  3.7800000000000D+00  0.0000000000000D+00  0.0000000000000D+00
380  3.7900000000000D+00  0.0000000000000D+00  0.0000000000000D+00
381  3.8000000000000D+00  0.0000000000000D+00  0.0000000000000D+00
382  3.8100000000000D+00  0.0000000000000D+00  0.0000000000000D+00
383  3.8200000000000D+00  0.0000000000000D+00  0.0000000000000D+00
384  3.8300000000000D+00  0.0000000000000D+00  0.0000000000000D+00
385  3.8400000000000D+00  0.0000000000000D+00  0.0000000000000D+00
386  3.8500000000000D+00  0.0000000000000D+00  0.0000000000000D+00
387  3.8600000000000D+00  0.0000000000000D+00  0.0000000000000D+00
388  3.8700000000000D+00  0.0000000000000D+00  0.0000000000000D+00
389  3.8800000000000D+00  0.0000000000000D+00  0.0000000000000D+00
390  3.8900000000000D+00  0.0000000000000D+00  0.0000000000000D+00
391  3.9000000000000D+00  0.0000000000000D+00  0.0000000000000D+00
392  3.9100000000000D+00  0.0000000000000D+00  0.0000000000000D+00
393  3.9200000000000D+00  0.0000000000000D+00  0.0000000000000D+00
394  3.9300000000000D+00  0.0000000000000D+00  0.0000000000000D+00
395  3.9400000000000D+00  0.0000000000000D+00  0.0000000000000D+00
396  3.9500000000000D+00  0.0000000000000D+00  0.0000000000000D+00
397  3.9600000000000D+00  0.0000000000000D+00  0.0000000000000D+00
398  3.9700000000000D+00  0.0000000000000D+00  0.0000000000000D+00
399  3.9800000000000D+00  0.0000000000000D+00  0.0000000000000D+00
400  3.9900000000000D+00  0.0000000000000D+00  0.0000000000000D+00
401  4.0000000000000D+00  0.0000000000000D+00  0.0000000000000D+00
402  4.0100000000000D+00  0.0000000000000D+00  0.0000000000000D+00
403  4.0200000000000D+00  0.0000000000000D+00  0.0000000000000D+00
404  4.0300000000000D+00  0.0000000000000D+00  0.0000000000000D+00
405  4.0400000000000D+00  0.0000000000000D+00  0.0000000000000D+00
406  4.0500000000000D+00  0.0000000000000D+00  0.0000000000000D+00
407  4.0600000000000D+00  0.0000000000000D+00  0.0000000000000D+00
408  4.0700000000000D+00  0.0000000000000D+00  0.0000000000000D+00
409  4.0800000000000D+00  0.0000000000000D+00  0.0000000000000D+00
410  4.0900000000000D+00  0.0000000000000D+00  0.0000000000000D+00
411  4.1000000000000D+00  0.0000000000000D+00  0.0000000000000D+00
412  4.1100000000000D+00  0.0000000000000D+00  0.0000000000000D+00
413  4.1200000000000D+00  0.0000000000000D+00  0.0000000000000D+00
414  4.1300000000000D+00  0.0000000000000D+00  0.0000000000000D+00
415  4.1400000000000D+00  0.0000000000000D+00  0.0000000000000D+00
416  4.1500000000000D+00  0.0000000000000D+00  0.0000000000000D+00
417  4.1600000000000D+00  0.0000000000000D+00  0.0000000000000D+00
418  4.1700000000000D+00  0.0000000000000D+00  0.0000000000000D+00
419  4.1800000000000D+00  0.0000000000000D+00  0.0000000000000D+00
420  4.1900000000000D+00  0.0000000000000D+00  0.0000000000000D+00
421  4.2000000000000D+00  0.0000000000000D+00  0.0000000000000D+00
422  4.2100000000000D+00  0.0000000000000D+00  0.0000000000000D+00
423  4.2200000000000D+00  0.0000000000000D+00  0.0000000000000D+00
424  4.2300000000000D+00  0.0000000000000D+00  0.0000000000000D+00
425  4.2400000000000D+00  0.0000000000000D+00  0.0000000000000D+00
426  4.2500000000000D+00  0.0000000000000D+00  0.0000000000000D+00
427  4.2600000000000D+00  0.0000000000000D+00  0.0000000000000D+00
428  4.2700000000000D+00  0.0000000000000D+00  0.0000000000000D+00
429  4.2800000000000D+00  0.0000000000000D+00  0.0000000000000D+00
430  4.2900000000000D+00  0.0000000000000D+00  0.0000000000000D+00
431  4.3000000000000D+00  0.0000000000000D+00  0.0000000000000D+00
432  4.3100000000000D+00  0.0000000000000D+00  0.0000000000000D+00
433  4.3200000000000D+00  0.0000000000000D+00  0.0000000000000D+00
434  4.3300000000000D+00  0.0000000000000D+00  0.0000000000000D+00
435  4.3400000000000D+00  0.0000000000000D+00  0.0000000000000D+00
436  4.3500000000000D+00  0.0000000000000D+00  0.0000000000000D+00
437  4.3600000000000D+00  0.0000000000000D+00  0.0000000000000D+00
438  4.3700000000000D+00  0.0000000000000D+00  0.0000000000000D+00
439  4.3800000000000D+00  0.0000000000000D+00  0.0000000000000D+00
440  4.3900000000000D+00  0.0000000000000D+00  0.0000000000000D+00
441  4.4000000000000D+00  0.0000000000000D+00  0.0000000000000D+00
442  4.4100000000000D+00  0.0000000000000D+00  0.0000000000000D+00
443  4.4200000000000D+00  0.0000000000000D+00  0.0000000000000D+00
444  4.4300000000000D+00  0.0000000000000D+00  0.0000000000000D+00