Se    ONCVPSP-3.2.3  r_core=   1.81943   1.50330   1.90835
34.0000     16.0000      161006    zatom,zion,pspd
8   -1012   2     4   600     0    pspcod,pspxc,lmax,lloc,mmax,r2well
5.99000000  5.00000000  0.00000000    rchrg fchrg qchrg
2     2     2     0     0    nproj
1     1           extension_switch
0                         8.7285117289440D+00  9.8357122473999D-01
1  0.0000000000000D+00 -2.1703694397246D-11  1.3748058247387D-10
2  1.0000000000000D-02  3.6705556589415D-02 -2.2891560944256D-02
3  2.0000000000000D-02  7.3386116246562D-02 -4.5713482153412D-02
4  3.0000000000000D-02  1.1001670837238D-01 -6.8396507570576D-02
5  4.0000000000000D-02  1.4657241462587D-01 -9.0872144881517D-02
6  5.0000000000000D-02  1.8302839403770D-01 -1.1307303838677D-01
7  6.0000000000000D-02  2.1935990692097D-01 -1.3493333117283D-01
8  7.0000000000000D-02  2.5554233720376D-01 -1.5638901317803D-01
9  8.0000000000000D-02  2.9155121283001D-01 -1.7737825188631D-01
10  9.0000000000000D-02  3.2736222390193D-01 -1.9784170255149D-01
11  1.0000000000000D-01  3.6295123826854D-01 -2.1772279505466D-01
12  1.1000000000000D-01  3.9829431430096D-01 -2.3696799472625D-01
13  1.2000000000000D-01  4.3336771063479D-01 -2.5552703471920D-01
14  1.3000000000000D-01  4.6814789270375D-01 -2.7335311779966D-01
15  1.4000000000000D-01  5.0261153593510D-01 -2.9040308572268D-01
16  1.5000000000000D-01  5.3673552552713D-01 -3.0663755468065D-01
17  1.6000000000000D-01  5.7049695278035D-01 -3.2202101564868D-01
18  1.7000000000000D-01  6.0387310800730D-01 -3.3652189880012D-01
19  1.8000000000000D-01  6.3684147010012D-01 -3.5011260152446D-01
20  1.9000000000000D-01  6.6937969288964D-01 -3.6276947994509D-01
21  2.0000000000000D-01  7.0146558848447D-01 -3.7447280420252D-01
22  2.1000000000000D-01  7.3307710783220D-01 -3.8520667813655D-01
23  2.2000000000000D-01  7.6419231879728D-01 -3.9495892436423D-01
24  2.3000000000000D-01  7.9478938210082D-01 -4.0372093610715D-01
25  2.4000000000000D-01  8.2484652551522D-01 -4.1148749746638D-01
26  2.5000000000000D-01  8.5434201675159D-01 -4.1825657417513D-01
27  2.6000000000000D-01  8.8325413551884D-01 -4.2402907717241D-01
28  2.7000000000000D-01  9.1156114527040D-01 -4.2880860163409D-01
29  2.8000000000000D-01  9.3924126518670D-01 -4.3260114436765D-01
30  2.9000000000000D-01  9.6627264296846D-01 -4.3541480271965D-01
31  3.0000000000000D-01  9.9263332903755D-01 -4.3725945835994D-01
32  3.1000000000000D-01  1.0183012527575D+00 -4.3814644948935D-01
33  3.2000000000000D-01  1.0432542012950D+00 -4.3808823516818D-01
34  3.3000000000000D-01  1.0674698017467D+00 -4.3709805557760D-01
35  3.4000000000000D-01  1.0909255071509D+00 -4.3518959210511D-01
36  3.5000000000000D-01  1.1135985869946D+00 -4.3237663118620D-01
37  3.6000000000000D-01  1.1354661228047D+00 -4.2867273583719D-01
38  3.7000000000000D-01  1.1565050093934D+00 -4.2409092877859D-01
39  3.8000000000000D-01  1.1766919622885D+00 -4.1864339097278D-01
40  3.9000000000000D-01  1.1960035318478D+00 -4.1234117928694D-01
41  4.0000000000000D-01  1.2144161245071D+00 -4.0519396683959D-01
42  4.1000000000000D-01  1.2319060315600D+00 -3.9720980940115D-01
43  4.2000000000000D-01  1.2484494658129D+00 -3.8839494099331D-01
44  4.3000000000000D-01  1.2640226063914D+00 -3.7875360157364D-01
45  4.4000000000000D-01  1.2786016519090D+00 -3.6828789940062D-01
46  4.5000000000000D-01  1.2921628821323D+00 -3.5699771035311D-01
47  4.6000000000000D-01  1.3046827282032D+00 -3.4488061613003D-01
48  4.7000000000000D-01  1.3161378513931D+00 -3.3193188288356D-01
49  4.8000000000000D-01  1.3265052302850D+00 -3.1814448144484D-01
50  4.9000000000000D-01  1.3357622561871D+00 -3.0350914988994D-01
51  5.0000000000000D-01  1.3438868365012D+00 -2.8801449876766D-01
52  5.1000000000000D-01  1.3508575056729D+00 -2.7164715887450D-01
53  5.2000000000000D-01  1.3566535432688D+00 -2.5439197101979D-01
54  5.3000000000000D-01  1.3612550986349D+00 -2.3623221677849D-01
55  5.4000000000000D-01  1.3646433215058D+00 -2.1714988878604D-01
56  5.5000000000000D-01  1.3668004978506D+00 -1.9712599869277D-01
57  5.6000000000000D-01  1.3677101901641D+00 -1.7614092046768D-01
58  5.7000000000000D-01  1.3673573813323D+00 -1.5417476632924D-01
59  5.8000000000000D-01  1.3657286211347D+00 -1.3120779218638D-01
60  5.9000000000000D-01  1.3628121743795D+00 -1.0722082910122D-01
61  6.0000000000000D-01  1.3585981696087D+00 -8.2195736939479D-02
62  6.1000000000000D-01  1.3530787472623D+00 -5.6115876059654D-02
63  6.2000000000000D-01  1.3462482061439D+00 -2.8966592609113D-02
64  6.3000000000000D-01  1.3381031469985D+00 -7.3571275123779D-04
65  6.4000000000000D-01  1.3286426119864D+00  2.8585959059003D-02
66  6.5000000000000D-01  1.3178682188211D+00  5.9004142796797D-02
67  6.6000000000000D-01  1.3057842883330D+00  9.0520591751256D-02
68  6.7000000000000D-01  1.2923979642248D+00  1.2313261280916D-01
69  6.8000000000000D-01  1.2777193237989D+00  1.5683260340124D-01
70  6.9000000000000D-01  1.2617614784609D+00  1.9160761035036D-01
71  7.0000000000000D-01  1.2445406628412D+00  2.2743891578702D-01
72  7.1000000000000D-01  1.2260763114202D+00  2.6430165517546D-01
73  7.2000000000000D-01  1.2063911216004D+00  3.0216447232060D-01
74  7.3000000000000D-01  1.1855111022362D+00  3.4098921600581D-01
75  7.4000000000000D-01  1.1634656067063D+00  3.8073068264283D-01
76  7.5000000000000D-01  1.1402873497039D+00  4.2133640900055D-01
77  7.6000000000000D-01  1.1160124070097D+00  4.6274651872180D-01
78  7.7000000000000D-01  1.0906801976216D+00  5.0489362593777D-01
79  7.8000000000000D-01  1.0643334477225D+00  5.4770279885208D-01
80  7.9000000000000D-01  1.0370181360874D+00  5.9109158569434D-01
81  8.0000000000000D-01  1.0087834206556D+00  6.3497010493776D-01
82  8.1000000000000D-01  9.7968154612249D-01  6.7924120114716D-01
83  8.2000000000000D-01  9.4976773254025D-01  7.2380066726630D-01
84  8.3000000000000D-01  9.1910004505347D-01  7.6853753358381D-01
85  8.4000000000000D-01  8.8773924503531D-01  8.1333442303018D-01
86  8.5000000000000D-01  8.5574862303024D-01  8.5806797186517D-01
87  8.6000000000000D-01  8.2319381404977D-01  9.0260931421743D-01
88  8.7000000000000D-01  7.9014259590719D-01  9.4682462834411D-01
89  8.8000000000000D-01  7.5666467141371D-01  9.9057574189068D-01
90  8.9000000000000D-01  7.2283143539240D-01  1.0337207928578D+00
91  9.0000000000000D-01  6.8871572759462D-01  1.0761149424261D+00
92  9.1000000000000D-01  6.5439157272671D-01  1.1176111352583D+00
93  9.2000000000000D-01  6.1993390891122D-01  1.1580609023936D+00
94  9.3000000000000D-01  5.8541830601384D-01  1.1973152013834D+00
95  9.4000000000000D-01  5.5092067536788D-01  1.2352252878829D+00
96  9.5000000000000D-01  5.1651697251621D-01  1.2716436125261D+00
97  9.6000000000000D-01  4.8228289466965D-01  1.3064247365715D+00
98  9.7000000000000D-01  4.4829357464708D-01  1.3394262595160D+00
99  9.8000000000000D-01  4.1462327311783D-01  1.3705097516349D+00
100  9.9000000000000D-01  3.8134507100788D-01  1.3995416842303D+00
101  1.0000000000000D+00  3.4853056396016D-01  1.4263943502461D+00
102  1.0100000000000D+00  3.1624956075278D-01  1.4509467678532D+00
103  1.0200000000000D+00  2.8456978758063D-01  1.4730855596052D+00
104  1.0300000000000D+00  2.5355660009062D-01  1.4927057998368D+00
105  1.0400000000000D+00  2.2327270503281D-01  1.5097118231040D+00
106  1.0500000000000D+00  1.9377789334736D-01  1.5240179866576D+00
107  1.0600000000000D+00  1.6512878644892D-01  1.5355493802040D+00
108  1.0700000000000D+00  1.3737859740034D-01  1.5442424765149D+00
109  1.0800000000000D+00  1.1057690858682D-01  1.5500457168137D+00
110  1.0900000000000D+00  8.4769467397836D-02  1.5529200253235D+00
111  1.1000000000000D+00  5.9998001322199D-02  1.5528392478139D+00
112  1.1100000000000D+00  3.6300053729304D-02  1.5497905095709D+00
113  1.1200000000000D+00  1.3708841500821D-02  1.5437744886924D+00
114  1.1300000000000D+00 -7.7468644869462D-03  1.5348056013343D+00
115  1.1400000000000D+00 -2.8042835165442D-02  1.5229120961266D+00
116  1.1500000000000D+00 -4.7159454669313D-02  1.5081360557348D+00
117  1.1600000000000D+00 -6.5081766761805D-02  1.4905333041016D+00
118  1.1700000000000D+00 -8.1799495930312D-02  1.4701732187881D+00
119  1.1800000000000D+00 -9.7307042947053D-02  1.4471384485005D+00
120  1.1900000000000D+00 -1.1160345488720D-01  1.4215245367364D+00
121  1.2000000000000D+00 -1.2469236969879D-01  1.3934394529225D+00
122  1.2100000000000D+00 -1.3658193569160D-01  1.3630030335781D+00
123  1.2200000000000D+00 -1.4728470643516D-01  1.3303463365503D+00
124  1.2300000000000D+00 -1.5681751169538D-01  1.2956109119546D+00
125  1.2400000000000D+00 -1.6520130524937D-01  1.2589479943305D+00
126  1.2500000000000D+00 -1.7246099058402D-01  1.2205176211966D+00
127  1.2600000000000D+00 -1.7862522558469D-01  1.1804876835912D+00
128  1.2700000000000D+00 -1.8372620748029D-01  1.1390329148447D+00
129  1.2800000000000D+00 -1.8779943949824D-01  1.0963338245411D+00
130  1.2900000000000D+00 -1.9088348072276D-01  1.0525755847752D+00
131  1.3000000000000D+00 -1.9301968079019D-01  1.0079468763617D+00
132  1.3100000000000D+00 -1.9425190120620D-01  9.6263870316067D-01
133  1.3200000000000D+00 -1.9462622505810D-01  9.1684318263004D-01
134  1.3300000000000D+00 -1.9419065703543D-01  8.7075232121975D-01
135  1.3400000000000D+00 -1.9299481572374D-01  8.2455678325102D-01
136  1.3500000000000D+00 -1.9108962012416D-01  7.7844466194414D-01
137  1.3600000000000D+00 -1.8852697245625D-01  7.3260026147117D-01
138  1.3700000000000D+00 -1.8535943922706D-01  6.8720289842634D-01
139  1.3800000000000D+00 -1.8163993263093D-01  6.4242573161963D-01
140  1.3900000000000D+00 -1.7742139424764D-01  5.9843462815793D-01
141  1.4000000000000D+00 -1.7275648299864D-01  5.5538707393046D-01
142  1.4100000000000D+00 -1.6769726935121D-01  5.1343113656935D-01
143  1.4200000000000D+00 -1.6229493746368D-01  4.7270448725733D-01
144  1.4300000000000D+00 -1.5659949726056D-01  4.3333348945090D-01
145  1.4400000000000D+00 -1.5065950792914D-01  3.9543235967661D-01
146  1.4500000000000D+00 -1.4452181449826D-01  3.5910240661733D-01
147  1.4600000000000D+00 -1.3823129832084D-01  3.2443134980555D-01
148  1.4700000000000D+00 -1.3183064587024D-01  2.9149274059516D-01
149  1.4800000000000D+00 -1.2536013052000D-01  2.6034544888173D-01
150  1.4900000000000D+00 -1.1885744044568D-01  2.3103340367622D-01
151  1.5000000000000D+00 -1.1235741048781D-01  2.0358478347546D-01
152  1.5100000000000D+00 -1.0589196580167D-01  1.7801237802656D-01
153  1.5200000000000D+00 -9.9490275028605D-02  1.5431516502962D-01
154  1.5300000000000D+00 -9.3178911151138D-02  1.3247970774995D-01
155  1.5400000000000D+00 -8.6982137311442D-02  1.1248214501867D-01
156  1.5500000000000D+00 -8.0921908398545D-02  9.4288516081996D-02
157  1.5600000000000D+00 -7.5017855484712D-02  7.7854910994203D-02
158  1.5700000000000D+00 -6.9287374761591D-02  6.3128264526522D-02
159  1.5800000000000D+00 -6.3745681954838D-02  5.0046908669948D-02
160  1.5900000000000D+00 -5.8405897203496D-02  3.8541291418245D-02
161  1.6000000000000D+00 -5.3279136976442D-02  2.8534719516043D-02
162  1.6100000000000D+00 -4.8374618116975D-02  1.9944156023750D-02
163  1.6200000000000D+00 -4.3699771613569D-02  1.2681059348330D-02
164  1.6300000000000D+00 -3.9260364997287D-02  6.6522577517255D-03
165  1.6400000000000D+00 -3.5060631841296D-02  1.7608512312792D-03
166  1.6500000000000D+00 -3.1103407024260D-02 -2.0928663558342D-03
167  1.6600000000000D+00 -2.7390266208357D-02 -5.0104731556179D-03
168  1.6700000000000D+00 -2.3921668117920D-02 -7.0944806077067D-03
169  1.6800000000000D+00 -2.0697097989189D-02 -8.4473987959629D-03
170  1.6900000000000D+00 -1.7715210849958D-02 -9.1708128644486D-03
171  1.7000000000000D+00 -1.4973972894771D-02 -9.3644796463330D-03
172  1.7100000000000D+00 -1.2470799794479D-02 -9.1254505452243D-03
173  1.7200000000000D+00 -1.0202690130134D-02 -8.5472301684595D-03
174  1.7300000000000D+00 -8.1663530097057D-03 -7.7189756030718D-03
175  1.7400000000000D+00 -6.3583280867542D-03 -6.7247456364818D-03
176  1.7500000000000D+00 -4.7750972069174D-03 -5.6428039502815D-03
177  1.7600000000000D+00 -3.4134299578867D-03 -4.5466907277376D-03
178  1.7700000000000D+00 -2.2696253059223D-03 -3.4987097512839D-03
179  1.7800000000000D+00 -1.3399068425112D-03 -2.5437130333691D-03
180  1.7900000000000D+00 -6.2233446948420D-04 -1.7444866525563D-03
181  1.8000000000000D+00 -1.1380296390293D-04 -1.1996418577883D-03
182  1.8100000000000D+00  1.8926508265711D-04 -9.1638905493169D-04
183  1.8200000000000D+00  2.7734732209749D-04 -6.8991159905973D-04
184  1.8300000000000D+00  1.6957382797474D-04 -3.4181369743800D-04
185  1.8400000000000D+00  1.6112855559991D-05 -2.9778217086618D-05
186  1.8500000000000D+00 -3.7063307385711D-05  6.5884202450001D-05
187  1.8600000000000D+00 -1.4092939087585D-05  2.4194764510730D-05
188  1.8700000000000D+00  7.0131365119379D-06 -1.3406654855511D-05
189  1.8800000000000D+00  5.3676196792037D-06 -1.0100003719909D-05
190  1.8900000000000D+00 -4.9222192161207D-07  1.2482393935825D-06
191  1.9000000000000D+00 -7.0185851938208D-07  1.7798627288784D-06
192  1.9100000000000D+00  0.0000000000000D+00  0.0000000000000D+00
193  1.9200000000000D+00  0.0000000000000D+00  0.0000000000000D+00
194  1.9300000000000D+00  0.0000000000000D+00  0.0000000000000D+00
195  1.9400000000000D+00  0.0000000000000D+00  0.0000000000000D+00
196  1.9500000000000D+00  0.0000000000000D+00  0.0000000000000D+00
197  1.9600000000000D+00  0.0000000000000D+00  0.0000000000000D+00
198  1.9700000000000D+00  0.0000000000000D+00  0.0000000000000D+00
199  1.9800000000000D+00  0.0000000000000D+00  0.0000000000000D+00
200  1.9900000000000D+00  0.0000000000000D+00  0.0000000000000D+00
201  2.0000000000000D+00  0.0000000000000D+00  0.0000000000000D+00
202  2.0100000000000D+00  0.0000000000000D+00  0.0000000000000D+00
203  2.0200000000000D+00  0.0000000000000D+00  0.0000000000000D+00
204  2.0300000000000D+00  0.0000000000000D+00  0.0000000000000D+00
205  2.0400000000000D+00  0.0000000000000D+00  0.0000000000000D+00
206  2.0500000000000D+00  0.0000000000000D+00  0.0000000000000D+00
207  2.0600000000000D+00  0.0000000000000D+00  0.0000000000000D+00
208  2.0700000000000D+00  0.0000000000000D+00  0.0000000000000D+00
209  2.0800000000000D+00  0.0000000000000D+00  0.0000000000000D+00
210  2.0900000000000D+00  0.0000000000000D+00  0.0000000000000D+00
211  2.1000000000000D+00  0.0000000000000D+00  0.0000000000000D+00
212  2.1100000000000D+00  0.0000000000000D+00  0.0000000000000D+00
213  2.1200000000000D+00  0.0000000000000D+00  0.0000000000000D+00
214  2.1300000000000D+00  0.0000000000000D+00  0.0000000000000D+00
215  2.1400000000000D+00  0.0000000000000D+00  0.0000000000000D+00
216  2.1500000000000D+00  0.0000000000000D+00  0.0000000000000D+00
217  2.1600000000000D+00  0.0000000000000D+00  0.0000000000000D+00
218  2.1700000000000D+00  0.0000000000000D+00  0.0000000000000D+00
219  2.1800000000000D+00  0.0000000000000D+00  0.0000000000000D+00
220  2.1900000000000D+00  0.0000000000000D+00  0.0000000000000D+00
221  2.2000000000000D+00  0.0000000000000D+00  0.0000000000000D+00
222  2.2100000000000D+00  0.0000000000000D+00  0.0000000000000D+00
223  2.2200000000000D+00  0.0000000000000D+00  0.0000000000000D+00
224  2.2300000000000D+00  0.0000000000000D+00  0.0000000000000D+00
225  2.2400000000000D+00  0.0000000000000D+00  0.0000000000000D+00
226  2.2500000000000D+00  0.0000000000000D+00  0.0000000000000D+00
227  2.2600000000000D+00  0.0000000000000D+00  0.0000000000000D+00
228  2.2700000000000D+00  0.0000000000000D+00  0.0000000000000D+00
229  2.2800000000000D+00  0.0000000000000D+00  0.0000000000000D+00
230  2.2900000000000D+00  0.0000000000000D+00  0.0000000000000D+00
231  2.3000000000000D+00  0.0000000000000D+00  0.0000000000000D+00
232  2.3100000000000D+00  0.0000000000000D+00  0.0000000000000D+00
233  2.3200000000000D+00  0.0000000000000D+00  0.0000000000000D+00
234  2.3300000000000D+00  0.0000000000000D+00  0.0000000000000D+00
235  2.3400000000000D+00  0.0000000000000D+00  0.0000000000000D+00
236  2.3500000000000D+00  0.0000000000000D+00  0.0000000000000D+00
237  2.3600000000000D+00  0.0000000000000D+00  0.0000000000000D+00
238  2.3700000000000D+00  0.0000000000000D+00  0.0000000000000D+00
239  2.3800000000000D+00  0.0000000000000D+00  0.0000000000000D+00
240  2.3900000000000D+00  0.0000000000000D+00  0.0000000000000D+00
241  2.4000000000000D+00  0.0000000000000D+00  0.0000000000000D+00
242  2.4100000000000D+00  0.0000000000000D+00  0.0000000000000D+00
243  2.4200000000000D+00  0.0000000000000D+00  0.0000000000000D+00
244  2.4300000000000D+00  0.0000000000000D+00  0.0000000000000D+00
245  2.4400000000000D+00  0.0000000000000D+00  0.0000000000000D+00
246  2.4500000000000D+00  0.0000000000000D+00  0.0000000000000D+00
247  2.4600000000000D+00  0.0000000000000D+00  0.0000000000000D+00
248  2.4700000000000D+00  0.0000000000000D+00  0.0000000000000D+00
249  2.4800000000000D+00  0.0000000000000D+00  0.0000000000000D+00
250  2.4900000000000D+00  0.0000000000000D+00  0.0000000000000D+00
251  2.5000000000000D+00  0.0000000000000D+00  0.0000000000000D+00
252  2.5100000000000D+00  0.0000000000000D+00  0.0000000000000D+00
253  2.5200000000000D+00  0.0000000000000D+00  0.0000000000000D+00
254  2.5300000000000D+00  0.0000000000000D+00  0.0000000000000D+00
255  2.5400000000000D+00  0.0000000000000D+00  0.0000000000000D+00
256  2.5500000000000D+00  0.0000000000000D+00  0.0000000000000D+00
257  2.5600000000000D+00  0.0000000000000D+00  0.0000000000000D+00
258  2.5700000000000D+00  0.0000000000000D+00  0.0000000000000D+00
259  2.5800000000000D+00  0.0000000000000D+00  0.0000000000000D+00
260  2.5900000000000D+00  0.0000000000000D+00  0.0000000000000D+00
261  2.6000000000000D+00  0.0000000000000D+00  0.0000000000000D+00
262  2.6100000000000D+00  0.0000000000000D+00  0.0000000000000D+00
263  2.6200000000000D+00  0.0000000000000D+00  0.0000000000000D+00
264  2.6300000000000D+00  0.0000000000000D+00  0.0000000000000D+00
265  2.6400000000000D+00  0.0000000000000D+00  0.0000000000000D+00
266  2.6500000000000D+00  0.0000000000000D+00  0.0000000000000D+00
267  2.6600000000000D+00  0.0000000000000D+00  0.0000000000000D+00
268  2.6700000000000D+00  0.0000000000000D+00  0.0000000000000D+00
269  2.6800000000000D+00  0.0000000000000D+00  0.0000000000000D+00
270  2.6900000000000D+00  0.0000000000000D+00  0.0000000000000D+00
271  2.7000000000000D+00  0.0000000000000D+00  0.0000000000000D+00
272  2.7100000000000D+00  0.0000000000000D+00  0.0000000000000D+00
273  2.7200000000000D+00  0.0000000000000D+00  0.0000000000000D+00
274  2.7300000000000D+00  0.0000000000000D+00  0.0000000000000D+00
275  2.7400000000000D+00  0.0000000000000D+00  0.0000000000000D+00
276  2.7500000000000D+00  0.0000000000000D+00  0.0000000000000D+00
277  2.7600000000000D+00  0.0000000000000D+00  0.0000000000000D+00
278  2.7700000000000D+00  0.0000000000000D+00  0.0000000000000D+00
279  2.7800000000000D+00  0.0000000000000D+00  0.0000000000000D+00
280  2.7900000000000D+00  0.0000000000000D+00  0.0000000000000D+00
281  2.8000000000000D+00  0.0000000000000D+00  0.0000000000000D+00
282  2.8100000000000D+00  0.0000000000000D+00  0.0000000000000D+00
283  2.8200000000000D+00  0.0000000000000D+00  0.0000000000000D+00
284  2.8300000000000D+00  0.0000000000000D+00  0.0000000000000D+00
285  2.8400000000000D+00  0.0000000000000D+00  0.0000000000000D+00
286  2.8500000000000D+00  0.0000000000000D+00  0.0000000000000D+00
287  2.8600000000000D+00  0.0000000000000D+00  0.0000000000000D+00
288  2.8700000000000D+00  0.0000000000000D+00  0.0000000000000D+00
289  2.8800000000000D+00  0.0000000000000D+00  0.0000000000000D+00
290  2.8900000000000D+00  0.0000000000000D+00  0.0000000000000D+00
291  2.9000000000000D+00  0.0000000000000D+00  0.0000000000000D+00
292  2.9100000000000D+00  0.0000000000000D+00  0.0000000000000D+00
293  2.9200000000000D+00  0.0000000000000D+00  0.0000000000000D+00
294  2.9300000000000D+00  0.0000000000000D+00  0.0000000000000D+00
295  2.9400000000000D+00  0.0000000000000D+00  0.0000000000000D+00
296  2.9500000000000D+00  0.0000000000000D+00  0.0000000000000D+00
297  2.9600000000000D+00  0.0000000000000D+00  0.0000000000000D+00
298  2.9700000000000D+00  0.0000000000000D+00  0.0000000000000D+00
299  2.9800000000000D+00  0.0000000000000D+00  0.0000000000000D+00
300  2.9900000000000D+00  0.0000000000000D+00  0.0000000000000D+00
301  3.0000000000000D+00  0.0000000000000D+00  0.0000000000000D+00
302  3.0100000000000D+00  0.0000000000000D+00  0.0000000000000D+00
303  3.0200000000000D+00  0.0000000000000D+00  0.0000000000000D+00
304  3.0300000000000D+00  0.0000000000000D+00  0.0000000000000D+00
305  3.0400000000000D+00  0.0000000000000D+00  0.0000000000000D+00
306  3.0500000000000D+00  0.0000000000000D+00  0.0000000000000D+00
307  3.0600000000000D+00  0.0000000000000D+00  0.0000000000000D+00
308  3.0700000000000D+00  0.0000000000000D+00  0.0000000000000D+00
309  3.0800000000000D+00  0.0000000000000D+00  0.0000000000000D+00
310  3.0900000000000D+00  0.0000000000000D+00  0.0000000000000D+00
311  3.1000000000000D+00  0.0000000000000D+00  0.0000000000000D+00
312  3.1100000000000D+00  0.0000000000000D+00  0.0000000000000D+00
313  3.1200000000000D+00  0.0000000000000D+00  0.0000000000000D+00
314  3.1300000000000D+00  0.0000000000000D+00  0.0000000000000D+00
315  3.1400000000000D+00  0.0000000000000D+00  0.0000000000000D+00
316  3.1500000000000D+00  0.0000000000000D+00  0.0000000000000D+00
317  3.1600000000000D+00  0.0000000000000D+00  0.0000000000000D+00
318  3.1700000000000D+00  0.0000000000000D+00  0.0000000000000D+00
319  3.1800000000000D+00  0.0000000000000D+00  0.0000000000000D+00
320  3.1900000000000D+00  0.0000000000000D+00  0.0000000000000D+00
321  3.2000000000000D+00  0.0000000000000D+00  0.0000000000000D+00
322  3.2100000000000D+00  0.0000000000000D+00  0.0000000000000D+00
323  3.2200000000000D+00  0.0000000000000D+00  0.0000000000000D+00
324  3.2300000000000D+00  0.0000000000000D+00  0.0000000000000D+00
325  3.2400000000000D+00  0.0000000000000D+00  0.0000000000000D+00
326  3.2500000000000D+00  0.0000000000000D+00  0.0000000000000D+00
327  3.2600000000000D+00  0.0000000000000D+00  0.0000000000000D+00
328  3.2700000000000D+00  0.0000000000000D+00  0.0000000000000D+00
329  3.2800000000000D+00  0.0000000000000D+00  0.0000000000000D+00
330  3.2900000000000D+00  0.0000000000000D+00  0.0000000000000D+00
331  3.3000000000000D+00  0.0000000000000D+00  0.0000000000000D+00
332  3.3100000000000D+00  0.0000000000000D+00  0.0000000000000D+00
333  3.3200000000000D+00  0.0000000000000D+00  0.0000000000000D+00
334  3.3300000000000D+00  0.0000000000000D+00  0.0000000000000D+00
335  3.3400000000000D+00  0.0000000000000D+00  0.0000000000000D+00
336  3.3500000000000D+00  0.0000000000000D+00  0.0000000000000D+00
337  3.3600000000000D+00  0.0000000000000D+00  0.0000000000000D+00
338  3.3700000000000D+00  0.0000000000000D+00  0.0000000000000D+00
339  3.3800000000000D+00  0.0000000000000D+00  0.0000000000000D+00
340  3.3900000000000D+00  0.0000000000000D+00  0.0000000000000D+00
341  3.4000000000000D+00  0.0000000000000D+00  0.0000000000000D+00
342  3.4100000000000D+00  0.0000000000000D+00  0.0000000000000D+00
343  3.4200000000000D+00  0.0000000000000D+00  0.0000000000000D+00
344  3.4300000000000D+00  0.0000000000000D+00  0.0000000000000D+00
345  3.4400000000000D+00  0.0000000000000D+00  0.0000000000000D+00
346  3.4500000000000D+00  0.0000000000000D+00  0.0000000000000D+00
347  3.4600000000000D+00  0.0000000000000D+00  0.0000000000000D+00
348  3.4700000000000D+00  0.0000000000000D+00  0.0000000000000D+00
349  3.4800000000000D+00  0.0000000000000D+00  0.0000000000000D+00
350  3.4900000000000D+00  0.0000000000000D+00  0.0000000000000D+00
351  3.5000000000000D+00  0.0000000000000D+00  0.0000000000000D+00
352  3.5100000000000D+00  0.0000000000000D+00  0.0000000000000D+00
353  3.5200000000000D+00  0.0000000000000D+00  0.0000000000000D+00
354  3.5300000000000D+00  0.0000000000000D+00  0.0000000000000D+00
355  3.5400000000000D+00  0.0000000000000D+00  0.0000000000000D+00
356  3.5500000000000D+00  0.0000000000000D+00  0.0000000000000D+00
357  3.5600000000000D+00  0.0000000000000D+00  0.0000000000000D+00
358  3.5700000000000D+00  0.0000000000000D+00  0.0000000000000D+00
359  3.5800000000000D+00  0.0000000000000D+00  0.0000000000000D+00
360  3.5900000000000D+00  0.0000000000000D+00  0.0000000000000D+00
361  3.6000000000000D+00  0.0000000000000D+00  0.0000000000000D+00
362  3.6100000000000D+00  0.0000000000000D+00  0.0000000000000D+00
363  3.6200000000000D+00  0.0000000000000D+00  0.0000000000000D+00
364  3.6300000000000D+00  0.0000000000000D+00  0.0000000000000D+00
365  3.6400000000000D+00  0.0000000000000D+00  0.0000000000000D+00
366  3.6500000000000D+00  0.0000000000000D+00  0.0000000000000D+00
367  3.6600000000000D+00  0.0000000000000D+00  0.0000000000000D+00
368  3.6700000000000D+00  0.0000000000000D+00  0.0000000000000D+00
369  3.6800000000000D+00  0.0000000000000D+00  0.0000000000000D+00
370  3.6900000000000D+00  0.0000000000000D+00  0.0000000000000D+00
371  3.7000000000000D+00  0.0000000000000D+00  0.0000000000000D+00
372  3.7100000000000D+00  0.0000000000000D+00  0.0000000000000D+00
373  3.7200000000000D+00  0.0000000000000D+00  0.0000000000000D+00
374  3.7300000000000D+00  0.0000000000000D+00  0.0000000000000D+00
375  3.7400000000000D+00  0.0000000000000D+00  0.0000000000000D+00
376  3.7500000000000D+00  0.0000000000000D+00  0.0000000000000D+00
377  3.7600000000000D+00  0.0000000000000D+00  0.0000000000000D+00
378  3.7700000000000D+00  0.0000000000000D+00  0.0000000000000D+00
379  3.7800000000000D+00  0.0000000000000D+00  0.0000000000000D+00
380  3.7900000000000D+00  0.0000000000000D+00  0.0000000000000D+00
381  3.8000000000000D+00  0.0000000000000D+00  0.0000000000000D+00
382  3.8100000000000D+00  0.0000000000000D+00  0.0000000000000D+00
383  3.8200000000000D+00  0.0000000000000D+00  0.0000000000000D+00
384  3.8300000000000D+00  0.0000000000000D+00  0.0000000000000D+00
385  3.8400000000000D+00  0.0000000000000D+00  0.0000000000000D+00
386  3.8500000000000D+00  0.0000000000000D+00  0.0000000000000D+00
387  3.8600000000000D+00  0.0000000000000D+00  0.0000000000000D+00
388  3.8700000000000D+00  0.0000000000000D+00  0.0000000000000D+00
389  3.8800000000000D+00  0.0000000000000D+00  0.0000000000000D+00
390  3.8900000000000D+00  0.0000000000000D+00  0.0000000000000D+00
391  3.9000000000000D+00  0.0000000000000D+00  0.0000000000000D+00
392  3.9100000000000D+00  0.0000000000000D+00  0.0000000000000D+00
393  3.9200000000000D+00  0.0000000000000D+00  0.0000000000000D+00
394  3.9300000000000D+00  0.0000000000000D+00  0.0000000000000D+00
395  3.9400000000000D+00  0.0000000000000D+00  0.0000000000000D+00
396  3.9500000000000D+00  0.0000000000000D+00  0.0000000000000D+00
397  3.9600000000000D+00  0.0000000000000D+00  0.0000000000000D+00
398  3.9700000000000D+00  0.0000000000000D+00  0.0000000000000D+00
399  3.9800000000000D+00  0.0000000000000D+00  0.0000000000000D+00
400  3.9900000000000D+00  0.0000000000000D+00  0.0000000000000D+00
401  4.0000000000000D+00  0.0000000000000D+00  0.0000000000000D+00
402  4.0100000000000D+00  0.0000000000000D+00  0.0000000000000D+00
403  4.0200000000000D+00  0.0000000000000D+00  0.0000000000000D+00
404  4.0300000000000D+00  0.0000000000000D+00  0.0000000000000D+00
405  4.0400000000000D+00  0.0000000000000D+00  0.0000000000000D+00
406  4.0500000000000D+00  0.0000000000000D+00  0.0000000000000D+00
407  4.0600000000000D+00  0.0000000000000D+00  0.0000000000000D+00
408  4.0700000000000D+00  0.0000000000000D+00  0.0000000000000D+00
409  4.0800000000000D+00  0.0000000000000D+00  0.0000000000000D+00
410  4.0900000000000D+00  0.0000000000000D+00  0.0000000000000D+00
411  4.1000000000000D+00  0.0000000000000D+00  0.0000000000000D+00
412  4.1100000000000D+00  0.0000000000000D+00  0.0000000000000D+00
413  4.1200000000000D+00  0.0000000000000D+00  0.0000000000000D+00
414  4.1300000000000D+00  0.0000000000000D+00  0.0000000000000D+00
415  4.1400000000000D+00  0.0000000000000D+00  0.0000000000000D+00
416  4.1500000000000D+00  0.0000000000000D+00  0.0000000000000D+00
417  4.1600000000000D+00  0.0000000000000D+00  0.0000000000000D+00
418  4.1700000000000D+00  0.0000000000000D+00  0.0000000000000D+00
419  4.1800000000000D+00  0.0000000000000D+00  0.0000000000000D+00
420  4.1900000000000D+00  0.0000000000000D+00  0.0000000000000D+00
421  4.2000000000000D+00  0.0000000000000D+00  0.0000000000000D+00
422  4.2100000000000D+00  0.0000000000000D+00  0.0000000000000D+00
423  4.2200000000000D+00  0.0000000000000D+00  0.0000000000000D+00
424  4.2300000000000D+00  0.0000000000000D+00  0.0000000000000D+00
425  4.2400000000000D+00  0.0000000000000D+00  0.0000000000000D+00
426  4.2500000000000D+00  0.0000000000000D+00  0.0000000000000D+00
427  4.2600000000000D+00  0.0000000000000D+00  0.0000000000000D+00
428  4.2700000000000D+00  0.0000000000000D+00  0.0000000000000D+00
429  4.2800000000000D+00  0.0000000000000D+00  0.0000000000000D+00
430  4.2900000000000D+00  0.0000000000000D+00  0.0000000000000D+00
431  4.3000000000000D+00  0.0000000000000D+00  0.0000000000000D+00
432  4.3100000000000D+00  0.0000000000000D+00  0.0000000000000D+00
433  4.3200000000000D+00  0.0000000000000D+00  0.0000000000000D+00
434  4.3300000000000D+00  0.0000000000000D+00  0.0000000000000D+00
435  4.3400000000000D+00  0.0000000000000D+00  0.0000000000000D+00
436  4.3500000000000D+00  0.0000000000000D+00  0.0000000000000D+00
437  4.3600000000000D+00  0.0000000000000D+00  0.0000000000000D+00
438  4.3700000000000D+00  0.0000000000000D+00  0.0000000000000D+00
439  4.3800000000000D+00  0.0000000000000D+00  0.0000000000000D+00
440  4.3900000000000D+00  0.0000000000000D+00  0.0000000000000D+00
441  4.4000000000000D+00  0.0000000000000D+00  0.0000000000000D+00
442  4.4100000000000D+00  0.0000000000000D+00  0.0000000000000D+00
443  4.4200000000000D+00  0.0000000000000D+00  0.0000000000000D+00