Se    ONCVPSP-3.2.3  r_core=   1.81943   1.55807   2.07453
34.0000      6.0000      161219    zatom,zion,pspd
8   -1012   2     4   600     0    pspcod,pspxc,lmax,lloc,mmax,r2well
5.99000000  9.50000000  0.00000000    rchrg fchrg qchrg
2     2     2     0     0    nproj
1     1           extension_switch
0                         9.6887802793480D+00  1.0858018311252D+00
1  0.0000000000000D+00 -3.1630636998514D-10  5.1917720123029D-10
2  1.0000000000000D-02  4.1624503186925D-02 -2.2748221908384D-02
3  2.0000000000000D-02  8.3193371809387D-02 -4.5416177610107D-02
4  3.0000000000000D-02  1.2465138069230D-01 -6.7924298042677D-02
5  4.0000000000000D-02  1.6594411751648D-01 -9.0194398616972D-02
6  5.0000000000000D-02  2.0701837452116D-01 -1.1215034705055D-01
7  6.0000000000000D-02  2.4782252276371D-01 -1.3371870229063D-01
8  7.0000000000000D-02  2.8830686349864D-01 -1.5482931550760D-01
9  8.0000000000000D-02  3.2842395155431D-01 -1.7541588465924D-01
10  9.0000000000000D-02  3.6812888597340D-01 -1.9541645476202D-01
11  1.0000000000000D-01  4.0737956363710D-01 -2.1477385675144D-01
12  1.1000000000000D-01  4.4613689210752D-01 -2.3343607865783D-01
13  1.2000000000000D-01  4.8436495849057D-01 -2.5135656375722D-01
14  1.3000000000000D-01  5.2203115173629D-01 -2.6849443136668D-01
15  1.4000000000000D-01  5.5910623644621D-01 -2.8481461702579D-01
16  1.5000000000000D-01  5.9556437693971D-01 -3.0028792992884D-01
17  1.6000000000000D-01  6.3138311103489D-01 -3.1489102662862D-01
18  1.7000000000000D-01  6.6654327371444D-01 -3.2860630120977D-01
19  1.8000000000000D-01  7.0102887156388D-01 -3.4142169331046D-01
20  1.9000000000000D-01  7.3482690957974D-01 -3.5333041654068D-01
21  2.0000000000000D-01  7.6792717263812D-01 -3.6433061098855D-01
22  2.1000000000000D-01  8.0032196458134D-01 -3.7442492460709D-01
23  2.2000000000000D-01  8.3200580851253D-01 -3.8362002931834D-01
24  2.3000000000000D-01  8.6297511247662D-01 -3.9192607864572D-01
25  2.4000000000000D-01  8.9322780524342D-01 -3.9935611457547D-01
26  2.5000000000000D-01  9.2276294738655D-01 -4.0592543214208D-01
27  2.6000000000000D-01  9.5158032326448D-01 -4.1165091091939D-01
28  2.7000000000000D-01  9.7968001985077D-01 -4.1655032316902D-01
29  2.8000000000000D-01  1.0070619986251D+00 -4.2064162884247D-01
30  2.9000000000000D-01  1.0337256669197D+00 -4.2394226794590D-01
31  3.0000000000000D-01  1.0596694552167D+00 -4.2646846095217D-01
32  3.1000000000000D-01  1.0848904069054D+00 -4.2823452797950D-01
33  3.2000000000000D-01  1.1093837869350D+00 -4.2925223734847D-01
34  3.3000000000000D-01  1.1331427156417D+00 -4.2953019387985D-01
35  3.4000000000000D-01  1.1561578337833D+00 -4.2907327690517D-01
36  3.5000000000000D-01  1.1784170044863D+00 -4.2788213743582D-01
37  3.6000000000000D-01  1.1999050574067D+00 -4.2595276327837D-01
38  3.7000000000000D-01  1.2206035799215D+00 -4.2327612010213D-01
39  3.8000000000000D-01  1.2404907596197D+00 -4.1983787556818D-01
40  3.9000000000000D-01  1.2595412817448D+00 -4.1561821262677D-01
41  4.0000000000000D-01  1.2777262845734D+00 -4.1059173699534D-01
42  4.1000000000000D-01  1.2950133749956D+00 -4.0472748265367D-01
43  4.2000000000000D-01  1.3113667058059D+00 -3.9798901795145D-01
44  4.3000000000000D-01  1.3267471154283D+00 -3.9033465363079D-01
45  4.4000000000000D-01  1.3411123299899D+00 -3.8171775273837D-01
46  4.5000000000000D-01  1.3544172268425D+00 -3.7208714105546D-01
47  4.6000000000000D-01  1.3666141578134D+00 -3.6138761532458D-01
48  4.7000000000000D-01  1.3776533296603D+00 -3.4956054521851D-01
49  4.8000000000000D-01  1.3874832384196D+00 -3.3654456369442D-01
50  4.9000000000000D-01  1.3960511535821D+00 -3.2227633912270D-01
51  5.0000000000000D-01  1.4033036473167D+00 -3.0669142139092D-01
52  5.1000000000000D-01  1.4091871632957D+00 -2.8972515307469D-01
53  5.2000000000000D-01  1.4136486190746D+00 -2.7131363575390D-01
54  5.3000000000000D-01  1.4166360354364D+00 -2.5139474064744D-01
55  5.4000000000000D-01  1.4180991856501D+00 -2.2990915195596D-01
56  5.5000000000000D-01  1.4179902572097D+00 -2.0680143065126D-01
57  5.6000000000000D-01  1.4162645183239D+00 -1.8202108594039D-01
58  5.7000000000000D-01  1.4128809812239D+00 -1.5552364127359D-01
59  5.8000000000000D-01  1.4078030542465D+00 -1.2727168156051D-01
60  5.9000000000000D-01  1.4009991746378D+00 -9.7235868215528D-02
61  6.0000000000000D-01  1.3924434141110D+00 -6.5395908771717D-02
62  6.1000000000000D-01  1.3821160493726D+00 -3.1741468083430D-02
63  6.2000000000000D-01  1.3700040901199D+00  3.7269914177586D-03
64  6.3000000000000D-01  1.3561017573817D+00  4.0997452352776D-02
65  6.4000000000000D-01  1.3404109055492D+00  8.0045679092828D-02
66  6.5000000000000D-01  1.3229413819927D+00  1.2083465881387D-01
67  6.6000000000000D-01  1.3037113187952D+00  1.6331415616534D-01
68  6.7000000000000D-01  1.2827473518434D+00  2.0742038965230D-01
69  6.8000000000000D-01  1.2600847632885D+00  2.5307583656227D-01
70  6.9000000000000D-01  1.2357675442144D+00  3.0018917190979D-01
71  7.0000000000000D-01  1.2098483752345D+00  3.4865534541603D-01
72  7.1000000000000D-01  1.1823885236454D+00  3.9835579903516D-01
73  7.2000000000000D-01  1.1534576567088D+00  4.4915882597573D-01
74  7.3000000000000D-01  1.1231335715827D+00  5.0092007057932D-01
75  7.4000000000000D-01  1.0915018433837D+00  5.5348316681534D-01
76  7.5000000000000D-01  1.0586553938109D+00  6.0668051155797D-01
77  7.6000000000000D-01  1.0246939836894D+00  6.6033416724786D-01
78  7.7000000000000D-01  9.8972363369118D-01  7.1425688702011D-01
79  7.8000000000000D-01  9.5385597834717D-01  7.6825325392510D-01
80  7.9000000000000D-01  9.1720755926701D-01  8.2212092449568D-01
81  8.0000000000000D-01  8.7989906422396D-01  8.7565196563854D-01
82  8.1000000000000D-01  8.4205451942883D-01  9.2863427267204D-01
83  8.2000000000000D-01  8.0380044290644D-01  9.8085305529751D-01
84  8.3000000000000D-01  7.6526496738451D-01  1.0320923774077D+00
85  8.4000000000000D-01  7.2657694150946D-01  1.0821367359008D+00
86  8.5000000000000D-01  6.8786501850616D-01  1.1307726630983D+00
87  8.6000000000000D-01  6.4925674159707D-01  1.1777903369681D+00
88  8.7000000000000D-01  6.1087763558648D-01  1.2229851831304D+00
89  8.8000000000000D-01  5.7285031399643D-01  1.2661594525845D+00
90  8.9000000000000D-01  5.3529361101198D-01  1.3071237592357D+00
91  9.0000000000000D-01  4.9832174725556D-01  1.3456985616243D+00
92  9.1000000000000D-01  4.6204353806629D-01  1.3817155737585D+00
93  9.2000000000000D-01  4.2656165250980D-01  1.4150190906331D+00
94  9.3000000000000D-01  3.9197193080624D-01  1.4454672148440D+00
95  9.4000000000000D-01  3.5836276721781D-01  1.4729329717221D+00
96  9.5000000000000D-01  3.2581456472238D-01  1.4973053015421D+00
97  9.6000000000000D-01  2.9439926699923D-01  1.5184899186415D+00
98  9.7000000000000D-01  2.6417997238975D-01  1.5364100286807D+00
99  9.8000000000000D-01  2.3521063357438D-01  1.5510068967686D+00
100  9.9000000000000D-01  2.0753584574206D-01  1.5622402607598D+00
101  1.0000000000000D+00  1.8119072502837D-01  1.5700885856759D+00
102  1.0100000000000D+00  1.5620087796021D-01  1.5745491569224D+00
103  1.0200000000000D+00  1.3258246166335D-01  1.5756380116125D+00
104  1.0300000000000D+00  1.1034233349011D-01  1.5733897091521D+00
105  1.0400000000000D+00  8.9478287763404D-02  1.5678569438671D+00
106  1.0500000000000D+00  6.9979376330724D-02  1.5591100041630D+00
107  1.0600000000000D+00  5.1826308664860D-02  1.5472360843515D+00
108  1.0700000000000D+00  3.4991926377639D-02  1.5323384567919D+00
109  1.0800000000000D+00  1.9441746180159D-02  1.5145355134540D+00
110  1.0900000000000D+00  5.1345645267574D-03  1.4939596874319D+00
111  1.1000000000000D+00 -7.9768834504288D-03  1.4707562660778D+00
112  1.1100000000000D+00 -1.9945218735726D-02  1.4450821085949D+00
113  1.1200000000000D+00 -3.0827675398841D-02  1.4171042817344D+00
114  1.1300000000000D+00 -4.0685328652127D-02  1.3869986281802D+00
115  1.1400000000000D+00 -4.9582303133913D-02  1.3549482827005D+00
116  1.1500000000000D+00 -5.7584970717735D-02  1.3211421515838D+00
117  1.1600000000000D+00 -6.4761147214332D-02  1.2857733711095D+00
118  1.1700000000000D+00 -7.1179297284890D-02  1.2490377609169D+00
119  1.1800000000000D+00 -7.6907756686108D-02  1.2111322879558D+00
120  1.1900000000000D+00 -8.2013980594937D-02  1.1722535562725D+00
121  1.2000000000000D+00 -8.6563826613648D-02  1.1325963377373D+00
122  1.2100000000000D+00 -9.0620880281780D-02  1.0923521577916D+00
123  1.2200000000000D+00 -9.4245830379639D-02  1.0517079495117D+00
124  1.2300000000000D+00 -9.7495900819991D-02  1.0108447886028D+00
125  1.2400000000000D+00 -1.0042434501193D-01  9.6993672061973D-01
126  1.2500000000000D+00 -1.0308000758701D-01  9.2914969020894D-01
127  1.2600000000000D+00 -1.0550695777857D-01  8.8864058125970D-01
128  1.2700000000000D+00 -1.0774419783836D-01  8.4855637549265D-01
129  1.2800000000000D+00 -1.0982544835885D-01  8.0903343464941D-01
130  1.2900000000000D+00 -1.1177901197033D-01  7.7019691081084D-01
131  1.3000000000000D+00 -1.1362771586398D-01  7.3216028780312D-01
132  1.3100000000000D+00 -1.1538893178906D-01  6.9502505374554D-01
133  1.3200000000000D+00 -1.1707467223379D-01  6.5888050488284D-01
134  1.3300000000000D+00 -1.1869176005946D-01  6.2380367855310D-01
135  1.3400000000000D+00 -1.2024206732004D-01  5.8985941054865D-01
136  1.3500000000000D+00 -1.2172281954433D-01  5.5710051305536D-01
137  1.3600000000000D+00 -1.2312695960193D-01  5.2556806576994D-01
138  1.3700000000000D+00 -1.2444356485835D-01  4.9529181193741D-01
139  1.3800000000000D+00 -1.2565831166502D-01  4.6629065179077D-01
140  1.3900000000000D+00 -1.2675397888044D-01  4.3857322159504D-01
141  1.4000000000000D+00 -1.2771098330969D-01  4.1213854855899D-01
142  1.4100000000000D+00 -1.2850793861947D-01  3.8697676961870D-01
143  1.4200000000000D+00 -1.2912222929890D-01  3.6306990155024D-01
144  1.4300000000000D+00 -1.2953059122457D-01  3.4039265041816D-01
145  1.4400000000000D+00 -1.2970969005667D-01  3.1891324683191D-01
146  1.4500000000000D+00 -1.2963668926321D-01  2.9859429479527D-01
147  1.4600000000000D+00 -1.2928979878502D-01  2.7939362041203D-01
148  1.4700000000000D+00 -1.2864879759179D-01  2.6126510953172D-01
149  1.4800000000000D+00 -1.2769552064758D-01  2.4415952000111D-01
150  1.4900000000000D+00 -1.2641430536455D-01  2.2802525977838D-01
151  1.5000000000000D+00 -1.2479238911891D-01  2.1280911784448D-01
152  1.5100000000000D+00 -1.2282025235278D-01  1.9845693591206D-01
153  1.5200000000000D+00 -1.2049190804493D-01  1.8491423710278D-01
154  1.5300000000000D+00 -1.1780510882516D-01  1.7212670518783D-01
155  1.5400000000000D+00 -1.1476154462942D-01  1.6004081403431D-01
156  1.5500000000000D+00 -1.1136687986365D-01  1.4860401049305D-01
157  1.5600000000000D+00 -1.0763070009941D-01  1.3776468978174D-01
158  1.5700000000000D+00 -1.0356679624217D-01  1.2747384669000D-01
159  1.5800000000000D+00 -9.9193310370087D-02  1.1768630409016D-01
160  1.5900000000000D+00 -9.4532903650395D-02  1.0836211052504D-01
161  1.6000000000000D+00 -8.9612781800411D-02  9.9467528882717D-02
162  1.6100000000000D+00 -8.4464342403114D-02  9.0974577707624D-02
163  1.6200000000000D+00 -7.9122856949477D-02  8.2860894086168D-02
164  1.6300000000000D+00 -7.3627119300542D-02  7.5109639453253D-02
165  1.6400000000000D+00 -6.8019007773340D-02  6.7709173480604D-02
166  1.6500000000000D+00 -6.2343010431786D-02  6.0652704170815D-02
167  1.6600000000000D+00 -5.6645704111295D-02  5.3937849649646D-02
168  1.6700000000000D+00 -5.0975199483742D-02  4.7566142485673D-02
169  1.6800000000000D+00 -4.5380558874620D-02  4.1542482361409D-02
170  1.6900000000000D+00 -3.9911194892518D-02  3.5874547969653D-02
171  1.7000000000000D+00 -3.4616258552512D-02  3.0572179252443D-02
172  1.7100000000000D+00 -2.9544024369432D-02  2.5646740239260D-02
173  1.7200000000000D+00 -2.4741282312295D-02  2.1110475496560D-02
174  1.7300000000000D+00 -2.0252742855228D-02  1.6975868797063D-02
175  1.7400000000000D+00 -1.6120465677866D-02  1.3255018201245D-02
176  1.7500000000000D+00 -1.2383317059276D-02  9.9590344878419D-03
177  1.7600000000000D+00 -9.0776268665382D-03  7.0977579489304D-03
178  1.7700000000000D+00 -6.2326834652462D-03  4.6782565774769D-03
179  1.7800000000000D+00 -3.8687831786989D-03  2.7057981796373D-03
180  1.7900000000000D+00 -2.0144537061289D-03  1.1824692090750D-03
181  1.8000000000000D+00 -7.0671150707761D-04  9.7716157331426D-05
182  1.8100000000000D+00  5.6398893509223D-05 -5.5300325354585D-04
183  1.8200000000000D+00  3.3310445024113D-04 -7.2161239460976D-04
184  1.8300000000000D+00  2.3434367565395D-04 -4.3026938382558D-04
185  1.8400000000000D+00  2.3298380899551D-05 -4.0503730237455D-05
186  1.8500000000000D+00 -5.4640802345536D-05  9.2917580920285D-05
187  1.8600000000000D+00 -2.1106614024501D-05  3.5216130934061D-05
188  1.8700000000000D+00  9.9763965269140D-06 -1.7708584231019D-05
189  1.8800000000000D+00  7.6975133241386D-06 -1.3532064979789D-05
190  1.8900000000000D+00 -5.8203262698886D-07  1.2839087852425D-06
191  1.9000000000000D+00 -8.2991947305511D-07  1.8307236623690D-06
192  1.9100000000000D+00  0.0000000000000D+00  0.0000000000000D+00
193  1.9200000000000D+00  0.0000000000000D+00  0.0000000000000D+00
194  1.9300000000000D+00  0.0000000000000D+00  0.0000000000000D+00
195  1.9400000000000D+00  0.0000000000000D+00  0.0000000000000D+00
196  1.9500000000000D+00  0.0000000000000D+00  0.0000000000000D+00
197  1.9600000000000D+00  0.0000000000000D+00  0.0000000000000D+00
198  1.9700000000000D+00  0.0000000000000D+00  0.0000000000000D+00
199  1.9800000000000D+00  0.0000000000000D+00  0.0000000000000D+00
200  1.9900000000000D+00  0.0000000000000D+00  0.0000000000000D+00
201  2.0000000000000D+00  0.0000000000000D+00  0.0000000000000D+00
202  2.0100000000000D+00  0.0000000000000D+00  0.0000000000000D+00
203  2.0200000000000D+00  0.0000000000000D+00  0.0000000000000D+00
204  2.0300000000000D+00  0.0000000000000D+00  0.0000000000000D+00
205  2.0400000000000D+00  0.0000000000000D+00  0.0000000000000D+00
206  2.0500000000000D+00  0.0000000000000D+00  0.0000000000000D+00
207  2.0600000000000D+00  0.0000000000000D+00  0.0000000000000D+00
208  2.0700000000000D+00  0.0000000000000D+00  0.0000000000000D+00
209  2.0800000000000D+00  0.0000000000000D+00  0.0000000000000D+00
210  2.0900000000000D+00  0.0000000000000D+00  0.0000000000000D+00
211  2.1000000000000D+00  0.0000000000000D+00  0.0000000000000D+00
212  2.1100000000000D+00  0.0000000000000D+00  0.0000000000000D+00
213  2.1200000000000D+00  0.0000000000000D+00  0.0000000000000D+00
214  2.1300000000000D+00  0.0000000000000D+00  0.0000000000000D+00
215  2.1400000000000D+00  0.0000000000000D+00  0.0000000000000D+00
216  2.1500000000000D+00  0.0000000000000D+00  0.0000000000000D+00
217  2.1600000000000D+00  0.0000000000000D+00  0.0000000000000D+00
218  2.1700000000000D+00  0.0000000000000D+00  0.0000000000000D+00
219  2.1800000000000D+00  0.0000000000000D+00  0.0000000000000D+00
220  2.1900000000000D+00  0.0000000000000D+00  0.0000000000000D+00
221  2.2000000000000D+00  0.0000000000000D+00  0.0000000000000D+00
222  2.2100000000000D+00  0.0000000000000D+00  0.0000000000000D+00
223  2.2200000000000D+00  0.0000000000000D+00  0.0000000000000D+00
224  2.2300000000000D+00  0.0000000000000D+00  0.0000000000000D+00
225  2.2400000000000D+00  0.0000000000000D+00  0.0000000000000D+00
226  2.2500000000000D+00  0.0000000000000D+00  0.0000000000000D+00
227  2.2600000000000D+00  0.0000000000000D+00  0.0000000000000D+00
228  2.2700000000000D+00  0.0000000000000D+00  0.0000000000000D+00
229  2.2800000000000D+00  0.0000000000000D+00  0.0000000000000D+00
230  2.2900000000000D+00  0.0000000000000D+00  0.0000000000000D+00
231  2.3000000000000D+00  0.0000000000000D+00  0.0000000000000D+00
232  2.3100000000000D+00  0.0000000000000D+00  0.0000000000000D+00
233  2.3200000000000D+00  0.0000000000000D+00  0.0000000000000D+00
234  2.3300000000000D+00  0.0000000000000D+00  0.0000000000000D+00
235  2.3400000000000D+00  0.0000000000000D+00  0.0000000000000D+00
236  2.3500000000000D+00  0.0000000000000D+00  0.0000000000000D+00
237  2.3600000000000D+00  0.0000000000000D+00  0.0000000000000D+00
238  2.3700000000000D+00  0.0000000000000D+00  0.0000000000000D+00
239  2.3800000000000D+00  0.0000000000000D+00  0.0000000000000D+00
240  2.3900000000000D+00  0.0000000000000D+00  0.0000000000000D+00
241  2.4000000000000D+00  0.0000000000000D+00  0.0000000000000D+00
242  2.4100000000000D+00  0.0000000000000D+00  0.0000000000000D+00
243  2.4200000000000D+00  0.0000000000000D+00  0.0000000000000D+00
244  2.4300000000000D+00  0.0000000000000D+00  0.0000000000000D+00
245  2.4400000000000D+00  0.0000000000000D+00  0.0000000000000D+00
246  2.4500000000000D+00  0.0000000000000D+00  0.0000000000000D+00
247  2.4600000000000D+00  0.0000000000000D+00  0.0000000000000D+00
248  2.4700000000000D+00  0.0000000000000D+00  0.0000000000000D+00
249  2.4800000000000D+00  0.0000000000000D+00  0.0000000000000D+00
250  2.4900000000000D+00  0.0000000000000D+00  0.0000000000000D+00
251  2.5000000000000D+00  0.0000000000000D+00  0.0000000000000D+00
252  2.5100000000000D+00  0.0000000000000D+00  0.0000000000000D+00
253  2.5200000000000D+00  0.0000000000000D+00  0.0000000000000D+00
254  2.5300000000000D+00  0.0000000000000D+00  0.0000000000000D+00
255  2.5400000000000D+00  0.0000000000000D+00  0.0000000000000D+00
256  2.5500000000000D+00  0.0000000000000D+00  0.0000000000000D+00
257  2.5600000000000D+00  0.0000000000000D+00  0.0000000000000D+00
258  2.5700000000000D+00  0.0000000000000D+00  0.0000000000000D+00
259  2.5800000000000D+00  0.0000000000000D+00  0.0000000000000D+00
260  2.5900000000000D+00  0.0000000000000D+00  0.0000000000000D+00
261  2.6000000000000D+00  0.0000000000000D+00  0.0000000000000D+00
262  2.6100000000000D+00  0.0000000000000D+00  0.0000000000000D+00
263  2.6200000000000D+00  0.0000000000000D+00  0.0000000000000D+00
264  2.6300000000000D+00  0.0000000000000D+00  0.0000000000000D+00
265  2.6400000000000D+00  0.0000000000000D+00  0.0000000000000D+00
266  2.6500000000000D+00  0.0000000000000D+00  0.0000000000000D+00
267  2.6600000000000D+00  0.0000000000000D+00  0.0000000000000D+00
268  2.6700000000000D+00  0.0000000000000D+00  0.0000000000000D+00
269  2.6800000000000D+00  0.0000000000000D+00  0.0000000000000D+00
270  2.6900000000000D+00  0.0000000000000D+00  0.0000000000000D+00
271  2.7000000000000D+00  0.0000000000000D+00  0.0000000000000D+00
272  2.7100000000000D+00  0.0000000000000D+00  0.0000000000000D+00
273  2.7200000000000D+00  0.0000000000000D+00  0.0000000000000D+00
274  2.7300000000000D+00  0.0000000000000D+00  0.0000000000000D+00
275  2.7400000000000D+00  0.0000000000000D+00  0.0000000000000D+00
276  2.7500000000000D+00  0.0000000000000D+00  0.0000000000000D+00
277  2.7600000000000D+00  0.0000000000000D+00  0.0000000000000D+00
278  2.7700000000000D+00  0.0000000000000D+00  0.0000000000000D+00
279  2.7800000000000D+00  0.0000000000000D+00  0.0000000000000D+00
280  2.7900000000000D+00  0.0000000000000D+00  0.0000000000000D+00
281  2.8000000000000D+00  0.0000000000000D+00  0.0000000000000D+00
282  2.8100000000000D+00  0.0000000000000D+00  0.0000000000000D+00
283  2.8200000000000D+00  0.0000000000000D+00  0.0000000000000D+00
284  2.8300000000000D+00  0.0000000000000D+00  0.0000000000000D+00
285  2.8400000000000D+00  0.0000000000000D+00  0.0000000000000D+00
286  2.8500000000000D+00  0.0000000000000D+00  0.0000000000000D+00
287  2.8600000000000D+00  0.0000000000000D+00  0.0000000000000D+00
288  2.8700000000000D+00  0.0000000000000D+00  0.0000000000000D+00
289  2.8800000000000D+00  0.0000000000000D+00  0.0000000000000D+00
290  2.8900000000000D+00  0.0000000000000D+00  0.0000000000000D+00
291  2.9000000000000D+00  0.0000000000000D+00  0.0000000000000D+00
292  2.9100000000000D+00  0.0000000000000D+00  0.0000000000000D+00
293  2.9200000000000D+00  0.0000000000000D+00  0.0000000000000D+00
294  2.9300000000000D+00  0.0000000000000D+00  0.0000000000000D+00
295  2.9400000000000D+00  0.0000000000000D+00  0.0000000000000D+00
296  2.9500000000000D+00  0.0000000000000D+00  0.0000000000000D+00
297  2.9600000000000D+00  0.0000000000000D+00  0.0000000000000D+00
298  2.9700000000000D+00  0.0000000000000D+00  0.0000000000000D+00
299  2.9800000000000D+00  0.0000000000000D+00  0.0000000000000D+00
300  2.9900000000000D+00  0.0000000000000D+00  0.0000000000000D+00
301  3.0000000000000D+00  0.0000000000000D+00  0.0000000000000D+00
302  3.0100000000000D+00  0.0000000000000D+00  0.0000000000000D+00
303  3.0200000000000D+00  0.0000000000000D+00  0.0000000000000D+00
304  3.0300000000000D+00  0.0000000000000D+00  0.0000000000000D+00
305  3.0400000000000D+00  0.0000000000000D+00  0.0000000000000D+00
306  3.0500000000000D+00  0.0000000000000D+00  0.0000000000000D+00
307  3.0600000000000D+00  0.0000000000000D+00  0.0000000000000D+00
308  3.0700000000000D+00  0.0000000000000D+00  0.0000000000000D+00
309  3.0800000000000D+00  0.0000000000000D+00  0.0000000000000D+00
310  3.0900000000000D+00  0.0000000000000D+00  0.0000000000000D+00
311  3.1000000000000D+00  0.0000000000000D+00  0.0000000000000D+00
312  3.1100000000000D+00  0.0000000000000D+00  0.0000000000000D+00
313  3.1200000000000D+00  0.0000000000000D+00  0.0000000000000D+00
314  3.1300000000000D+00  0.0000000000000D+00  0.0000000000000D+00
315  3.1400000000000D+00  0.0000000000000D+00  0.0000000000000D+00
316  3.1500000000000D+00  0.0000000000000D+00  0.0000000000000D+00
317  3.1600000000000D+00  0.0000000000000D+00  0.0000000000000D+00
318  3.1700000000000D+00  0.0000000000000D+00  0.0000000000000D+00
319  3.1800000000000D+00  0.0000000000000D+00  0.0000000000000D+00
320  3.1900000000000D+00  0.0000000000000D+00  0.0000000000000D+00
321  3.2000000000000D+00  0.0000000000000D+00  0.0000000000000D+00
322  3.2100000000000D+00  0.0000000000000D+00  0.0000000000000D+00
323  3.2200000000000D+00  0.0000000000000D+00  0.0000000000000D+00
324  3.2300000000000D+00  0.0000000000000D+00  0.0000000000000D+00
325  3.2400000000000D+00  0.0000000000000D+00  0.0000000000000D+00
326  3.2500000000000D+00  0.0000000000000D+00  0.0000000000000D+00
327  3.2600000000000D+00  0.0000000000000D+00  0.0000000000000D+00
328  3.2700000000000D+00  0.0000000000000D+00  0.0000000000000D+00
329  3.2800000000000D+00  0.0000000000000D+00  0.0000000000000D+00
330  3.2900000000000D+00  0.0000000000000D+00  0.0000000000000D+00
331  3.3000000000000D+00  0.0000000000000D+00  0.0000000000000D+00
332  3.3100000000000D+00  0.0000000000000D+00  0.0000000000000D+00
333  3.3200000000000D+00  0.0000000000000D+00  0.0000000000000D+00
334  3.3300000000000D+00  0.0000000000000D+00  0.0000000000000D+00
335  3.3400000000000D+00  0.0000000000000D+00  0.0000000000000D+00
336  3.3500000000000D+00  0.0000000000000D+00  0.0000000000000D+00
337  3.3600000000000D+00  0.0000000000000D+00  0.0000000000000D+00
338  3.3700000000000D+00  0.0000000000000D+00  0.0000000000000D+00
339  3.3800000000000D+00  0.0000000000000D+00  0.0000000000000D+00
340  3.3900000000000D+00  0.0000000000000D+00  0.0000000000000D+00
341  3.4000000000000D+00  0.0000000000000D+00  0.0000000000000D+00
342  3.4100000000000D+00  0.0000000000000D+00  0.0000000000000D+00
343  3.4200000000000D+00  0.0000000000000D+00  0.0000000000000D+00
344  3.4300000000000D+00  0.0000000000000D+00  0.0000000000000D+00
345  3.4400000000000D+00  0.0000000000000D+00  0.0000000000000D+00
346  3.4500000000000D+00  0.0000000000000D+00  0.0000000000000D+00
347  3.4600000000000D+00  0.0000000000000D+00  0.0000000000000D+00
348  3.4700000000000D+00  0.0000000000000D+00  0.0000000000000D+00
349  3.4800000000000D+00  0.0000000000000D+00  0.0000000000000D+00
350  3.4900000000000D+00  0.0000000000000D+00  0.0000000000000D+00
351  3.5000000000000D+00  0.0000000000000D+00  0.0000000000000D+00
352  3.5100000000000D+00  0.0000000000000D+00  0.0000000000000D+00
353  3.5200000000000D+00  0.0000000000000D+00  0.0000000000000D+00
354  3.5300000000000D+00  0.0000000000000D+00  0.0000000000000D+00
355  3.5400000000000D+00  0.0000000000000D+00  0.0000000000000D+00
356  3.5500000000000D+00  0.0000000000000D+00  0.0000000000000D+00
357  3.5600000000000D+00  0.0000000000000D+00  0.0000000000000D+00
358  3.5700000000000D+00  0.0000000000000D+00  0.0000000000000D+00
359  3.5800000000000D+00  0.0000000000000D+00  0.0000000000000D+00
360  3.5900000000000D+00  0.0000000000000D+00  0.0000000000000D+00
361  3.6000000000000D+00  0.0000000000000D+00  0.0000000000000D+00
362  3.6100000000000D+00  0.0000000000000D+00  0.0000000000000D+00
363  3.6200000000000D+00  0.0000000000000D+00  0.0000000000000D+00
364  3.6300000000000D+00  0.0000000000000D+00  0.0000000000000D+00
365  3.6400000000000D+00  0.0000000000000D+00  0.0000000000000D+00
366  3.6500000000000D+00  0.0000000000000D+00  0.0000000000000D+00
367  3.6600000000000D+00  0.0000000000000D+00  0.0000000000000D+00
368  3.6700000000000D+00  0.0000000000000D+00  0.0000000000000D+00
369  3.6800000000000D+00  0.0000000000000D+00  0.0000000000000D+00
370  3.6900000000000D+00  0.0000000000000D+00  0.0000000000000D+00
371  3.7000000000000D+00  0.0000000000000D+00  0.0000000000000D+00
372  3.7100000000000D+00  0.0000000000000D+00  0.0000000000000D+00
373  3.7200000000000D+00  0.0000000000000D+00  0.0000000000000D+00
374  3.7300000000000D+00  0.0000000000000D+00  0.0000000000000D+00
375  3.7400000000000D+00  0.0000000000000D+00  0.0000000000000D+00
376  3.7500000000000D+00  0.0000000000000D+00  0.0000000000000D+00
377  3.7600000000000D+00  0.0000000000000D+00  0.0000000000000D+00
378  3.7700000000000D+00  0.0000000000000D+00  0.0000000000000D+00
379  3.7800000000000D+00  0.0000000000000D+00  0.0000000000000D+00
380  3.7900000000000D+00  0.0000000000000D+00  0.0000000000000D+00
381  3.8000000000000D+00  0.0000000000000D+00  0.0000000000000D+00
382  3.8100000000000D+00  0.0000000000000D+00  0.0000000000000D+00
383  3.8200000000000D+00  0.0000000000000D+00  0.0000000000000D+00
384  3.8300000000000D+00  0.0000000000000D+00  0.0000000000000D+00
385  3.8400000000000D+00  0.0000000000000D+00  0.0000000000000D+00
386  3.8500000000000D+00  0.0000000000000D+00  0.0000000000000D+00
387  3.8600000000000D+00  0.0000000000000D+00  0.0000000000000D+00
388  3.8700000000000D+00  0.0000000000000D+00  0.0000000000000D+00
389  3.8800000000000D+00  0.0000000000000D+00  0.0000000000000D+00
390  3.8900000000000D+00  0.0000000000000D+00  0.0000000000000D+00
391  3.9000000000000D+00  0.0000000000000D+00  0.0000000000000D+00
392  3.9100000000000D+00  0.0000000000000D+00  0.0000000000000D+00
393  3.9200000000000D+00  0.0000000000000D+00  0.0000000000000D+00
394  3.9300000000000D+00  0.0000000000000D+00  0.0000000000000D+00
395  3.9400000000000D+00  0.0000000000000D+00  0.0000000000000D+00
396  3.9500000000000D+00  0.0000000000000D+00  0.0000000000000D+00
397  3.9600000000000D+00  0.0000000000000D+00  0.0000000000000D+00
398  3.9700000000000D+00  0.0000000000000D+00  0.0000000000000D+00
399  3.9800000000000D+00  0.0000000000000D+00  0.0000000000000D+00
400  3.9900000000000D+00  0.0000000000000D+00  0.0000000000000D+00
401  4.0000000000000D+00  0.0000000000000D+00  0.0000000000000D+00
402  4.0100000000000D+00  0.0000000000000D+00  0.0000000000000D+00
403  4.0200000000000D+00  0.0000000000000D+00  0.0000000000000D+00
404  4.0300000000000D+00  0.0000000000000D+00  0.0000000000000D+00
405  4.0400000000000D+00  0.0000000000000D+00  0.0000000000000D+00
406  4.0500000000000D+00  0.0000000000000D+00  0.0000000000000D+00
407  4.0600000000000D+00  0.0000000000000D+00  0.0000000000000D+00
408  4.0700000000000D+00  0.0000000000000D+00  0.0000000000000D+00
409  4.0800000000000D+00  0.0000000000000D+00  0.0000000000000D+00
410  4.0900000000000D+00  0.0000000000000D+00  0.0000000000000D+00
411  4.1000000000000D+00  0.0000000000000D+00  0.0000000000000D+00
412  4.1100000000000D+00  0.0000000000000D+00  0.0000000000000D+00
413  4.1200000000000D+00  0.0000000000000D+00  0.0000000000000D+00
414  4.1300000000000D+00  0.0000000000000D+00  0.0000000000000D+00
415  4.1400000000000D+00  0.0000000000000D+00  0.0000000000000D+00
416  4.1500000000000D+00  0.0000000000000D+00  0.0000000000000D+00
417  4.1600000000000D+00  0.0000000000000D+00  0.0000000000000D+00
418  4.1700000000000D+00  0.0000000000000D+00  0.0000000000000D+00
419  4.1800000000000D+00  0.0000000000000D+00  0.0000000000000D+00
420  4.1900000000000D+00  0.0000000000000D+00  0.0000000000000D+00
421  4.2000000000000D+00  0.0000000000000D+00  0.0000000000000D+00
422  4.2100000000000D+00  0.0000000000000D+00  0.0000000000000D+00
423  4.2200000000000D+00  0.0000000000000D+00  0.0000000000000D+00
424  4.2300000000000D+00  0.0000000000000D+00  0.0000000000000D+00
425  4.2400000000000D+00  0.0000000000000D+00  0.0000000000000D+00
426  4.2500000000000D+00  0.0000000000000D+00  0.0000000000000D+00
427  4.2600000000000D+00  0.0000000000000D+00  0.0000000000000D+00
428  4.2700000000000D+00  0.0000000000000D+00  0.0000000000000D+00
429  4.2800000000000D+00  0.0000000000000D+00  0.0000000000000D+00
430  4.2900000000000D+00  0.0000000000000D+00  0.0000000000000D+00
431  4.3000000000000D+00  0.0000000000000D+00  0.0000000000000D+00
432  4.3100000000000D+00  0.0000000000000D+00  0.0000000000000D+00
433  4.3200000000000D+00  0.0000000000000D+00  0.0000000000000D+00
434  4.3300000000000D+00  0.0000000000000D+00  0.0000000000000D+00
435  4.3400000000000D+00  0.0000000000000D+00  0.0000000000000D+00
436  4.3500000000000D+00  0.0000000000000D+00  0.0000000000000D+00
437  4.3600000000000D+00  0.0000000000000D+00  0.0000000000000D+00
438  4.3700000000000D+00  0.0000000000000D+00  0.0000000000000D+00
439  4.3800000000000D+00  0.0000000000000D+00  0.0000000000000D+00
440  4.3900000000000D+00  0.0000000000000D+00  0.0000000000000D+00
441  4.4000000000000D+00  0.0000000000000D+00  0.0000000000000D+00
442  4.4100000000000D+00  0.0000000000000D+00  0.0000000000000D+00
443  4.4200000000000D+00  0.0000000000000D+00  0.0000000000000D+00