Rb    ONCVPSP-3.2.3  r_core=   1.71227   1.75361   1.95235
37.0000      9.0000      161210    zatom,zion,pspd
8   -1012   2     4   600     0    pspcod,pspxc,lmax,lloc,mmax,r2well
5.99000000  7.00000000  0.00000000    rchrg fchrg qchrg
2     2     2     0     0    nproj
1     1           extension_switch
0                         8.2114106089732D+00 -5.2881735571662D-01
1  0.0000000000000D+00  6.2185134819259D-10  1.9908327070217D-09
2  1.0000000000000D-02  5.5975489196103D-02 -1.3607648725635D-02
3  2.0000000000000D-02  1.1190924162769D-01 -2.7052174086866D-02
4  3.0000000000000D-02  1.6775892543990D-01 -4.0172779142348D-02
5  4.0000000000000D-02  2.2348102950964D-01 -5.2813284731475D-02
6  5.0000000000000D-02  2.7903030093152D-01 -6.4824351217467D-02
7  6.0000000000000D-02  3.3435921459874D-01 -7.6065597091508D-02
8  7.0000000000000D-02  3.8941748483604D-01 -8.6407582432340D-02
9  8.0000000000000D-02  4.4415162841958D-01 -9.5733627206567D-02
10  9.0000000000000D-02  4.9850458755854D-01 -1.0394143682895D-01
11  1.0000000000000D-01  5.5241542052460D-01 -1.1094451024417D-01
12  1.1000000000000D-01  6.0581906661256D-01 -1.1667330900088D-01
13  1.2000000000000D-01  6.5864619101111D-01 -1.2107616931870D-01
14  1.3000000000000D-01  7.1082311397397D-01 -1.2411994294862D-01
15  1.4000000000000D-01  7.6227182742513D-01 -1.2579035664108D-01
16  1.5000000000000D-01  8.1291010082516D-01 -1.2609208420717D-01
17  1.6000000000000D-01  8.6265167678814D-01 -1.2504852942457D-01
18  1.7000000000000D-01  9.1140655558925D-01 -1.2270132234054D-01
19  1.8000000000000D-01  9.5908136636147D-01 -1.1910953579643D-01
20  1.9000000000000D-01  1.0055798214645D+00 -1.1434863317903D-01
21  2.0000000000000D-01  1.0508032492402D+00 -1.0850916243359D-01
22  2.1000000000000D-01  1.0946511991643D+00 -1.0169521519144D-01
23  2.2000000000000D-01  1.1370221122805D+00 -9.4022673416867D-02
24  2.3000000000000D-01  1.1778140487776D+00 -8.5617269209717D-02
25  2.4000000000000D-01  1.2169254636601D+00 -7.6612486265582D-02
26  2.5000000000000D-01  1.2542560206739D+00 -6.7147333950561D-02
27  2.6000000000000D-01  1.2897074340041D+00 -5.7364026956317D-02
28  2.7000000000000D-01  1.3231843267578D+00 -4.7405605033133D-02
29  2.8000000000000D-01  1.3545950949044D+00 -3.7413528329050D-02
30  2.9000000000000D-01  1.3838527651561D+00 -2.7525284377647D-02
31  3.0000000000000D-01  1.4108758352534D+00 -1.7872042763501D-02
32  3.1000000000000D-01  1.4355890852627D+00 -8.5763929547418D-03
33  3.2000000000000D-01  1.4579243487975D+00  2.4980027097135D-04
34  3.3000000000000D-01  1.4778212335417D+00  8.5073909502883D-03
35  3.4000000000000D-01  1.4952277810660D+00  1.6111764809005D-02
36  3.5000000000000D-01  1.5101010566950D+00  2.2994442605075D-02
37  3.6000000000000D-01  1.5224076610715D+00  2.9104448597084D-02
38  3.7000000000000D-01  1.5321241560841D+00  3.4409422118791D-02
39  3.8000000000000D-01  1.5392373989437D+00  3.8896453899051D-02
40  3.9000000000000D-01  1.5437447794103D+00  4.2572632709817D-02
41  4.0000000000000D-01  1.5456543564578D+00  4.5465292095799D-02
42  4.1000000000000D-01  1.5449848920069D+00  4.7621951278749D-02
43  4.2000000000000D-01  1.5417657807391D+00  4.9109948774308D-02
44  4.3000000000000D-01  1.5360368763971D+00  5.0015771746255D-02
45  4.4000000000000D-01  1.5278482163752D+00  5.0444088586296D-02
46  4.5000000000000D-01  1.5172596477715D+00  5.0516496582408D-02
47  4.6000000000000D-01  1.5043403594024D+00  5.0370000761665D-02
48  4.7000000000000D-01  1.4891683255460D+00  5.0155244001308D-02
49  4.8000000000000D-01  1.4718296683696D+00  5.0034512236415D-02
50  4.9000000000000D-01  1.4524179470801D+00  5.0179541997946D-02
51  5.0000000000000D-01  1.4310333828181D+00  5.0769160539525D-02
52  5.1000000000000D-01  1.4077820291587D+00  5.1986791410922D-02
53  5.2000000000000D-01  1.3827748987950D+00  5.4017860468593D-02
54  5.3000000000000D-01  1.3561270575330D+00  5.7047138948299D-02
55  5.4000000000000D-01  1.3279566971314D+00  6.1256061333955D-02
56  5.5000000000000D-01  1.2983841987473D+00  6.6820056321631D-02
57  5.6000000000000D-01  1.2675311988190D+00  7.3905929189012D-02
58  5.7000000000000D-01  1.2355196691117D+00  8.2669333333181D-02
59  5.8000000000000D-01  1.2024710223768D+00  9.3252367642320D-02
60  5.9000000000000D-01  1.1685052546413D+00  1.0578133472784D-01
61  6.0000000000000D-01  1.1337401345446D+00  1.2036469289087D-01
62  6.1000000000000D-01  1.0982904493958D+00  1.3709123205394D-01
63  6.2000000000000D-01  1.0622673167345D+00  1.5602850078956D-01
64  6.3000000000000D-01  1.0257775691718D+00  1.7722150808496D-01
65  6.4000000000000D-01  9.8892321915566D-01  2.0069171960136D-01
66  6.5000000000000D-01  9.5180100908951D-01  2.2643636403467D-01
67  6.6000000000000D-01  9.1450205093383D-01  2.5442806076325D-01
68  6.7000000000000D-01  8.7711155806068D-01  2.8461477536902D-01
69  6.8000000000000D-01  8.3970867073828D-01  3.1692010491349D-01
70  6.9000000000000D-01  8.0236637521037D-01  3.5124389009801D-01
71  7.0000000000000D-01  7.6515151492072D-01  3.8746314668820D-01
72  7.1000000000000D-01  7.2812489105106D-01  4.2543330395550D-01
73  7.2000000000000D-01  6.9134144819706D-01  4.6498973339777D-01
74  7.3000000000000D-01  6.5485053973664D-01  5.0594954676764D-01
75  7.4000000000000D-01  6.1869626624770D-01  5.4811363845371D-01
76  7.5000000000000D-01  5.8291787925013D-01  5.9126894367178D-01
77  7.6000000000000D-01  5.4755024157771D-01  6.3519088071620D-01
78  7.7000000000000D-01  5.1262433485324D-01  6.7964594277950D-01
79  7.8000000000000D-01  4.7816780385582D-01  7.2439440260475D-01
80  7.9000000000000D-01  4.4420552704366D-01  7.6919309152590D-01
81  8.0000000000000D-01  4.1076020213874D-01  8.1379821330800D-01
82  8.1000000000000D-01  3.7785293549453D-01  8.5796815263270D-01
83  8.2000000000000D-01  3.4550382396292D-01  9.0146623811019D-01
84  8.3000000000000D-01  3.1373251814747D-01  9.4406342032500D-01
85  8.4000000000000D-01  2.8255875627898D-01  9.8554082664246D-01
86  8.5000000000000D-01  2.5200285846988D-01  1.0256921562967D+00
87  8.6000000000000D-01  2.2208617178930D-01  1.0643258816263D+00
88  8.7000000000000D-01  1.9283145744185D-01  1.1012672241873D+00
89  8.8000000000000D-01  1.6426321231723D-01  1.1363598778179D+00
90  8.9000000000000D-01  1.3640791829083D-01  1.1694674545014D+00
91  9.0000000000000D-01  1.0929421388122D-01  1.2004746330254D+00
92  9.1000000000000D-01  8.2952984190505D-02  1.2292879949045D+00
93  9.2000000000000D-01  5.7417366445928D-02  1.2558365367410D+00
94  9.3000000000000D-01  3.2722669919035D-02  1.2800718531355D+00
95  9.4000000000000D-01  8.9062104550172D-03  1.3019679891853D+00
96  9.5000000000000D-01 -1.3992938639996D-02  1.3215209667446D+00
97  9.6000000000000D-01 -3.5934276150522D-02  1.3387479935531D+00
98  9.7000000000000D-01 -5.6876278297606D-02  1.3536863692416D+00
99  9.8000000000000D-01 -7.6776873858969D-02  1.3663921069044D+00
100  9.9000000000000D-01 -9.5593981749950D-02  1.3769382933480D+00
101  1.0000000000000D+00 -1.1328610256240D-01  1.3854132152054D+00
102  1.0100000000000D+00 -1.2981295448122D-01  1.3919182818278D+00
103  1.0200000000000D+00 -1.4513614309127D-01  1.3965657790170D+00
104  1.0300000000000D+00 -1.5921985379493D-01  1.3994764904572D+00
105  1.0400000000000D+00 -1.7203155496043D-01  1.4007772258648D+00
106  1.0500000000000D+00 -1.8354269950910D-01  1.4005982964180D+00
107  1.0600000000000D+00 -1.9372941240554D-01  1.3990709790262D+00
108  1.0700000000000D+00 -2.0257315150938D-01  1.3963250112286D+00
109  1.0800000000000D+00 -2.1006132934796D-01  1.3924861583559D+00
110  1.0900000000000D+00 -2.1618788378747D-01  1.3876738934587D+00
111  1.1000000000000D+00 -2.2095378609786D-01  1.3819992289910D+00
112  1.1100000000000D+00 -2.2436747569225D-01  1.3755627368861D+00
113  1.1200000000000D+00 -2.2644521171982D-01  1.3684527909212D+00
114  1.1300000000000D+00 -2.2721133271193D-01  1.3607440621274D+00
115  1.1400000000000D+00 -2.2669841687959D-01  1.3524962936544D+00
116  1.1500000000000D+00 -2.2494733698130D-01  1.3437533773714D+00
117  1.1600000000000D+00 -2.2200720517303D-01  1.3345427498081D+00
118  1.1700000000000D+00 -2.1793520472525D-01  1.3248751204129D+00
119  1.1800000000000D+00 -2.1279630747066D-01  1.3147445388721D+00
120  1.1900000000000D+00 -2.0666287753435D-01  1.3041288029037D+00
121  1.2000000000000D+00 -1.9961416320912D-01  1.2929902038054D+00
122  1.2100000000000D+00 -1.9173568118014D-01  1.2812765996363D+00
123  1.2200000000000D+00 -1.8311849891364D-01  1.2689228008205D+00
124  1.2300000000000D+00 -1.7385842254120D-01  1.2558522481683D+00
125  1.2400000000000D+00 -1.6405509907692D-01  1.2419789585506D+00
126  1.2500000000000D+00 -1.5381104397143D-01  1.2272097066189D+00
127  1.2600000000000D+00 -1.4323060589588D-01  1.2114464081677D+00
128  1.2700000000000D+00 -1.3241888164746D-01  1.1945886675766D+00
129  1.2800000000000D+00 -1.2148059615079D-01  1.1765364452240D+00
130  1.2900000000000D+00 -1.1051896258711D-01  1.1571928006061D+00
131  1.3000000000000D+00 -9.9634538562601D-02  1.1364666641142D+00
132  1.3100000000000D+00 -8.8924095314452D-02  1.1142755870691D+00
133  1.3200000000000D+00 -7.8479516404554D-02  1.0905484213590D+00
134  1.3300000000000D+00 -6.8386743271632D-02  1.0652278771356D+00
135  1.3400000000000D+00 -5.8724784175218D-02  1.0382729097817D+00
136  1.3500000000000D+00 -4.9564802883249D-02  1.0096608879093D+00
137  1.3600000000000D+00 -4.0969303575505D-02  9.7938949384529D-01
138  1.3700000000000D+00 -3.2991425413020D-02  9.4747831767253D-01
139  1.3800000000000D+00 -2.5674362269989D-02  9.1397009938957D-01
140  1.3900000000000D+00 -1.9050919117010D-02  8.7893158653371D-01
141  1.4000000000000D+00 -1.3143214973879D-02  8.4245397947325D-01
142  1.4100000000000D+00 -7.9625445985007D-03  8.0465292960230D-01
143  1.4200000000000D+00 -3.5094016302989D-03  7.6566808532594D-01
144  1.4300000000000D+00  2.2632784798983D-04  7.2566216110657D-01
145  1.4400000000000D+00  3.2650006172461D-03  6.8481953078956D-01
146  1.4500000000000D+00  5.6366821629444D-03  6.4334435358160D-01
147  1.4600000000000D+00  7.3804398794212D-03  6.0145822633716D-01
148  1.4700000000000D+00  8.5434778664996D-03  5.5939740938522D-01
149  1.4800000000000D+00  9.1801115300502D-03  5.1740962387016D-01
150  1.4900000000000D+00  9.3506017956852D-03  4.7575048498046D-01
151  1.5000000000000D+00  9.1198585338878D-03  4.3467960383816D-01
152  1.5100000000000D+00  8.5560301131283D-03  3.9445641370224D-01
153  1.5200000000000D+00  7.7290061728715D-03  3.5533580603328D-01
154  1.5300000000000D+00  6.7088452511396D-03  3.1756361649116D-01
155  1.5400000000000D+00  5.5641721378516D-03  2.8137209911058D-01
156  1.5500000000000D+00  4.3605544448738D-03  2.4697542286413D-01
157  1.5600000000000D+00  3.1589139338024D-03  2.1456535978319D-01
158  1.5700000000000D+00  2.0139909157703D-03  1.8430722509823D-01
159  1.5800000000000D+00  9.7291742668017D-04  1.5633623851356D-01
160  1.5900000000000D+00  7.3933350931707D-05  1.3075441296426D-01
161  1.6000000000000D+00 -6.5470168780054D-04  1.0762813150910D-01
162  1.6100000000000D+00 -1.1955490739650D-03  8.6986567590898D-02
163  1.6200000000000D+00 -1.5425353723451D-03  6.8821099546667D-02
164  1.6300000000000D+00 -1.7011299328815D-03  5.3085924477448D-02
165  1.6400000000000D+00 -1.6881106920372D-03  3.9700012390254D-02
166  1.6500000000000D+00 -1.5308287640253D-03  2.8550656550584D-02
167  1.6600000000000D+00 -1.2664375227204D-03  1.9504261245796D-02
168  1.6700000000000D+00 -9.3762363243388D-04  1.2388218480322D-02
169  1.6800000000000D+00 -5.9081369680788D-04  7.0128781120533D-03
170  1.6900000000000D+00 -2.8455412404308D-04  3.2958360948222D-03
171  1.7000000000000D+00 -6.9088491355076D-05  1.1367495596796D-03
172  1.7100000000000D+00  3.8365032050546D-05  1.6842838748627D-04
173  1.7200000000000D+00  4.7894919955728D-05 -8.4859669255670D-05
174  1.7300000000000D+00  1.0797801222892D-05 -2.8739528991596D-05
175  1.7400000000000D+00 -9.6818170458531D-06  3.1190537965670D-05
176  1.7500000000000D+00 -4.4777414035597D-06  1.5412991761714D-05
177  1.7600000000000D+00  1.7186488761465D-06 -5.1734812810456D-06
178  1.7700000000000D+00  1.1667027526059D-06 -3.6941909285967D-06
179  1.7800000000000D+00 -1.0568332384072D-07 -1.4375752095127D-07
180  1.7900000000000D+00 -1.0124098212947D-07 -1.3771475082995D-07
181  1.8000000000000D+00  0.0000000000000D+00  0.0000000000000D+00
182  1.8100000000000D+00  0.0000000000000D+00  0.0000000000000D+00
183  1.8200000000000D+00  0.0000000000000D+00  0.0000000000000D+00
184  1.8300000000000D+00  0.0000000000000D+00  0.0000000000000D+00
185  1.8400000000000D+00  0.0000000000000D+00  0.0000000000000D+00
186  1.8500000000000D+00  0.0000000000000D+00  0.0000000000000D+00
187  1.8600000000000D+00  0.0000000000000D+00  0.0000000000000D+00
188  1.8700000000000D+00  0.0000000000000D+00  0.0000000000000D+00
189  1.8800000000000D+00  0.0000000000000D+00  0.0000000000000D+00
190  1.8900000000000D+00  0.0000000000000D+00  0.0000000000000D+00
191  1.9000000000000D+00  0.0000000000000D+00  0.0000000000000D+00
192  1.9100000000000D+00  0.0000000000000D+00  0.0000000000000D+00
193  1.9200000000000D+00  0.0000000000000D+00  0.0000000000000D+00
194  1.9300000000000D+00  0.0000000000000D+00  0.0000000000000D+00
195  1.9400000000000D+00  0.0000000000000D+00  0.0000000000000D+00
196  1.9500000000000D+00  0.0000000000000D+00  0.0000000000000D+00
197  1.9600000000000D+00  0.0000000000000D+00  0.0000000000000D+00
198  1.9700000000000D+00  0.0000000000000D+00  0.0000000000000D+00
199  1.9800000000000D+00  0.0000000000000D+00  0.0000000000000D+00
200  1.9900000000000D+00  0.0000000000000D+00  0.0000000000000D+00
201  2.0000000000000D+00  0.0000000000000D+00  0.0000000000000D+00
202  2.0100000000000D+00  0.0000000000000D+00  0.0000000000000D+00
203  2.0200000000000D+00  0.0000000000000D+00  0.0000000000000D+00
204  2.0300000000000D+00  0.0000000000000D+00  0.0000000000000D+00
205  2.0400000000000D+00  0.0000000000000D+00  0.0000000000000D+00
206  2.0500000000000D+00  0.0000000000000D+00  0.0000000000000D+00
207  2.0600000000000D+00  0.0000000000000D+00  0.0000000000000D+00
208  2.0700000000000D+00  0.0000000000000D+00  0.0000000000000D+00
209  2.0800000000000D+00  0.0000000000000D+00  0.0000000000000D+00
210  2.0900000000000D+00  0.0000000000000D+00  0.0000000000000D+00
211  2.1000000000000D+00  0.0000000000000D+00  0.0000000000000D+00
212  2.1100000000000D+00  0.0000000000000D+00  0.0000000000000D+00
213  2.1200000000000D+00  0.0000000000000D+00  0.0000000000000D+00
214  2.1300000000000D+00  0.0000000000000D+00  0.0000000000000D+00
215  2.1400000000000D+00  0.0000000000000D+00  0.0000000000000D+00
216  2.1500000000000D+00  0.0000000000000D+00  0.0000000000000D+00
217  2.1600000000000D+00  0.0000000000000D+00  0.0000000000000D+00
218  2.1700000000000D+00  0.0000000000000D+00  0.0000000000000D+00
219  2.1800000000000D+00  0.0000000000000D+00  0.0000000000000D+00
220  2.1900000000000D+00  0.0000000000000D+00  0.0000000000000D+00
221  2.2000000000000D+00  0.0000000000000D+00  0.0000000000000D+00
222  2.2100000000000D+00  0.0000000000000D+00  0.0000000000000D+00
223  2.2200000000000D+00  0.0000000000000D+00  0.0000000000000D+00
224  2.2300000000000D+00  0.0000000000000D+00  0.0000000000000D+00
225  2.2400000000000D+00  0.0000000000000D+00  0.0000000000000D+00
226  2.2500000000000D+00  0.0000000000000D+00  0.0000000000000D+00
227  2.2600000000000D+00  0.0000000000000D+00  0.0000000000000D+00
228  2.2700000000000D+00  0.0000000000000D+00  0.0000000000000D+00
229  2.2800000000000D+00  0.0000000000000D+00  0.0000000000000D+00
230  2.2900000000000D+00  0.0000000000000D+00  0.0000000000000D+00
231  2.3000000000000D+00  0.0000000000000D+00  0.0000000000000D+00
232  2.3100000000000D+00  0.0000000000000D+00  0.0000000000000D+00
233  2.3200000000000D+00  0.0000000000000D+00  0.0000000000000D+00
234  2.3300000000000D+00  0.0000000000000D+00  0.0000000000000D+00
235  2.3400000000000D+00  0.0000000000000D+00  0.0000000000000D+00
236  2.3500000000000D+00  0.0000000000000D+00  0.0000000000000D+00
237  2.3600000000000D+00  0.0000000000000D+00  0.0000000000000D+00
238  2.3700000000000D+00  0.0000000000000D+00  0.0000000000000D+00
239  2.3800000000000D+00  0.0000000000000D+00  0.0000000000000D+00
240  2.3900000000000D+00  0.0000000000000D+00  0.0000000000000D+00
241  2.4000000000000D+00  0.0000000000000D+00  0.0000000000000D+00
242  2.4100000000000D+00  0.0000000000000D+00  0.0000000000000D+00
243  2.4200000000000D+00  0.0000000000000D+00  0.0000000000000D+00
244  2.4300000000000D+00  0.0000000000000D+00  0.0000000000000D+00
245  2.4400000000000D+00  0.0000000000000D+00  0.0000000000000D+00
246  2.4500000000000D+00  0.0000000000000D+00  0.0000000000000D+00
247  2.4600000000000D+00  0.0000000000000D+00  0.0000000000000D+00
248  2.4700000000000D+00  0.0000000000000D+00  0.0000000000000D+00
249  2.4800000000000D+00  0.0000000000000D+00  0.0000000000000D+00
250  2.4900000000000D+00  0.0000000000000D+00  0.0000000000000D+00
251  2.5000000000000D+00  0.0000000000000D+00  0.0000000000000D+00
252  2.5100000000000D+00  0.0000000000000D+00  0.0000000000000D+00
253  2.5200000000000D+00  0.0000000000000D+00  0.0000000000000D+00
254  2.5300000000000D+00  0.0000000000000D+00  0.0000000000000D+00
255  2.5400000000000D+00  0.0000000000000D+00  0.0000000000000D+00
256  2.5500000000000D+00  0.0000000000000D+00  0.0000000000000D+00
257  2.5600000000000D+00  0.0000000000000D+00  0.0000000000000D+00
258  2.5700000000000D+00  0.0000000000000D+00  0.0000000000000D+00
259  2.5800000000000D+00  0.0000000000000D+00  0.0000000000000D+00
260  2.5900000000000D+00  0.0000000000000D+00  0.0000000000000D+00
261  2.6000000000000D+00  0.0000000000000D+00  0.0000000000000D+00
262  2.6100000000000D+00  0.0000000000000D+00  0.0000000000000D+00
263  2.6200000000000D+00  0.0000000000000D+00  0.0000000000000D+00
264  2.6300000000000D+00  0.0000000000000D+00  0.0000000000000D+00
265  2.6400000000000D+00  0.0000000000000D+00  0.0000000000000D+00
266  2.6500000000000D+00  0.0000000000000D+00  0.0000000000000D+00
267  2.6600000000000D+00  0.0000000000000D+00  0.0000000000000D+00
268  2.6700000000000D+00  0.0000000000000D+00  0.0000000000000D+00
269  2.6800000000000D+00  0.0000000000000D+00  0.0000000000000D+00
270  2.6900000000000D+00  0.0000000000000D+00  0.0000000000000D+00
271  2.7000000000000D+00  0.0000000000000D+00  0.0000000000000D+00
272  2.7100000000000D+00  0.0000000000000D+00  0.0000000000000D+00
273  2.7200000000000D+00  0.0000000000000D+00  0.0000000000000D+00
274  2.7300000000000D+00  0.0000000000000D+00  0.0000000000000D+00
275  2.7400000000000D+00  0.0000000000000D+00  0.0000000000000D+00
276  2.7500000000000D+00  0.0000000000000D+00  0.0000000000000D+00
277  2.7600000000000D+00  0.0000000000000D+00  0.0000000000000D+00
278  2.7700000000000D+00  0.0000000000000D+00  0.0000000000000D+00
279  2.7800000000000D+00  0.0000000000000D+00  0.0000000000000D+00
280  2.7900000000000D+00  0.0000000000000D+00  0.0000000000000D+00
281  2.8000000000000D+00  0.0000000000000D+00  0.0000000000000D+00
282  2.8100000000000D+00  0.0000000000000D+00  0.0000000000000D+00
283  2.8200000000000D+00  0.0000000000000D+00  0.0000000000000D+00
284  2.8300000000000D+00  0.0000000000000D+00  0.0000000000000D+00
285  2.8400000000000D+00  0.0000000000000D+00  0.0000000000000D+00
286  2.8500000000000D+00  0.0000000000000D+00  0.0000000000000D+00
287  2.8600000000000D+00  0.0000000000000D+00  0.0000000000000D+00
288  2.8700000000000D+00  0.0000000000000D+00  0.0000000000000D+00
289  2.8800000000000D+00  0.0000000000000D+00  0.0000000000000D+00
290  2.8900000000000D+00  0.0000000000000D+00  0.0000000000000D+00
291  2.9000000000000D+00  0.0000000000000D+00  0.0000000000000D+00
292  2.9100000000000D+00  0.0000000000000D+00  0.0000000000000D+00
293  2.9200000000000D+00  0.0000000000000D+00  0.0000000000000D+00
294  2.9300000000000D+00  0.0000000000000D+00  0.0000000000000D+00
295  2.9400000000000D+00  0.0000000000000D+00  0.0000000000000D+00
296  2.9500000000000D+00  0.0000000000000D+00  0.0000000000000D+00
297  2.9600000000000D+00  0.0000000000000D+00  0.0000000000000D+00
298  2.9700000000000D+00  0.0000000000000D+00  0.0000000000000D+00
299  2.9800000000000D+00  0.0000000000000D+00  0.0000000000000D+00
300  2.9900000000000D+00  0.0000000000000D+00  0.0000000000000D+00
301  3.0000000000000D+00  0.0000000000000D+00  0.0000000000000D+00
302  3.0100000000000D+00  0.0000000000000D+00  0.0000000000000D+00
303  3.0200000000000D+00  0.0000000000000D+00  0.0000000000000D+00
304  3.0300000000000D+00  0.0000000000000D+00  0.0000000000000D+00
305  3.0400000000000D+00  0.0000000000000D+00  0.0000000000000D+00
306  3.0500000000000D+00  0.0000000000000D+00  0.0000000000000D+00
307  3.0600000000000D+00  0.0000000000000D+00  0.0000000000000D+00
308  3.0700000000000D+00  0.0000000000000D+00  0.0000000000000D+00
309  3.0800000000000D+00  0.0000000000000D+00  0.0000000000000D+00
310  3.0900000000000D+00  0.0000000000000D+00  0.0000000000000D+00
311  3.1000000000000D+00  0.0000000000000D+00  0.0000000000000D+00
312  3.1100000000000D+00  0.0000000000000D+00  0.0000000000000D+00
313  3.1200000000000D+00  0.0000000000000D+00  0.0000000000000D+00
314  3.1300000000000D+00  0.0000000000000D+00  0.0000000000000D+00
315  3.1400000000000D+00  0.0000000000000D+00  0.0000000000000D+00
316  3.1500000000000D+00  0.0000000000000D+00  0.0000000000000D+00
317  3.1600000000000D+00  0.0000000000000D+00  0.0000000000000D+00
318  3.1700000000000D+00  0.0000000000000D+00  0.0000000000000D+00
319  3.1800000000000D+00  0.0000000000000D+00  0.0000000000000D+00
320  3.1900000000000D+00  0.0000000000000D+00  0.0000000000000D+00
321  3.2000000000000D+00  0.0000000000000D+00  0.0000000000000D+00
322  3.2100000000000D+00  0.0000000000000D+00  0.0000000000000D+00
323  3.2200000000000D+00  0.0000000000000D+00  0.0000000000000D+00
324  3.2300000000000D+00  0.0000000000000D+00  0.0000000000000D+00
325  3.2400000000000D+00  0.0000000000000D+00  0.0000000000000D+00
326  3.2500000000000D+00  0.0000000000000D+00  0.0000000000000D+00
327  3.2600000000000D+00  0.0000000000000D+00  0.0000000000000D+00
328  3.2700000000000D+00  0.0000000000000D+00  0.0000000000000D+00
329  3.2800000000000D+00  0.0000000000000D+00  0.0000000000000D+00
330  3.2900000000000D+00  0.0000000000000D+00  0.0000000000000D+00
331  3.3000000000000D+00  0.0000000000000D+00  0.0000000000000D+00
332  3.3100000000000D+00  0.0000000000000D+00  0.0000000000000D+00
333  3.3200000000000D+00  0.0000000000000D+00  0.0000000000000D+00
334  3.3300000000000D+00  0.0000000000000D+00  0.0000000000000D+00
335  3.3400000000000D+00  0.0000000000000D+00  0.0000000000000D+00
336  3.3500000000000D+00  0.0000000000000D+00  0.0000000000000D+00
337  3.3600000000000D+00  0.0000000000000D+00  0.0000000000000D+00
338  3.3700000000000D+00  0.0000000000000D+00  0.0000000000000D+00
339  3.3800000000000D+00  0.0000000000000D+00  0.0000000000000D+00
340  3.3900000000000D+00  0.0000000000000D+00  0.0000000000000D+00
341  3.4000000000000D+00  0.0000000000000D+00  0.0000000000000D+00
342  3.4100000000000D+00  0.0000000000000D+00  0.0000000000000D+00
343  3.4200000000000D+00  0.0000000000000D+00  0.0000000000000D+00
344  3.4300000000000D+00  0.0000000000000D+00  0.0000000000000D+00
345  3.4400000000000D+00  0.0000000000000D+00  0.0000000000000D+00
346  3.4500000000000D+00  0.0000000000000D+00  0.0000000000000D+00
347  3.4600000000000D+00  0.0000000000000D+00  0.0000000000000D+00
348  3.4700000000000D+00  0.0000000000000D+00  0.0000000000000D+00
349  3.4800000000000D+00  0.0000000000000D+00  0.0000000000000D+00
350  3.4900000000000D+00  0.0000000000000D+00  0.0000000000000D+00
351  3.5000000000000D+00  0.0000000000000D+00  0.0000000000000D+00
352  3.5100000000000D+00  0.0000000000000D+00  0.0000000000000D+00
353  3.5200000000000D+00  0.0000000000000D+00  0.0000000000000D+00
354  3.5300000000000D+00  0.0000000000000D+00  0.0000000000000D+00
355  3.5400000000000D+00  0.0000000000000D+00  0.0000000000000D+00
356  3.5500000000000D+00  0.0000000000000D+00  0.0000000000000D+00
357  3.5600000000000D+00  0.0000000000000D+00  0.0000000000000D+00
358  3.5700000000000D+00  0.0000000000000D+00  0.0000000000000D+00
359  3.5800000000000D+00  0.0000000000000D+00  0.0000000000000D+00
360  3.5900000000000D+00  0.0000000000000D+00  0.0000000000000D+00
361  3.6000000000000D+00  0.0000000000000D+00  0.0000000000000D+00
362  3.6100000000000D+00  0.0000000000000D+00  0.0000000000000D+00
363  3.6200000000000D+00  0.0000000000000D+00  0.0000000000000D+00
364  3.6300000000000D+00  0.0000000000000D+00  0.0000000000000D+00
365  3.6400000000000D+00  0.0000000000000D+00  0.0000000000000D+00
366  3.6500000000000D+00  0.0000000000000D+00  0.0000000000000D+00
367  3.6600000000000D+00  0.0000000000000D+00  0.0000000000000D+00
368  3.6700000000000D+00  0.0000000000000D+00  0.0000000000000D+00
369  3.6800000000000D+00  0.0000000000000D+00  0.0000000000000D+00
370  3.6900000000000D+00  0.0000000000000D+00  0.0000000000000D+00
371  3.7000000000000D+00  0.0000000000000D+00  0.0000000000000D+00
372  3.7100000000000D+00  0.0000000000000D+00  0.0000000000000D+00
373  3.7200000000000D+00  0.0000000000000D+00  0.0000000000000D+00
374  3.7300000000000D+00  0.0000000000000D+00  0.0000000000000D+00
375  3.7400000000000D+00  0.0000000000000D+00  0.0000000000000D+00
376  3.7500000000000D+00  0.0000000000000D+00  0.0000000000000D+00
377  3.7600000000000D+00  0.0000000000000D+00  0.0000000000000D+00
378  3.7700000000000D+00  0.0000000000000D+00  0.0000000000000D+00
379  3.7800000000000D+00  0.0000000000000D+00  0.0000000000000D+00
380  3.7900000000000D+00  0.0000000000000D+00  0.0000000000000D+00
381  3.8000000000000D+00  0.0000000000000D+00  0.0000000000000D+00
382  3.8100000000000D+00  0.0000000000000D+00  0.0000000000000D+00
383  3.8200000000000D+00  0.0000000000000D+00  0.0000000000000D+00
384  3.8300000000000D+00  0.0000000000000D+00  0.0000000000000D+00
385  3.8400000000000D+00  0.0000000000000D+00  0.0000000000000D+00
386  3.8500000000000D+00  0.0000000000000D+00  0.0000000000000D+00
387  3.8600000000000D+00  0.0000000000000D+00  0.0000000000000D+00
388  3.8700000000000D+00  0.0000000000000D+00  0.0000000000000D+00
389  3.8800000000000D+00  0.0000000000000D+00  0.0000000000000D+00
390  3.8900000000000D+00  0.0000000000000D+00  0.0000000000000D+00
391  3.9000000000000D+00  0.0000000000000D+00  0.0000000000000D+00
392  3.9100000000000D+00  0.0000000000000D+00  0.0000000000000D+00
393  3.9200000000000D+00  0.0000000000000D+00  0.0000000000000D+00
394  3.9300000000000D+00  0.0000000000000D+00  0.0000000000000D+00
395  3.9400000000000D+00  0.0000000000000D+00  0.0000000000000D+00
396  3.9500000000000D+00  0.0000000000000D+00  0.0000000000000D+00
397  3.9600000000000D+00  0.0000000000000D+00  0.0000000000000D+00
398  3.9700000000000D+00  0.0000000000000D+00  0.0000000000000D+00
399  3.9800000000000D+00  0.0000000000000D+00  0.0000000000000D+00
400  3.9900000000000D+00  0.0000000000000D+00  0.0000000000000D+00
401  4.0000000000000D+00  0.0000000000000D+00  0.0000000000000D+00
402  4.0100000000000D+00  0.0000000000000D+00  0.0000000000000D+00
403  4.0200000000000D+00  0.0000000000000D+00  0.0000000000000D+00
404  4.0300000000000D+00  0.0000000000000D+00  0.0000000000000D+00
405  4.0400000000000D+00  0.0000000000000D+00  0.0000000000000D+00
406  4.0500000000000D+00  0.0000000000000D+00  0.0000000000000D+00
407  4.0600000000000D+00  0.0000000000000D+00  0.0000000000000D+00
408  4.0700000000000D+00  0.0000000000000D+00  0.0000000000000D+00
409  4.0800000000000D+00  0.0000000000000D+00  0.0000000000000D+00
410  4.0900000000000D+00  0.0000000000000D+00  0.0000000000000D+00
411  4.1000000000000D+00  0.0000000000000D+00  0.0000000000000D+00
412  4.1100000000000D+00  0.0000000000000D+00  0.0000000000000D+00
413  4.1200000000000D+00  0.0000000000000D+00  0.0000000000000D+00
414  4.1300000000000D+00  0.0000000000000D+00  0.0000000000000D+00
415  4.1400000000000D+00  0.0000000000000D+00  0.0000000000000D+00
416  4.1500000000000D+00  0.0000000000000D+00  0.0000000000000D+00
417  4.1600000000000D+00  0.0000000000000D+00  0.0000000000000D+00
418  4.1700000000000D+00  0.0000000000000D+00  0.0000000000000D+00
419  4.1800000000000D+00  0.0000000000000D+00  0.0000000000000D+00
420  4.1900000000000D+00  0.0000000000000D+00  0.0000000000000D+00
421  4.2000000000000D+00  0.0000000000000D+00  0.0000000000000D+00
422  4.2100000000000D+00  0.0000000000000D+00  0.0000000000000D+00
423  4.2200000000000D+00  0.0000000000000D+00  0.0000000000000D+00
424  4.2300000000000D+00  0.0000000000000D+00  0.0000000000000D+00
425  4.2400000000000D+00  0.0000000000000D+00  0.0000000000000D+00
426  4.2500000000000D+00  0.0000000000000D+00  0.0000000000000D+00
427  4.2600000000000D+00  0.0000000000000D+00  0.0000000000000D+00
428  4.2700000000000D+00  0.0000000000000D+00  0.0000000000000D+00
429  4.2800000000000D+00  0.0000000000000D+00  0.0000000000000D+00
430  4.2900000000000D+00  0.0000000000000D+00  0.0000000000000D+00
431  4.3000000000000D+00  0.0000000000000D+00  0.0000000000000D+00
432  4.3100000000000D+00  0.0000000000000D+00  0.0000000000000D+00
433  4.3200000000000D+00  0.0000000000000D+00  0.0000000000000D+00
434  4.3300000000000D+00  0.0000000000000D+00  0.0000000000000D+00
435  4.3400000000000D+00  0.0000000000000D+00  0.0000000000000D+00
436  4.3500000000000D+00  0.0000000000000D+00  0.0000000000000D+00
437  4.3600000000000D+00  0.0000000000000D+00  0.0000000000000D+00
438  4.3700000000000D+00  0.0000000000000D+00  0.0000000000000D+00
439  4.3800000000000D+00  0.0000000000000D+00  0.0000000000000D+00
440  4.3900000000000D+00  0.0000000000000D+00  0.0000000000000D+00
441  4.4000000000000D+00  0.0000000000000D+00  0.0000000000000D+00
442  4.4100000000000D+00  0.0000000000000D+00  0.0000000000000D+00
443  4.4200000000000D+00  0.0000000000000D+00  0.0000000000000D+00