Cl    ONCVPSP-3.3.0  r_core=   1.56009   1.35202   1.75774
17.0000      7.0000      180423    zatom,zion,pspd
8      11   2     4   600     0    pspcod,pspxc,lmax,lloc,mmax,r2well
5.99000000  8.00000000  0.00000000    rchrg fchrg qchrg
2     3     2     0    nproj
3     1           extension_switch
3     4     0    nprojso
0                         6.9854964199052D-01  8.1389375048004D+00
1  0.0000000000000D+00 -2.8683360409065D-09  4.9280696190479D-10
2  1.0000000000000D-02 -1.7903181959888D-02  4.6682346388690D-02
3  2.0000000000000D-02 -3.5878567815561D-02  9.3339322205371D-02
4  3.0000000000000D-02 -5.3995999543147D-02  1.3994514235726D-01
5  4.0000000000000D-02 -7.2320638418734D-02  1.8647320042603D-01
6  5.0000000000000D-02 -9.0910731767739D-02  2.3289567716647D-01
7  6.0000000000000D-02 -1.0981550614972D-01  2.7918317164126D-01
8  7.0000000000000D-02 -1.2907322568903D-01  3.2530436194740D-01
9  8.0000000000000D-02 -1.4870945139327D-01  3.7122570199722D-01
10  9.0000000000000D-02 -1.6873553380963D-01  4.1691116021621D-01
11  1.0000000000000D-01 -1.8914736731257D-01  4.6232200532234D-01
12  1.1000000000000D-01 -2.0992442976627D-01  5.0741664356717D-01
13  1.2000000000000D-01 -2.3102912633760D-01  5.5215051096280D-01
14  1.3000000000000D-01 -2.5240645093758D-01  5.9647602310296D-01
15  1.4000000000000D-01 -2.7398397323073D-01  6.4034258422845D-01
16  1.5000000000000D-01 -2.9567215346845D-01  6.8369665620118D-01
17  1.6000000000000D-01 -3.1736498167199D-01  7.2648188705440D-01
18  1.7000000000000D-01 -3.3894093201227D-01  7.6863929779664D-01
19  1.8000000000000D-01 -3.6026421770427D-01  8.1010752517786D-01
20  1.9000000000000D-01 -3.8118632645011D-01  8.5082311719769D-01
21  2.0000000000000D-01 -4.0154781151839D-01  8.9072087725935D-01
22  2.1000000000000D-01 -4.2118030902273D-01  9.2973425206711D-01
23  2.2000000000000D-01 -4.3990874794027D-01  9.6779575764013D-01
24  2.3000000000000D-01 -4.5755371596068D-01  1.0048374371862D+00
25  2.4000000000000D-01 -4.7393394143808D-01  1.0407913440534D+00
26  2.5000000000000D-01 -4.8886884958408D-01  1.0755900425676D+00
27  2.6000000000000D-01 -5.0218114962570D-01  1.1091671192705D+00
28  2.7000000000000D-01 -5.1369940898607D-01  1.1414576969114D+00
29  2.8000000000000D-01 -5.2326057063922D-01  1.1723989435046D+00
30  2.9000000000000D-01 -5.3071237064552D-01  1.2019305688591D+00
31  3.0000000000000D-01 -5.3591561447660D-01  1.2299953012029D+00
32  3.1000000000000D-01 -5.3874627306367D-01  1.2565393368685D+00
33  3.2000000000000D-01 -5.3909736251191D-01  1.2815127564631D+00
34  3.3000000000000D-01 -5.3688057506614D-01  1.3048699015177D+00
35  3.4000000000000D-01 -5.3202763312804D-01  1.3265697062750D+00
36  3.5000000000000D-01 -5.2449134284165D-01  1.3465759800365D+00
37  3.6000000000000D-01 -5.1424632890129D-01  1.3648576363180D+00
38  3.7000000000000D-01 -5.0128943770659D-01  1.3813888659594D+00
39  3.8000000000000D-01 -4.8563980169978D-01  1.3961492522715D+00
40  3.9000000000000D-01 -4.6733856357156D-01  1.4091238272737D+00
41  4.0000000000000D-01 -4.4644826491371D-01  1.4203030690586D+00
42  4.1000000000000D-01 -4.2305190972542D-01  1.4296828412988D+00
43  4.2000000000000D-01 -3.9725171884686D-01  1.4372642768669D+00
44  4.3000000000000D-01 -3.6916759679533D-01  1.4430536084667D+00
45  4.4000000000000D-01 -3.3893533752544D-01  1.4470619500347D+00
46  4.5000000000000D-01 -3.0670460023142D-01  1.4493050334783D+00
47  4.6000000000000D-01 -2.7263669037979D-01  1.4498029060304D+00
48  4.7000000000000D-01 -2.3690218462584D-01  1.4485795941261D+00
49  4.8000000000000D-01 -1.9967844107005D-01  1.4456627402281D+00
50  4.9000000000000D-01 -1.6114703839372D-01  1.4410832194262D+00
51  5.0000000000000D-01 -1.2149118874127D-01  1.4348747429248D+00
52  5.1000000000000D-01 -8.0893169760489D-02  1.4270734556846D+00
53  5.2000000000000D-01 -3.9531820959049D-02  1.4177175355110D+00
54  5.3000000000000D-01  2.4198515129665D-03  1.4068468007808D+00
55  5.4000000000000D-01  4.4796919377253D-02  1.3945023337600D+00
56  5.5000000000000D-01  8.7444586342728D-02  1.3807261261152D+00
57  5.6000000000000D-01  1.3022001543151D-01  1.3655607527373D+00
58  5.7000000000000D-01  1.7299389707170D-01  1.3490490794137D+00
59  5.8000000000000D-01  2.1565173007700D-01  1.3312340091937D+00
60  5.9000000000000D-01  2.5809479268527D-01  1.3121582715170D+00
61  6.0000000000000D-01  3.0024078634756D-01  1.2918642573197D+00
62  6.1000000000000D-01  3.4202414077066D-01  1.2703939024214D+00
63  6.2000000000000D-01  3.8339597482190D-01  1.2477886205361D+00
64  6.3000000000000D-01  4.2432371408199D-01  1.2240892862656D+00
65  6.4000000000000D-01  4.6479037208431D-01  1.1993362674364D+00
66  6.5000000000000D-01  5.0479350842782D-01  1.1735695051493D+00
67  6.6000000000000D-01  5.4434388288367D-01  1.1468286389504D+00
68  6.7000000000000D-01  5.8346383030317D-01  1.1191531736042D+00
69  6.8000000000000D-01  6.2218538637589D-01  1.0905826830857D+00
70  6.9000000000000D-01  6.6054819904953D-01  1.0611570466216D+00
71  7.0000000000000D-01  6.9859726461267D-01  1.0309167109032D+00
72  7.1000000000000D-01  7.3638053096578D-01  9.9990297199915D-01
73  7.2000000000000D-01  7.7394641340069D-01  9.6815827000366D-01
74  7.3000000000000D-01  8.1134127023120D-01  9.3572648909784D-01
75  7.4000000000000D-01  8.4860688681526D-01  9.0265325546262D-01
76  7.5000000000000D-01  8.8577801686308D-01  8.6898622538493D-01
77  7.6000000000000D-01  9.2288002941222D-01  8.3477535593742D-01
78  7.7000000000000D-01  9.5992670848409D-01  8.0007315078942D-01
79  7.8000000000000D-01  9.9691825022595D-01  7.6493487402068D-01
80  7.9000000000000D-01  1.0338394993222D+00  7.2941872525596D-01
81  8.0000000000000D-01  1.0706584626753D+00  6.9358597001024D-01
82  8.1000000000000D-01  1.1073251338668D+00  6.5750101982328D-01
83  8.2000000000000D-01  1.1437706567866D+00  6.2123145755719D-01
84  8.3000000000000D-01  1.1799068511593D+00  5.8484800411675D-01
85  8.4000000000000D-01  1.2156261165552D+00  5.4842442382114D-01
86  8.5000000000000D-01  1.2508017250084D+00  5.1203736668267D-01
87  8.6000000000000D-01  1.2852885056425D+00  4.7576614692320D-01
88  8.7000000000000D-01  1.3189239178487D+00  4.3969245816049D-01
89  8.8000000000000D-01  1.3515295027042D+00  4.0390002680787D-01
90  8.9000000000000D-01  1.3829126955609D+00  3.6847420633006D-01
91  9.0000000000000D-01  1.4128689761830D+00  3.3350151607321D-01
92  9.1000000000000D-01  1.4411843266589D+00  2.9906912940369D-01
93  9.2000000000000D-01  1.4676379615043D+00  2.6526431685929D-01
94  9.3000000000000D-01  1.4920052892089D+00  2.3217385088639D-01
95  9.4000000000000D-01  1.5140610599033D+00  1.9988337951982D-01
96  9.5000000000000D-01  1.5335826499836D+00  1.6847677702989D-01
97  9.6000000000000D-01  1.5503534314912D+00  1.3803548010705D-01
98  9.7000000000000D-01  1.5641661718508D+00  1.0863781856641D-01
99  9.8000000000000D-01  1.5748264082783D+00  8.0358349825764D-02
100  9.9000000000000D-01  1.5821557407883D+00  5.3267206536709D-02
101  1.0000000000000D+00  1.5859949883551D+00  2.7429466715461D-02
102  1.0100000000000D+00  1.5862071541710D+00  2.9045555603701D-03
103  1.0200000000000D+00  1.5826801484637D+00 -2.0254312192868D-02
104  1.0300000000000D+00  1.5753292205861D+00 -4.2000640988708D-02
105  1.0400000000000D+00  1.5640990562158D+00 -6.2295106453938D-02
106  1.0500000000000D+00  1.5489655003352D+00 -8.1105943617545D-02
107  1.0600000000000D+00  1.5299368725810D+00 -9.8409265179475D-02
108  1.0700000000000D+00  1.5070548468765D+00 -1.1418930447505D-01
109  1.0800000000000D+00  1.4803948749542D+00 -1.2843857897350D-01
110  1.0900000000000D+00  1.4500661396950D+00 -1.4115797114026D-01
111  1.1000000000000D+00  1.4162110318517D+00 -1.5235672469659D-01
112  1.1100000000000D+00  1.3790041512023D+00 -1.6205235550265D-01
113  1.1200000000000D+00  1.3386508399438D+00 -1.7027047737237D-01
114  1.1300000000000D+00  1.2953852647308D+00 -1.7704454452078D-01
115  1.1400000000000D+00  1.2494680699076D+00 -1.8241551335056D-01
116  1.1500000000000D+00  1.2011836319113D+00 -1.8643142751524D-01
117  1.1600000000000D+00  1.1508369499032D+00 -1.8914693103932D-01
118  1.1700000000000D+00  1.0987502152826D+00 -1.9062271556770D-01
119  1.1800000000000D+00  1.0452591064649D+00 -1.9092490847393D-01
120  1.1900000000000D+00  9.9070885965405D-01 -1.9012440932823D-01
121  1.2000000000000D+00  9.3545017015562D-01 -1.8829618291618D-01
122  1.2100000000000D+00  8.7983498156910D-01 -1.8551851756077D-01
123  1.2200000000000D+00  8.2421222087334D-01 -1.8187225772361D-01
124  1.2300000000000D+00  7.6892353895008D-01 -1.7744002014773D-01
125  1.2400000000000D+00  7.1429911566392D-01 -1.7230540294666D-01
126  1.2500000000000D+00  6.6065358598258D-01 -1.6655219671311D-01
127  1.2600000000000D+00  6.0828214235938D-01 -1.6026360664334D-01
128  1.2700000000000D+00  5.5745687016160D-01 -1.5352149485930D-01
129  1.2800000000000D+00  5.0842333170701D-01 -1.4640564689279D-01
130  1.2900000000000D+00  4.6139764877664D-01 -1.3899309595046D-01
131  1.3000000000000D+00  4.1656350916891D-01 -1.3135743439811D-01
132  1.3100000000000D+00  3.7406968501977D-01 -1.2356819400772D-01
133  1.3200000000000D+00  3.3403156454269D-01 -1.1569068440269D-01
134  1.3300000000000D+00  2.9653308852445D-01 -1.0778594573190D-01
135  1.3400000000000D+00  2.6162973832330D-01 -9.9910883964234D-02
136  1.3500000000000D+00  2.2934839970299D-01 -9.2118078635128D-02
137  1.3600000000000D+00  1.9968794284947D-01 -8.4455693398768D-02
138  1.3700000000000D+00  1.7262052133379D-01 -7.6967475879735D-02
139  1.3800000000000D+00  1.4809312910381D-01 -6.9692805859727D-02
140  1.3900000000000D+00  1.2602957239089D-01 -6.2666805262521D-02
141  1.4000000000000D+00  1.0633278960722D-01 -5.5920503122083D-02
142  1.4100000000000D+00  8.8887482297942D-02 -4.9481050535918D-02
143  1.4200000000000D+00  7.3563010308564D-02 -4.3371979569497D-02
144  1.4300000000000D+00  6.0216505474871D-02 -3.7613500259457D-02
145  1.4400000000000D+00  4.8696142901321D-02 -3.2222827344344D-02
146  1.4500000000000D+00  3.8844520182843D-02 -2.7214530211587D-02
147  1.4600000000000D+00  3.0502080568561D-02 -2.2600897185304D-02
148  1.4700000000000D+00  2.3510526055648D-02 -1.8392306766366D-02
149  1.4800000000000D+00  1.7716155132819D-02 -1.4597596817355D-02
150  1.4900000000000D+00  1.2973077253539D-02 -1.1224424920383D-02
151  1.5000000000000D+00  9.1462354517842D-03 -8.2796104391132D-03
152  1.5100000000000D+00  6.1152061027608D-03 -5.7706113033359D-03
153  1.5200000000000D+00  3.7725648237112D-03 -3.7010502941677D-03
154  1.5300000000000D+00  2.0251561744921D-03 -2.0688844991840D-03
155  1.5400000000000D+00  8.2453680989266D-04 -9.0435439440057D-04
156  1.5500000000000D+00  1.3342474454694D-04 -2.2879745988113D-04
157  1.5600000000000D+00 -1.3281076423646D-04  4.3701735366495D-05
158  1.5700000000000D+00 -1.0033427838671D-04  5.8565476524342D-05
159  1.5800000000000D+00  7.2936308748965D-06 -4.5942817134368D-06
160  1.5900000000000D+00  2.3979505373083D-05 -1.5779198160286D-05
161  1.6000000000000D+00 -2.3448043820512D-06  1.4120694870296D-06
162  1.6100000000000D+00 -4.7647868866916D-06  2.9251098352181D-06
163  1.6200000000000D+00  2.0347710030176D-07 -6.8071667265521D-08
164  1.6300000000000D+00  3.1089763087118D-07 -1.0400836286204D-07
165  1.6400000000000D+00  0.0000000000000D+00  0.0000000000000D+00
166  1.6500000000000D+00  0.0000000000000D+00  0.0000000000000D+00
167  1.6600000000000D+00  0.0000000000000D+00  0.0000000000000D+00
168  1.6700000000000D+00  0.0000000000000D+00  0.0000000000000D+00
169  1.6800000000000D+00  0.0000000000000D+00  0.0000000000000D+00
170  1.6900000000000D+00  0.0000000000000D+00  0.0000000000000D+00
171  1.7000000000000D+00  0.0000000000000D+00  0.0000000000000D+00
172  1.7100000000000D+00  0.0000000000000D+00  0.0000000000000D+00
173  1.7200000000000D+00  0.0000000000000D+00  0.0000000000000D+00
174  1.7300000000000D+00  0.0000000000000D+00  0.0000000000000D+00
175  1.7400000000000D+00  0.0000000000000D+00  0.0000000000000D+00
176  1.7500000000000D+00  0.0000000000000D+00  0.0000000000000D+00
177  1.7600000000000D+00  0.0000000000000D+00  0.0000000000000D+00
178  1.7700000000000D+00  0.0000000000000D+00  0.0000000000000D+00
179  1.7800000000000D+00  0.0000000000000D+00  0.0000000000000D+00
180  1.7900000000000D+00  0.0000000000000D+00  0.0000000000000D+00
181  1.8000000000000D+00  0.0000000000000D+00  0.0000000000000D+00
182  1.8100000000000D+00  0.0000000000000D+00  0.0000000000000D+00
183  1.8200000000000D+00  0.0000000000000D+00  0.0000000000000D+00
184  1.8300000000000D+00  0.0000000000000D+00  0.0000000000000D+00
185  1.8400000000000D+00  0.0000000000000D+00  0.0000000000000D+00
186  1.8500000000000D+00  0.0000000000000D+00  0.0000000000000D+00
187  1.8600000000000D+00  0.0000000000000D+00  0.0000000000000D+00
188  1.8700000000000D+00  0.0000000000000D+00  0.0000000000000D+00
189  1.8800000000000D+00  0.0000000000000D+00  0.0000000000000D+00
190  1.8900000000000D+00  0.0000000000000D+00  0.0000000000000D+00
191  1.9000000000000D+00  0.0000000000000D+00  0.0000000000000D+00
192  1.9100000000000D+00  0.0000000000000D+00  0.0000000000000D+00
193  1.9200000000000D+00  0.0000000000000D+00  0.0000000000000D+00
194  1.9300000000000D+00  0.0000000000000D+00  0.0000000000000D+00
195  1.9400000000000D+00  0.0000000000000D+00  0.0000000000000D+00
196  1.9500000000000D+00  0.0000000000000D+00  0.0000000000000D+00
197  1.9600000000000D+00  0.0000000000000D+00  0.0000000000000D+00
198  1.9700000000000D+00  0.0000000000000D+00  0.0000000000000D+00
199  1.9800000000000D+00  0.0000000000000D+00  0.0000000000000D+00
200  1.9900000000000D+00  0.0000000000000D+00  0.0000000000000D+00
201  2.0000000000000D+00  0.0000000000000D+00  0.0000000000000D+00
202  2.0100000000000D+00  0.0000000000000D+00  0.0000000000000D+00
203  2.0200000000000D+00  0.0000000000000D+00  0.0000000000000D+00
204  2.0300000000000D+00  0.0000000000000D+00  0.0000000000000D+00
205  2.0400000000000D+00  0.0000000000000D+00  0.0000000000000D+00
206  2.0500000000000D+00  0.0000000000000D+00  0.0000000000000D+00
207  2.0600000000000D+00  0.0000000000000D+00  0.0000000000000D+00
208  2.0700000000000D+00  0.0000000000000D+00  0.0000000000000D+00
209  2.0800000000000D+00  0.0000000000000D+00  0.0000000000000D+00
210  2.0900000000000D+00  0.0000000000000D+00  0.0000000000000D+00
211  2.1000000000000D+00  0.0000000000000D+00  0.0000000000000D+00
212  2.1100000000000D+00  0.0000000000000D+00  0.0000000000000D+00
213  2.1200000000000D+00  0.0000000000000D+00  0.0000000000000D+00
214  2.1300000000000D+00  0.0000000000000D+00  0.0000000000000D+00
215  2.1400000000000D+00  0.0000000000000D+00  0.0000000000000D+00
216  2.1500000000000D+00  0.0000000000000D+00  0.0000000000000D+00
217  2.1600000000000D+00  0.0000000000000D+00  0.0000000000000D+00
218  2.1700000000000D+00  0.0000000000000D+00  0.0000000000000D+00
219  2.1800000000000D+00  0.0000000000000D+00  0.0000000000000D+00
220  2.1900000000000D+00  0.0000000000000D+00  0.0000000000000D+00
221  2.2000000000000D+00  0.0000000000000D+00  0.0000000000000D+00
222  2.2100000000000D+00  0.0000000000000D+00  0.0000000000000D+00
223  2.2200000000000D+00  0.0000000000000D+00  0.0000000000000D+00
224  2.2300000000000D+00  0.0000000000000D+00  0.0000000000000D+00
225  2.2400000000000D+00  0.0000000000000D+00  0.0000000000000D+00
226  2.2500000000000D+00  0.0000000000000D+00  0.0000000000000D+00
227  2.2600000000000D+00  0.0000000000000D+00  0.0000000000000D+00
228  2.2700000000000D+00  0.0000000000000D+00  0.0000000000000D+00
229  2.2800000000000D+00  0.0000000000000D+00  0.0000000000000D+00
230  2.2900000000000D+00  0.0000000000000D+00  0.0000000000000D+00
231  2.3000000000000D+00  0.0000000000000D+00  0.0000000000000D+00
232  2.3100000000000D+00  0.0000000000000D+00  0.0000000000000D+00
233  2.3200000000000D+00  0.0000000000000D+00  0.0000000000000D+00
234  2.3300000000000D+00  0.0000000000000D+00  0.0000000000000D+00
235  2.3400000000000D+00  0.0000000000000D+00  0.0000000000000D+00
236  2.3500000000000D+00  0.0000000000000D+00  0.0000000000000D+00
237  2.3600000000000D+00  0.0000000000000D+00  0.0000000000000D+00
238  2.3700000000000D+00  0.0000000000000D+00  0.0000000000000D+00
239  2.3800000000000D+00  0.0000000000000D+00  0.0000000000000D+00
240  2.3900000000000D+00  0.0000000000000D+00  0.0000000000000D+00
241  2.4000000000000D+00  0.0000000000000D+00  0.0000000000000D+00
242  2.4100000000000D+00  0.0000000000000D+00  0.0000000000000D+00
243  2.4200000000000D+00  0.0000000000000D+00  0.0000000000000D+00
244  2.4300000000000D+00  0.0000000000000D+00  0.0000000000000D+00
245  2.4400000000000D+00  0.0000000000000D+00  0.0000000000000D+00
246  2.4500000000000D+00  0.0000000000000D+00  0.0000000000000D+00
247  2.4600000000000D+00  0.0000000000000D+00  0.0000000000000D+00
248  2.4700000000000D+00  0.0000000000000D+00  0.0000000000000D+00
249  2.4800000000000D+00  0.0000000000000D+00  0.0000000000000D+00
250  2.4900000000000D+00  0.0000000000000D+00  0.0000000000000D+00
251  2.5000000000000D+00  0.0000000000000D+00  0.0000000000000D+00
252  2.5100000000000D+00  0.0000000000000D+00  0.0000000000000D+00
253  2.5200000000000D+00  0.0000000000000D+00  0.0000000000000D+00
254  2.5300000000000D+00  0.0000000000000D+00  0.0000000000000D+00
255  2.5400000000000D+00  0.0000000000000D+00  0.0000000000000D+00
256  2.5500000000000D+00  0.0000000000000D+00  0.0000000000000D+00
257  2.5600000000000D+00  0.0000000000000D+00  0.0000000000000D+00
258  2.5700000000000D+00  0.0000000000000D+00  0.0000000000000D+00
259  2.5800000000000D+00  0.0000000000000D+00  0.0000000000000D+00
260  2.5900000000000D+00  0.0000000000000D+00  0.0000000000000D+00
261  2.6000000000000D+00  0.0000000000000D+00  0.0000000000000D+00
262  2.6100000000000D+00  0.0000000000000D+00  0.0000000000000D+00
263  2.6200000000000D+00  0.0000000000000D+00  0.0000000000000D+00
264  2.6300000000000D+00  0.0000000000000D+00  0.0000000000000D+00
265  2.6400000000000D+00  0.0000000000000D+00  0.0000000000000D+00
266  2.6500000000000D+00  0.0000000000000D+00  0.0000000000000D+00
267  2.6600000000000D+00  0.0000000000000D+00  0.0000000000000D+00
268  2.6700000000000D+00  0.0000000000000D+00  0.0000000000000D+00
269  2.6800000000000D+00  0.0000000000000D+00  0.0000000000000D+00
270  2.6900000000000D+00  0.0000000000000D+00  0.0000000000000D+00
271  2.7000000000000D+00  0.0000000000000D+00  0.0000000000000D+00
272  2.7100000000000D+00  0.0000000000000D+00  0.0000000000000D+00
273  2.7200000000000D+00  0.0000000000000D+00  0.0000000000000D+00
274  2.7300000000000D+00  0.0000000000000D+00  0.0000000000000D+00
275  2.7400000000000D+00  0.0000000000000D+00  0.0000000000000D+00
276  2.7500000000000D+00  0.0000000000000D+00  0.0000000000000D+00
277  2.7600000000000D+00  0.0000000000000D+00  0.0000000000000D+00
278  2.7700000000000D+00  0.0000000000000D+00  0.0000000000000D+00
279  2.7800000000000D+00  0.0000000000000D+00  0.0000000000000D+00
280  2.7900000000000D+00  0.0000000000000D+00  0.0000000000000D+00
281  2.8000000000000D+00  0.0000000000000D+00  0.0000000000000D+00
282  2.8100000000000D+00  0.0000000000000D+00  0.0000000000000D+00
283  2.8200000000000D+00  0.0000000000000D+00  0.0000000000000D+00
284  2.8300000000000D+00  0.0000000000000D+00  0.0000000000000D+00
285  2.8400000000000D+00  0.0000000000000D+00  0.0000000000000D+00
286  2.8500000000000D+00  0.0000000000000D+00  0.0000000000000D+00
287  2.8600000000000D+00  0.0000000000000D+00  0.0000000000000D+00
288  2.8700000000000D+00  0.0000000000000D+00  0.0000000000000D+00
289  2.8800000000000D+00  0.0000000000000D+00  0.0000000000000D+00
290  2.8900000000000D+00  0.0000000000000D+00  0.0000000000000D+00
291  2.9000000000000D+00  0.0000000000000D+00  0.0000000000000D+00
292  2.9100000000000D+00  0.0000000000000D+00  0.0000000000000D+00
293  2.9200000000000D+00  0.0000000000000D+00  0.0000000000000D+00
294  2.9300000000000D+00  0.0000000000000D+00  0.0000000000000D+00
295  2.9400000000000D+00  0.0000000000000D+00  0.0000000000000D+00
296  2.9500000000000D+00  0.0000000000000D+00  0.0000000000000D+00
297  2.9600000000000D+00  0.0000000000000D+00  0.0000000000000D+00
298  2.9700000000000D+00  0.0000000000000D+00  0.0000000000000D+00
299  2.9800000000000D+00  0.0000000000000D+00  0.0000000000000D+00
300  2.9900000000000D+00  0.0000000000000D+00  0.0000000000000D+00
301  3.0000000000000D+00  0.0000000000000D+00  0.0000000000000D+00
302  3.0100000000000D+00  0.0000000000000D+00  0.0000000000000D+00
303  3.0200000000000D+00  0.0000000000000D+00  0.0000000000000D+00
304  3.0300000000000D+00  0.0000000000000D+00  0.0000000000000D+00
305  3.0400000000000D+00  0.0000000000000D+00  0.0000000000000D+00
306  3.0500000000000D+00  0.0000000000000D+00  0.0000000000000D+00
307  3.0600000000000D+00  0.0000000000000D+00  0.0000000000000D+00
308  3.0700000000000D+00  0.0000000000000D+00  0.0000000000000D+00
309  3.0800000000000D+00  0.0000000000000D+00  0.0000000000000D+00
310  3.0900000000000D+00  0.0000000000000D+00  0.0000000000000D+00
311  3.1000000000000D+00  0.0000000000000D+00  0.0000000000000D+00
312  3.1100000000000D+00  0.0000000000000D+00  0.0000000000000D+00
313  3.1200000000000D+00  0.0000000000000D+00  0.0000000000000D+00
314  3.1300000000000D+00  0.0000000000000D+00  0.0000000000000D+00
315  3.1400000000000D+00  0.0000000000000D+00  0.0000000000000D+00
316  3.1500000000000D+00  0.0000000000000D+00  0.0000000000000D+00
317  3.1600000000000D+00  0.0000000000000D+00  0.0000000000000D+00
318  3.1700000000000D+00  0.0000000000000D+00  0.0000000000000D+00
319  3.1800000000000D+00  0.0000000000000D+00  0.0000000000000D+00
320  3.1900000000000D+00  0.0000000000000D+00  0.0000000000000D+00
321  3.2000000000000D+00  0.0000000000000D+00  0.0000000000000D+00
322  3.2100000000000D+00  0.0000000000000D+00  0.0000000000000D+00
323  3.2200000000000D+00  0.0000000000000D+00  0.0000000000000D+00
324  3.2300000000000D+00  0.0000000000000D+00  0.0000000000000D+00
325  3.2400000000000D+00  0.0000000000000D+00  0.0000000000000D+00
326  3.2500000000000D+00  0.0000000000000D+00  0.0000000000000D+00
327  3.2600000000000D+00  0.0000000000000D+00  0.0000000000000D+00
328  3.2700000000000D+00  0.0000000000000D+00  0.0000000000000D+00
329  3.2800000000000D+00  0.0000000000000D+00  0.0000000000000D+00
330  3.2900000000000D+00  0.0000000000000D+00  0.0000000000000D+00
331  3.3000000000000D+00  0.0000000000000D+00  0.0000000000000D+00
332  3.3100000000000D+00  0.0000000000000D+00  0.0000000000000D+00
333  3.3200000000000D+00  0.0000000000000D+00  0.0000000000000D+00
334  3.3300000000000D+00  0.0000000000000D+00  0.0000000000000D+00
335  3.3400000000000D+00  0.0000000000000D+00  0.0000000000000D+00
336  3.3500000000000D+00  0.0000000000000D+00  0.0000000000000D+00
337  3.3600000000000D+00  0.0000000000000D+00  0.0000000000000D+00
338  3.3700000000000D+00  0.0000000000000D+00  0.0000000000000D+00
339  3.3800000000000D+00  0.0000000000000D+00  0.0000000000000D+00
340  3.3900000000000D+00  0.0000000000000D+00  0.0000000000000D+00
341  3.4000000000000D+00  0.0000000000000D+00  0.0000000000000D+00
342  3.4100000000000D+00  0.0000000000000D+00  0.0000000000000D+00
343  3.4200000000000D+00  0.0000000000000D+00  0.0000000000000D+00
344  3.4300000000000D+00  0.0000000000000D+00  0.0000000000000D+00
345  3.4400000000000D+00  0.0000000000000D+00  0.0000000000000D+00
346  3.4500000000000D+00  0.0000000000000D+00  0.0000000000000D+00
347  3.4600000000000D+00  0.0000000000000D+00  0.0000000000000D+00
348  3.4700000000000D+00  0.0000000000000D+00  0.0000000000000D+00
349  3.4800000000000D+00  0.0000000000000D+00  0.0000000000000D+00
350  3.4900000000000D+00  0.0000000000000D+00  0.0000000000000D+00
351  3.5000000000000D+00  0.0000000000000D+00  0.0000000000000D+00
352  3.5100000000000D+00  0.0000000000000D+00  0.0000000000000D+00
353  3.5200000000000D+00  0.0000000000000D+00  0.0000000000000D+00
354  3.5300000000000D+00  0.0000000000000D+00  0.0000000000000D+00
355  3.5400000000000D+00  0.0000000000000D+00  0.0000000000000D+00
356  3.5500000000000D+00  0.0000000000000D+00  0.0000000000000D+00
357  3.5600000000000D+00  0.0000000000000D+00  0.0000000000000D+00
358  3.5700000000000D+00  0.0000000000000D+00  0.0000000000000D+00
359  3.5800000000000D+00  0.0000000000000D+00  0.0000000000000D+00
360  3.5900000000000D+00  0.0000000000000D+00  0.0000000000000D+00
361  3.6000000000000D+00  0.0000000000000D+00  0.0000000000000D+00
362  3.6100000000000D+00  0.0000000000000D+00  0.0000000000000D+00
363  3.6200000000000D+00  0.0000000000000D+00  0.0000000000000D+00
364  3.6300000000000D+00  0.0000000000000D+00  0.0000000000000D+00
365  3.6400000000000D+00  0.0000000000000D+00  0.0000000000000D+00
366  3.6500000000000D+00  0.0000000000000D+00  0.0000000000000D+00
367  3.6600000000000D+00  0.0000000000000D+00  0.0000000000000D+00
368  3.6700000000000D+00  0.0000000000000D+00  0.0000000000000D+00
369  3.6800000000000D+00  0.0000000000000D+00  0.0000000000000D+00
370  3.6900000000000D+00  0.0000000000000D+00  0.0000000000000D+00
371  3.7000000000000D+00  0.0000000000000D+00  0.0000000000000D+00
372  3.7100000000000D+00  0.0000000000000D+00  0.0000000000000D+00
373  3.7200000000000D+00  0.0000000000000D+00  0.0000000000000D+00
374  3.7300000000000D+00  0.0000000000000D+00  0.0000000000000D+00
375  3.7400000000000D+00  0.0000000000000D+00  0.0000000000000D+00
376  3.7500000000000D+00  0.0000000000000D+00  0.0000000000000D+00
377  3.7600000000000D+00  0.0000000000000D+00  0.0000000000000D+00
378  3.7700000000000D+00  0.0000000000000D+00  0.0000000000000D+00
379  3.7800000000000D+00  0.0000000000000D+00  0.0000000000000D+00
380  3.7900000000000D+00  0.0000000000000D+00  0.0000000000000D+00
381  3.8000000000000D+00  0.0000000000000D+00  0.0000000000000D+00
382  3.8100000000000D+00  0.0000000000000D+00  0.0000000000000D+00
383  3.8200000000000D+00  0.0000000000000D+00  0.0000000000000D+00
384  3.8300000000000D+00  0.0000000000000D+00  0.0000000000000D+00
385  3.8400000000000D+00  0.0000000000000D+00  0.0000000000000D+00
386  3.8500000000000D+00  0.0000000000000D+00  0.0000000000000D+00
387  3.8600000000000D+00  0.0000000000000D+00  0.0000000000000D+00
388  3.8700000000000D+00  0.0000000000000D+00  0.0000000000000D+00
389  3.8800000000000D+00  0.0000000000000D+00  0.0000000000000D+00
390  3.8900000000000D+00  0.0000000000000D+00  0.0000000000000D+00
391  3.9000000000000D+00  0.0000000000000D+00  0.0000000000000D+00
392  3.9100000000000D+00  0.0000000000000D+00  0.0000000000000D+00
393  3.9200000000000D+00  0.0000000000000D+00  0.0000000000000D+00
394  3.9300000000000D+00  0.0000000000000D+00  0.0000000000000D+00
395  3.9400000000000D+00  0.0000000000000D+00  0.0000000000000D+00
396  3.9500000000000D+00  0.0000000000000D+00  0.0000000000000D+00
397  3.9600000000000D+00  0.0000000000000D+00  0.0000000000000D+00
398  3.9700000000000D+00  0.0000000000000D+00  0.0000000000000D+00
399  3.9800000000000D+00  0.0000000000000D+00  0.0000000000000D+00
400  3.9900000000000D+00  0.0000000000000D+00  0.0000000000000D+00
401  4.0000000000000D+00  0.0000000000000D+00  0.0000000000000D+00
402  4.0100000000000D+00  0.0000000000000D+00  0.0000000000000D+00
403  4.0200000000000D+00  0.0000000000000D+00  0.0000000000000D+00
404  4.0300000000000D+00  0.0000000000000D+00  0.0000000000000D+00
405  4.0400000000000D+00  0.0000000000000D+00  0.0000000000000D+00
406  4.0500000000000D+00  0.0000000000000D+00  0.0000000000000D+00
407  4.0600000000000D+00  0.0000000000000D+00  0.0000000000000D+00
408  4.0700000000000D+00  0.0000000000000D+00  0.0000000000000D+00
409  4.0800000000000D+00  0.0000000000000D+00  0.0000000000000D+00
410  4.0900000000000D+00  0.0000000000000D+00  0.0000000000000D+00
411  4.1000000000000D+00  0.0000000000000D+00  0.0000000000000D+00
412  4.1100000000000D+00  0.0000000000000D+00  0.0000000000000D+00
413  4.1200000000000D+00  0.0000000000000D+00  0.0000000000000D+00
414  4.1300000000000D+00  0.0000000000000D+00  0.0000000000000D+00
415  4.1400000000000D+00  0.0000000000000D+00  0.0000000000000D+00
416  4.1500000000000D+00  0.0000000000000D+00  0.0000000000000D+00
417  4.1600000000000D+00  0.0000000000000D+00  0.0000000000000D+00
418  4.1700000000000D+00  0.0000000000000D+00  0.0000000000000D+00
419  4.1800000000000D+00  0.0000000000000D+00  0.0000000000000D+00
420  4.1900000000000D+00  0.0000000000000D+00  0.0000000000000D+00
421  4.2000000000000D+00  0.0000000000000D+00  0.0000000000000D+00
422  4.2100000000000D+00  0.0000000000000D+00  0.0000000000000D+00
423  4.2200000000000D+00  0.0000000000000D+00  0.0000000000000D+00
424  4.2300000000000D+00  0.0000000000000D+00  0.0000000000000D+00
425  4.2400000000000D+00  0.0000000000000D+00  0.0000000000000D+00
426  4.2500000000000D+00  0.0000000000000D+00  0.0000000000000D+00
427  4.2600000000000D+00  0.0000000000000D+00  0.0000000000000D+00
428  4.2700000000000D+00  0.0000000000000D+00  0.0000000000000D+00
429  4.2800000000000D+00  0.0000000000000D+00  0.0000000000000D+00
430  4.2900000000000D+00  0.0000000000000D+00  0.0000000000000D+00
431  4.3000000000000D+00  0.0000000000000D+00  0.0000000000000D+00
432  4.3100000000000D+00  0.0000000000000D+00  0.0000000000000D+00
433  4.3200000000000D+00  0.0000000000000D+00  0.0000000000000D+00
434  4.3300000000000D+00  0.0000000000000D+00  0.0000000000000D+00
435  4.3400000000000D+00  0.0000000000000D+00  0.0000000000000D+00
436  4.3500000000000D+00  0.0000000000000D+00  0.0000000000000D+00
437  4.3600000000000D+00  0.0000000000000D+00  0.0000000000000D+00
438  4.3700000000000D+00  0.0000000000000D+00  0.0000000000000D+00
439  4.3800000000000D+00  0.0000000000000D+00  0.0000000000000D+00
440  4.3900000000000D+00  0.0000000000000D+00  0.0000000000000D+00
441  4.4000000000000D+00  0.0000000000000D+00  0.0000000000000D+00
442  4.4100000000000D+00  0.0000000000000D+00  0.0000000000000D+00
443  4.4200000000000D+00  0.0000000000000D+00  0.0000000000000D+00