S     ONCVPSP  r_core=  1.45  1.45  1.62
16.0000      6.0000      151027    zatom,zion,pspd
8      11   2     4   600     0    pspcod,pspxc,lmax,lloc,mmax,r2well
5.99000000  6.00000000  0.00000000    rchrg fchrg qchrg
2     2     2     0     0    nproj
1                 extension_switch
0                         6.6874580224267D+00  5.7385558229883D-01
1  0.0000000000000D+00 -3.3002422461514D-09  1.2074170495022D-08
2  1.0000000000000D-02  3.9742615135671D-02 -3.7649733013737D-03
3  2.0000000000000D-02  7.9384168327067D-02 -7.2802525198573D-03
4  3.0000000000000D-02  1.1882540197159D-01 -1.0302583885016D-02
5  4.0000000000000D-02  1.5797062684349D-01 -1.2601447595296D-02
6  5.0000000000000D-02  1.9672940638598D-01 -1.3965061346686D-02
7  6.0000000000000D-02  2.3501812354609D-01 -1.4205956563395D-02
8  7.0000000000000D-02  2.7276139497532D-01 -1.3165999446044D-02
9  8.0000000000000D-02  3.0989330071983D-01 -1.0720741027066D-02
10  9.0000000000000D-02  3.4635840151693D-01 -6.7829950305031D-03
11  1.0000000000000D-01  3.8211252041765D-01 -1.3055591659629D-03
12  1.1000000000000D-01  4.1712327057016D-01  5.7169858123792D-03
13  1.2000000000000D-01  4.5137031651840D-01  1.4247444776674D-02
14  1.3000000000000D-01  4.8484536217909D-01  2.4206168902089D-02
15  1.4000000000000D-01  5.1755186463319D-01  3.5472210812153D-02
16  1.5000000000000D-01  5.4950447888149D-01  4.7885454712934D-02
17  1.6000000000000D-01  5.8072824463773D-01  6.1249680432225D-02
18  1.7000000000000D-01  6.1125753194263D-01  7.5336499478193D-02
19  1.8000000000000D-01  6.4113476775504D-01  8.9890081678626D-02
20  1.9000000000000D-01  6.7040897059716D-01  1.0463257308098D-01
21  2.0000000000000D-01  6.9913412469324D-01  1.1927008997248D-01
22  2.1000000000000D-01  7.2736742875026D-01  1.3349916046732D-01
23  2.2000000000000D-01  7.5516745750252D-01  1.4701347440050D-01
24  2.3000000000000D-01  7.8259227631430D-01  1.5951079450965D-01
25  2.4000000000000D-01  8.0969755045428D-01  1.7069987725576D-01
26  2.5000000000000D-01  8.3653469109073D-01  1.8030725025097D-01
27  2.6000000000000D-01  8.6314907959253D-01  1.8808369517143D-01
28  2.7000000000000D-01  8.8957841036292D-01  1.9381029021880D-01
29  2.8000000000000D-01  9.1585119020318D-01  1.9730387456330D-01
30  2.9000000000000D-01  9.4198542914445D-01  1.9842180859926D-01
31  3.0000000000000D-01  9.6798755385571D-01  1.9706591804864D-01
32  3.1000000000000D-01  9.9385157021147D-01  1.9318552667724D-01
33  3.2000000000000D-01  1.0195584964731D+00  1.8677950130626D-01
34  3.3000000000000D-01  1.0450760829078D+00  1.7789725352234D-01
35  3.4000000000000D-01  1.0703588276542D+00  1.6663866458822D-01
36  3.5000000000000D-01  1.0953482923644D+00  1.5315292307441D-01
37  3.6000000000000D-01  1.1199737147450D+00  1.3763628819099D-01
38  3.7000000000000D-01  1.1441529087099D+00  1.2032881520288D-01
39  3.8000000000000D-01  1.1677934365880D+00  1.0151010216764D-01
40  3.9000000000000D-01  1.1907940318293D+00  8.1494139049276D-02
41  4.0000000000000D-01  1.2130462450462D+00  6.0623360569099D-02
42  4.1000000000000D-01  1.2344362811494D+00  3.9262022505204D-02
43  4.2000000000000D-01  1.2548469908791D+00  1.7789037143121D-02
44  4.3000000000000D-01  1.2741599763166D+00 -3.4095831516888D-03
45  4.4000000000000D-01  1.2922577670491D+00 -2.3948515032579D-02
46  4.5000000000000D-01  1.3090260216420D+00 -4.3450979775895D-02
47  4.6000000000000D-01  1.3243557079850D+00 -6.1556495728999D-02
48  4.7000000000000D-01  1.3381452159576D+00 -7.7928358015629D-02
49  4.8000000000000D-01  1.3503023567244D+00 -9.2260679600890D-02
50  4.9000000000000D-01  1.3607462048013D+00 -1.0428483508154D-01
51  5.0000000000000D-01  1.3694087418155D+00 -1.1377515929880D-01
52  5.1000000000000D-01  1.3762362645599D+00 -1.2055376688025D-01
53  5.2000000000000D-01  1.3811905244487D+00 -1.2449437585749D-01
54  5.3000000000000D-01  1.3842495707402D+00 -1.2552503826271D-01
55  5.4000000000000D-01  1.3854082757928D+00 -1.2362970268021D-01
56  5.5000000000000D-01  1.3846785270529D+00 -1.1884855770621D-01
57  5.6000000000000D-01  1.3820890773186D+00 -1.1127713070290D-01
58  5.7000000000000D-01  1.3776850519142D+00 -1.0106414249040D-01
59  5.8000000000000D-01  1.3715271186644D+00 -8.8408145405365D-02
60  5.9000000000000D-01  1.3636903337306D+00 -7.3552998567706D-02
61  6.0000000000000D-01  1.3542626834407D+00 -5.6782260119596D-02
62  6.1000000000000D-01  1.3433433489188D+00 -3.8412600600203D-02
63  6.2000000000000D-01  1.3310407266015D+00 -1.8786364466964D-02
64  6.3000000000000D-01  1.3174702433555D+00  1.7365728706265D-03
65  6.4000000000000D-01  1.3027520098485D+00  2.2787487414798D-02
66  6.5000000000000D-01  1.2870083599233D+00  4.3997848704616D-02
67  6.6000000000000D-01  1.2703613268816D+00  6.5008531068044D-02
68  6.7000000000000D-01  1.2529301097528D+00  8.5478996077122D-02
69  6.8000000000000D-01  1.2348285837140D+00  1.0509624503589D-01
70  6.9000000000000D-01  1.2161629088175D+00  1.2358334118845D-01
71  7.0000000000000D-01  1.1970292900675D+00  1.4070730631600D-01
72  7.1000000000000D-01  1.1775119396396D+00  1.5628620557477D-01
73  7.2000000000000D-01  1.1576812887287D+00  1.7019524754287D-01
74  7.3000000000000D-01  1.1375924921553D+00  1.8237174342992D-01
75  7.4000000000000D-01  1.1172842635669D+00  1.9281878982544D-01
76  7.5000000000000D-01  1.0967780728970D+00  2.0160756302560D-01
77  7.6000000000000D-01  1.0760777308188D+00  2.0887813936893D-01
78  7.7000000000000D-01  1.0551693773926D+00  2.1483878459583D-01
79  7.8000000000000D-01  1.0340218840807D+00  2.1976368559763D-01
80  7.9000000000000D-01  1.0125876699444D+00  2.2398912937867D-01
81  8.0000000000000D-01  9.9080392432386D-01  2.2790816603367D-01
82  8.1000000000000D-01  9.6859421978511D-01  2.3196382440668D-01
83  8.2000000000000D-01  9.4587049077538D-01  2.3664098021147D-01
84  8.3000000000000D-01  9.2253534543149D-01  2.4245700611873D-01
85  8.4000000000000D-01  8.9848467048959D-01  2.4995136105699D-01
86  8.5000000000000D-01  8.7361048242631D-01  2.5967430108864D-01
87  8.6000000000000D-01  8.4780397193084D-01  2.7217491629368D-01
88  8.7000000000000D-01  8.2095868374085D-01  2.8798871647215D-01
89  8.8000000000000D-01  7.9297376985373D-01  3.0762500286299D-01
90  8.9000000000000D-01  7.6375725125802D-01  3.3155427307341D-01
91  9.0000000000000D-01  7.3322922168856D-01  3.6019591175916D-01
92  9.1000000000000D-01  7.0132492655018D-01  3.9390642009149D-01
93  9.2000000000000D-01  6.6799765109860D-01  4.3296843262898D-01
94  9.3000000000000D-01  6.3322135421870D-01  4.7758076086677D-01
95  9.4000000000000D-01  5.9699298767702D-01  5.2784968856852D-01
96  9.5000000000000D-01  5.5933444549586D-01  5.8378172519153D-01
97  9.6000000000000D-01  5.2029409402975D-01  6.4527800057962D-01
98  9.7000000000000D-01  4.7994784032219D-01  7.1213045699764D-01
99  9.8000000000000D-01  4.3839970424949D-01  7.8401996402936D-01
100  9.9000000000000D-01  3.9578186877517D-01  8.6051644802078D-01
101  1.0000000000000D+00  3.5225419196750D-01  9.4108109206123D-01
102  1.0100000000000D+00  3.0800317423879D-01  1.0250706250791D+00
103  1.0200000000000D+00  2.6324038469915D-01  1.1117436789215D+00
104  1.0300000000000D+00  2.1820036056870D-01  1.2002691541265D+00
105  1.0400000000000D+00  1.7313800387927D-01  1.2897364961221D+00
106  1.0500000000000D+00  1.2832550972881D-01  1.3791677456679D+00
107  1.0600000000000D+00  8.4048869609973D-02  1.4675311924466D+00
108  1.0700000000000D+00  4.0604002102671D-02  1.5537564277251D+00
109  1.0800000000000D+00 -1.7074284221241D-03  1.6367505606793D+00
110  1.0900000000000D+00 -4.2582437914738D-02  1.7154153386096D+00
111  1.1000000000000D+00 -8.1721320267372D-02  1.7886648885039D+00
112  1.1100000000000D+00 -1.1883233895270D-01  1.8554437819892D+00
113  1.1200000000000D+00 -1.5363643146357D-01  1.9147451121630D+00
114  1.1300000000000D+00 -1.8587184382313D-01  1.9656282656184D+00
115  1.1400000000000D+00 -2.1529861232513D-01  2.0072360731565D+00
116  1.1500000000000D+00 -2.4170281079997D-01  2.0388110275486D+00
117  1.1600000000000D+00 -2.6490048392507D-01  2.0597102657446D+00
118  1.1700000000000D+00 -2.8474119198577D-01  2.0694190321128D+00
119  1.1800000000000D+00 -3.0111109871218D-01  2.0675623634481D+00
120  1.1900000000000D+00 -3.1393553858702D-01  2.0539147550191D+00
121  1.2000000000000D+00 -3.2318101007443D-01  2.0284076057529D+00
122  1.2100000000000D+00 -3.2885655053764D-01  1.9911342764405D+00
123  1.2200000000000D+00 -3.3101445859130D-01  1.9423526331299D+00
124  1.2300000000000D+00 -3.2975033740008D-01  1.8824849776996D+00
125  1.2400000000000D+00 -3.2520244938038D-01  1.8121153324150D+00
126  1.2500000000000D+00 -3.1755038317355D-01  1.7319840849754D+00
127  1.2600000000000D+00 -3.0701303819875D-01  1.6429800175965D+00
128  1.2700000000000D+00 -2.9384595572865D-01  1.5461298337816D+00
129  1.2800000000000D+00 -2.7833803174182D-01  1.4425853203665D+00
130  1.2900000000000D+00 -2.6080765051399D-01  1.3336082966365D+00
131  1.3000000000000D+00 -2.4159830214246D-01  1.2205535944353D+00
132  1.3100000000000D+00 -2.2107374821426D-01  1.1048503169002D+00
133  1.3200000000000D+00 -1.9961280426575D-01  9.8798164044566D-01
134  1.3300000000000D+00 -1.7760382699076D-01  8.7146349769713D-01
135  1.3400000000000D+00 -1.5543898830965D-01  7.5682245679019D-01
136  1.3500000000000D+00 -1.3350842779978D-01  6.4557314815476D-01
137  1.3600000000000D+00 -1.1219437818557D-01  5.3919559879023D-01
138  1.3700000000000D+00 -9.1865358001383D-02  4.3911285215114D-01
139  1.3800000000000D+00 -7.2870520507858D-02  3.4666915126236D-01
140  1.3900000000000D+00 -5.5534279416945D-02  2.6310938167789D-01
141  1.4000000000000D+00 -4.0151195500391D-02  1.8955898548286D-01
142  1.4100000000000D+00 -2.6990329704317D-02  1.2704854561089D-01
143  1.4200000000000D+00 -1.6242066837308D-02  7.6269791704411D-02
144  1.4300000000000D+00 -8.0698025062042D-03  3.7821610306969D-02
145  1.4400000000000D+00 -2.8498069894553D-03  1.3334515601944D-02
146  1.4500000000000D+00 -4.0900926888872D-04  1.9096404436140D-03
147  1.4600000000000D+00  1.9840999113187D-04 -9.2750402100751D-04
148  1.4700000000000D+00  2.9672239706960D-05 -1.3853201206463D-04
149  1.4800000000000D+00 -6.3829615320791D-05  2.9837300963230D-04
150  1.4900000000000D+00  2.7004029871133D-06 -1.2654464606177D-05
151  1.5000000000000D+00  1.0336826401943D-05 -4.8436473438786D-05
152  1.5100000000000D+00  4.4370846851154D-08 -2.0471363017306D-07
153  1.5200000000000D+00  5.2161123740917D-08 -2.4065560503566D-07
154  1.5300000000000D+00  0.0000000000000D+00  0.0000000000000D+00
155  1.5400000000000D+00  0.0000000000000D+00  0.0000000000000D+00
156  1.5500000000000D+00  0.0000000000000D+00  0.0000000000000D+00
157  1.5600000000000D+00  0.0000000000000D+00  0.0000000000000D+00
158  1.5700000000000D+00  0.0000000000000D+00  0.0000000000000D+00
159  1.5800000000000D+00  0.0000000000000D+00  0.0000000000000D+00
160  1.5900000000000D+00  0.0000000000000D+00  0.0000000000000D+00
161  1.6000000000000D+00  0.0000000000000D+00  0.0000000000000D+00
162  1.6100000000000D+00  0.0000000000000D+00  0.0000000000000D+00
163  1.6200000000000D+00  0.0000000000000D+00  0.0000000000000D+00
164  1.6300000000000D+00  0.0000000000000D+00  0.0000000000000D+00
165  1.6400000000000D+00  0.0000000000000D+00  0.0000000000000D+00
166  1.6500000000000D+00  0.0000000000000D+00  0.0000000000000D+00
167  1.6600000000000D+00  0.0000000000000D+00  0.0000000000000D+00
168  1.6700000000000D+00  0.0000000000000D+00  0.0000000000000D+00
169  1.6800000000000D+00  0.0000000000000D+00  0.0000000000000D+00
170  1.6900000000000D+00  0.0000000000000D+00  0.0000000000000D+00
171  1.7000000000000D+00  0.0000000000000D+00  0.0000000000000D+00
172  1.7100000000000D+00  0.0000000000000D+00  0.0000000000000D+00
173  1.7200000000000D+00  0.0000000000000D+00  0.0000000000000D+00
174  1.7300000000000D+00  0.0000000000000D+00  0.0000000000000D+00
175  1.7400000000000D+00  0.0000000000000D+00  0.0000000000000D+00
176  1.7500000000000D+00  0.0000000000000D+00  0.0000000000000D+00
177  1.7600000000000D+00  0.0000000000000D+00  0.0000000000000D+00
178  1.7700000000000D+00  0.0000000000000D+00  0.0000000000000D+00
179  1.7800000000000D+00  0.0000000000000D+00  0.0000000000000D+00
180  1.7900000000000D+00  0.0000000000000D+00  0.0000000000000D+00
181  1.8000000000000D+00  0.0000000000000D+00  0.0000000000000D+00
182  1.8100000000000D+00  0.0000000000000D+00  0.0000000000000D+00
183  1.8200000000000D+00  0.0000000000000D+00  0.0000000000000D+00
184  1.8300000000000D+00  0.0000000000000D+00  0.0000000000000D+00
185  1.8400000000000D+00  0.0000000000000D+00  0.0000000000000D+00
186  1.8500000000000D+00  0.0000000000000D+00  0.0000000000000D+00
187  1.8600000000000D+00  0.0000000000000D+00  0.0000000000000D+00
188  1.8700000000000D+00  0.0000000000000D+00  0.0000000000000D+00
189  1.8800000000000D+00  0.0000000000000D+00  0.0000000000000D+00
190  1.8900000000000D+00  0.0000000000000D+00  0.0000000000000D+00
191  1.9000000000000D+00  0.0000000000000D+00  0.0000000000000D+00
192  1.9100000000000D+00  0.0000000000000D+00  0.0000000000000D+00
193  1.9200000000000D+00  0.0000000000000D+00  0.0000000000000D+00
194  1.9300000000000D+00  0.0000000000000D+00  0.0000000000000D+00
195  1.9400000000000D+00  0.0000000000000D+00  0.0000000000000D+00
196  1.9500000000000D+00  0.0000000000000D+00  0.0000000000000D+00
197  1.9600000000000D+00  0.0000000000000D+00  0.0000000000000D+00
198  1.9700000000000D+00  0.0000000000000D+00  0.0000000000000D+00
199  1.9800000000000D+00  0.0000000000000D+00  0.0000000000000D+00
200  1.9900000000000D+00  0.0000000000000D+00  0.0000000000000D+00
201  2.0000000000000D+00  0.0000000000000D+00  0.0000000000000D+00
202  2.0100000000000D+00  0.0000000000000D+00  0.0000000000000D+00
203  2.0200000000000D+00  0.0000000000000D+00  0.0000000000000D+00
204  2.0300000000000D+00  0.0000000000000D+00  0.0000000000000D+00
205  2.0400000000000D+00  0.0000000000000D+00  0.0000000000000D+00
206  2.0500000000000D+00  0.0000000000000D+00  0.0000000000000D+00
207  2.0600000000000D+00  0.0000000000000D+00  0.0000000000000D+00
208  2.0700000000000D+00  0.0000000000000D+00  0.0000000000000D+00
209  2.0800000000000D+00  0.0000000000000D+00  0.0000000000000D+00
210  2.0900000000000D+00  0.0000000000000D+00  0.0000000000000D+00
211  2.1000000000000D+00  0.0000000000000D+00  0.0000000000000D+00
212  2.1100000000000D+00  0.0000000000000D+00  0.0000000000000D+00
213  2.1200000000000D+00  0.0000000000000D+00  0.0000000000000D+00
214  2.1300000000000D+00  0.0000000000000D+00  0.0000000000000D+00
215  2.1400000000000D+00  0.0000000000000D+00  0.0000000000000D+00
216  2.1500000000000D+00  0.0000000000000D+00  0.0000000000000D+00
217  2.1600000000000D+00  0.0000000000000D+00  0.0000000000000D+00
218  2.1700000000000D+00  0.0000000000000D+00  0.0000000000000D+00
219  2.1800000000000D+00  0.0000000000000D+00  0.0000000000000D+00
220  2.1900000000000D+00  0.0000000000000D+00  0.0000000000000D+00
221  2.2000000000000D+00  0.0000000000000D+00  0.0000000000000D+00
222  2.2100000000000D+00  0.0000000000000D+00  0.0000000000000D+00
223  2.2200000000000D+00  0.0000000000000D+00  0.0000000000000D+00
224  2.2300000000000D+00  0.0000000000000D+00  0.0000000000000D+00
225  2.2400000000000D+00  0.0000000000000D+00  0.0000000000000D+00
226  2.2500000000000D+00  0.0000000000000D+00  0.0000000000000D+00
227  2.2600000000000D+00  0.0000000000000D+00  0.0000000000000D+00
228  2.2700000000000D+00  0.0000000000000D+00  0.0000000000000D+00
229  2.2800000000000D+00  0.0000000000000D+00  0.0000000000000D+00
230  2.2900000000000D+00  0.0000000000000D+00  0.0000000000000D+00
231  2.3000000000000D+00  0.0000000000000D+00  0.0000000000000D+00
232  2.3100000000000D+00  0.0000000000000D+00  0.0000000000000D+00
233  2.3200000000000D+00  0.0000000000000D+00  0.0000000000000D+00
234  2.3300000000000D+00  0.0000000000000D+00  0.0000000000000D+00
235  2.3400000000000D+00  0.0000000000000D+00  0.0000000000000D+00
236  2.3500000000000D+00  0.0000000000000D+00  0.0000000000000D+00
237  2.3600000000000D+00  0.0000000000000D+00  0.0000000000000D+00
238  2.3700000000000D+00  0.0000000000000D+00  0.0000000000000D+00
239  2.3800000000000D+00  0.0000000000000D+00  0.0000000000000D+00
240  2.3900000000000D+00  0.0000000000000D+00  0.0000000000000D+00
241  2.4000000000000D+00  0.0000000000000D+00  0.0000000000000D+00
242  2.4100000000000D+00  0.0000000000000D+00  0.0000000000000D+00
243  2.4200000000000D+00  0.0000000000000D+00  0.0000000000000D+00
244  2.4300000000000D+00  0.0000000000000D+00  0.0000000000000D+00
245  2.4400000000000D+00  0.0000000000000D+00  0.0000000000000D+00
246  2.4500000000000D+00  0.0000000000000D+00  0.0000000000000D+00
247  2.4600000000000D+00  0.0000000000000D+00  0.0000000000000D+00
248  2.4700000000000D+00  0.0000000000000D+00  0.0000000000000D+00
249  2.4800000000000D+00  0.0000000000000D+00  0.0000000000000D+00
250  2.4900000000000D+00  0.0000000000000D+00  0.0000000000000D+00
251  2.5000000000000D+00  0.0000000000000D+00  0.0000000000000D+00
252  2.5100000000000D+00  0.0000000000000D+00  0.0000000000000D+00
253  2.5200000000000D+00  0.0000000000000D+00  0.0000000000000D+00
254  2.5300000000000D+00  0.0000000000000D+00  0.0000000000000D+00
255  2.5400000000000D+00  0.0000000000000D+00  0.0000000000000D+00
256  2.5500000000000D+00  0.0000000000000D+00  0.0000000000000D+00
257  2.5600000000000D+00  0.0000000000000D+00  0.0000000000000D+00
258  2.5700000000000D+00  0.0000000000000D+00  0.0000000000000D+00
259  2.5800000000000D+00  0.0000000000000D+00  0.0000000000000D+00
260  2.5900000000000D+00  0.0000000000000D+00  0.0000000000000D+00
261  2.6000000000000D+00  0.0000000000000D+00  0.0000000000000D+00
262  2.6100000000000D+00  0.0000000000000D+00  0.0000000000000D+00
263  2.6200000000000D+00  0.0000000000000D+00  0.0000000000000D+00
264  2.6300000000000D+00  0.0000000000000D+00  0.0000000000000D+00
265  2.6400000000000D+00  0.0000000000000D+00  0.0000000000000D+00
266  2.6500000000000D+00  0.0000000000000D+00  0.0000000000000D+00
267  2.6600000000000D+00  0.0000000000000D+00  0.0000000000000D+00
268  2.6700000000000D+00  0.0000000000000D+00  0.0000000000000D+00
269  2.6800000000000D+00  0.0000000000000D+00  0.0000000000000D+00
270  2.6900000000000D+00  0.0000000000000D+00  0.0000000000000D+00
271  2.7000000000000D+00  0.0000000000000D+00  0.0000000000000D+00
272  2.7100000000000D+00  0.0000000000000D+00  0.0000000000000D+00
273  2.7200000000000D+00  0.0000000000000D+00  0.0000000000000D+00
274  2.7300000000000D+00  0.0000000000000D+00  0.0000000000000D+00
275  2.7400000000000D+00  0.0000000000000D+00  0.0000000000000D+00
276  2.7500000000000D+00  0.0000000000000D+00  0.0000000000000D+00
277  2.7600000000000D+00  0.0000000000000D+00  0.0000000000000D+00
278  2.7700000000000D+00  0.0000000000000D+00  0.0000000000000D+00
279  2.7800000000000D+00  0.0000000000000D+00  0.0000000000000D+00
280  2.7900000000000D+00  0.0000000000000D+00  0.0000000000000D+00
281  2.8000000000000D+00  0.0000000000000D+00  0.0000000000000D+00
282  2.8100000000000D+00  0.0000000000000D+00  0.0000000000000D+00
283  2.8200000000000D+00  0.0000000000000D+00  0.0000000000000D+00
284  2.8300000000000D+00  0.0000000000000D+00  0.0000000000000D+00
285  2.8400000000000D+00  0.0000000000000D+00  0.0000000000000D+00
286  2.8500000000000D+00  0.0000000000000D+00  0.0000000000000D+00
287  2.8600000000000D+00  0.0000000000000D+00  0.0000000000000D+00
288  2.8700000000000D+00  0.0000000000000D+00  0.0000000000000D+00
289  2.8800000000000D+00  0.0000000000000D+00  0.0000000000000D+00
290  2.8900000000000D+00  0.0000000000000D+00  0.0000000000000D+00
291  2.9000000000000D+00  0.0000000000000D+00  0.0000000000000D+00
292  2.9100000000000D+00  0.0000000000000D+00  0.0000000000000D+00
293  2.9200000000000D+00  0.0000000000000D+00  0.0000000000000D+00
294  2.9300000000000D+00  0.0000000000000D+00  0.0000000000000D+00
295  2.9400000000000D+00  0.0000000000000D+00  0.0000000000000D+00
296  2.9500000000000D+00  0.0000000000000D+00  0.0000000000000D+00
297  2.9600000000000D+00  0.0000000000000D+00  0.0000000000000D+00
298  2.9700000000000D+00  0.0000000000000D+00  0.0000000000000D+00
299  2.9800000000000D+00  0.0000000000000D+00  0.0000000000000D+00
300  2.9900000000000D+00  0.0000000000000D+00  0.0000000000000D+00
301  3.0000000000000D+00  0.0000000000000D+00  0.0000000000000D+00
302  3.0100000000000D+00  0.0000000000000D+00  0.0000000000000D+00
303  3.0200000000000D+00  0.0000000000000D+00  0.0000000000000D+00
304  3.0300000000000D+00  0.0000000000000D+00  0.0000000000000D+00
305  3.0400000000000D+00  0.0000000000000D+00  0.0000000000000D+00
306  3.0500000000000D+00  0.0000000000000D+00  0.0000000000000D+00
307  3.0600000000000D+00  0.0000000000000D+00  0.0000000000000D+00
308  3.0700000000000D+00  0.0000000000000D+00  0.0000000000000D+00
309  3.0800000000000D+00  0.0000000000000D+00  0.0000000000000D+00
310  3.0900000000000D+00  0.0000000000000D+00  0.0000000000000D+00
311  3.1000000000000D+00  0.0000000000000D+00  0.0000000000000D+00
312  3.1100000000000D+00  0.0000000000000D+00  0.0000000000000D+00
313  3.1200000000000D+00  0.0000000000000D+00  0.0000000000000D+00
314  3.1300000000000D+00  0.0000000000000D+00  0.0000000000000D+00
315  3.1400000000000D+00  0.0000000000000D+00  0.0000000000000D+00
316  3.1500000000000D+00  0.0000000000000D+00  0.0000000000000D+00
317  3.1600000000000D+00  0.0000000000000D+00  0.0000000000000D+00
318  3.1700000000000D+00  0.0000000000000D+00  0.0000000000000D+00
319  3.1800000000000D+00  0.0000000000000D+00  0.0000000000000D+00
320  3.1900000000000D+00  0.0000000000000D+00  0.0000000000000D+00
321  3.2000000000000D+00  0.0000000000000D+00  0.0000000000000D+00
322  3.2100000000000D+00  0.0000000000000D+00  0.0000000000000D+00
323  3.2200000000000D+00  0.0000000000000D+00  0.0000000000000D+00
324  3.2300000000000D+00  0.0000000000000D+00  0.0000000000000D+00
325  3.2400000000000D+00  0.0000000000000D+00  0.0000000000000D+00
326  3.2500000000000D+00  0.0000000000000D+00  0.0000000000000D+00
327  3.2600000000000D+00  0.0000000000000D+00  0.0000000000000D+00
328  3.2700000000000D+00  0.0000000000000D+00  0.0000000000000D+00
329  3.2800000000000D+00  0.0000000000000D+00  0.0000000000000D+00
330  3.2900000000000D+00  0.0000000000000D+00  0.0000000000000D+00
331  3.3000000000000D+00  0.0000000000000D+00  0.0000000000000D+00
332  3.3100000000000D+00  0.0000000000000D+00  0.0000000000000D+00
333  3.3200000000000D+00  0.0000000000000D+00  0.0000000000000D+00
334  3.3300000000000D+00  0.0000000000000D+00  0.0000000000000D+00
335  3.3400000000000D+00  0.0000000000000D+00  0.0000000000000D+00
336  3.3500000000000D+00  0.0000000000000D+00  0.0000000000000D+00
337  3.3600000000000D+00  0.0000000000000D+00  0.0000000000000D+00
338  3.3700000000000D+00  0.0000000000000D+00  0.0000000000000D+00
339  3.3800000000000D+00  0.0000000000000D+00  0.0000000000000D+00
340  3.3900000000000D+00  0.0000000000000D+00  0.0000000000000D+00
341  3.4000000000000D+00  0.0000000000000D+00  0.0000000000000D+00
342  3.4100000000000D+00  0.0000000000000D+00  0.0000000000000D+00
343  3.4200000000000D+00  0.0000000000000D+00  0.0000000000000D+00
344  3.4300000000000D+00  0.0000000000000D+00  0.0000000000000D+00
345  3.4400000000000D+00  0.0000000000000D+00  0.0000000000000D+00
346  3.4500000000000D+00  0.0000000000000D+00  0.0000000000000D+00
347  3.4600000000000D+00  0.0000000000000D+00  0.0000000000000D+00
348  3.4700000000000D+00  0.0000000000000D+00  0.0000000000000D+00
349  3.4800000000000D+00  0.0000000000000D+00  0.0000000000000D+00
350  3.4900000000000D+00  0.0000000000000D+00  0.0000000000000D+00
351  3.5000000000000D+00  0.0000000000000D+00  0.0000000000000D+00
352  3.5100000000000D+00  0.0000000000000D+00  0.0000000000000D+00
353  3.5200000000000D+00  0.0000000000000D+00  0.0000000000000D+00
354  3.5300000000000D+00  0.0000000000000D+00  0.0000000000000D+00
355  3.5400000000000D+00  0.0000000000000D+00  0.0000000000000D+00
356  3.5500000000000D+00  0.0000000000000D+00  0.0000000000000D+00
357  3.5600000000000D+00  0.0000000000000D+00  0.0000000000000D+00
358  3.5700000000000D+00  0.0000000000000D+00  0.0000000000000D+00
359  3.5800000000000D+00  0.0000000000000D+00  0.0000000000000D+00
360  3.5900000000000D+00  0.0000000000000D+00  0.0000000000000D+00
361  3.6000000000000D+00  0.0000000000000D+00  0.0000000000000D+00
362  3.6100000000000D+00  0.0000000000000D+00  0.0000000000000D+00
363  3.6200000000000D+00  0.0000000000000D+00  0.0000000000000D+00
364  3.6300000000000D+00  0.0000000000000D+00  0.0000000000000D+00
365  3.6400000000000D+00  0.0000000000000D+00  0.0000000000000D+00
366  3.6500000000000D+00  0.0000000000000D+00  0.0000000000000D+00
367  3.6600000000000D+00  0.0000000000000D+00  0.0000000000000D+00
368  3.6700000000000D+00  0.0000000000000D+00  0.0000000000000D+00
369  3.6800000000000D+00  0.0000000000000D+00  0.0000000000000D+00
370  3.6900000000000D+00  0.0000000000000D+00  0.0000000000000D+00
371  3.7000000000000D+00  0.0000000000000D+00  0.0000000000000D+00
372  3.7100000000000D+00  0.0000000000000D+00  0.0000000000000D+00
373  3.7200000000000D+00  0.0000000000000D+00  0.0000000000000D+00
374  3.7300000000000D+00  0.0000000000000D+00  0.0000000000000D+00
375  3.7400000000000D+00  0.0000000000000D+00  0.0000000000000D+00
376  3.7500000000000D+00  0.0000000000000D+00  0.0000000000000D+00
377  3.7600000000000D+00  0.0000000000000D+00  0.0000000000000D+00
378  3.7700000000000D+00  0.0000000000000D+00  0.0000000000000D+00
379  3.7800000000000D+00  0.0000000000000D+00  0.0000000000000D+00
380  3.7900000000000D+00  0.0000000000000D+00  0.0000000000000D+00
381  3.8000000000000D+00  0.0000000000000D+00  0.0000000000000D+00
382  3.8100000000000D+00  0.0000000000000D+00  0.0000000000000D+00
383  3.8200000000000D+00  0.0000000000000D+00  0.0000000000000D+00
384  3.8300000000000D+00  0.0000000000000D+00  0.0000000000000D+00
385  3.8400000000000D+00  0.0000000000000D+00  0.0000000000000D+00
386  3.8500000000000D+00  0.0000000000000D+00  0.0000000000000D+00
387  3.8600000000000D+00  0.0000000000000D+00  0.0000000000000D+00
388  3.8700000000000D+00  0.0000000000000D+00  0.0000000000000D+00
389  3.8800000000000D+00  0.0000000000000D+00  0.0000000000000D+00
390  3.8900000000000D+00  0.0000000000000D+00  0.0000000000000D+00
391  3.9000000000000D+00  0.0000000000000D+00  0.0000000000000D+00
392  3.9100000000000D+00  0.0000000000000D+00  0.0000000000000D+00
393  3.9200000000000D+00  0.0000000000000D+00  0.0000000000000D+00
394  3.9300000000000D+00  0.0000000000000D+00  0.0000000000000D+00
395  3.9400000000000D+00  0.0000000000000D+00  0.0000000000000D+00
396  3.9500000000000D+00  0.0000000000000D+00  0.0000000000000D+00
397  3.9600000000000D+00  0.0000000000000D+00  0.0000000000000D+00
398  3.9700000000000D+00  0.0000000000000D+00  0.0000000000000D+00
399  3.9800000000000D+00  0.0000000000000D+00  0.0000000000000D+00
400  3.9900000000000D+00  0.0000000000000D+00  0.0000000000000D+00
401  4.0000000000000D+00  0.0000000000000D+00  0.0000000000000D+00
402  4.0100000000000D+00  0.0000000000000D+00  0.0000000000000D+00
403  4.0200000000000D+00  0.0000000000000D+00  0.0000000000000D+00
404  4.0300000000000D+00  0.0000000000000D+00  0.0000000000000D+00
405  4.0400000000000D+00  0.0000000000000D+00  0.0000000000000D+00
406  4.0500000000000D+00  0.0000000000000D+00  0.0000000000000D+00
407  4.0600000000000D+00  0.0000000000000D+00  0.0000000000000D+00
408  4.0700000000000D+00  0.0000000000000D+00  0.0000000000000D+00
409  4.0800000000000D+00  0.0000000000000D+00  0.0000000000000D+00
410  4.0900000000000D+00  0.0000000000000D+00  0.0000000000000D+00
411  4.1000000000000D+00  0.0000000000000D+00  0.0000000000000D+00
412  4.1100000000000D+00  0.0000000000000D+00  0.0000000000000D+00
413  4.1200000000000D+00  0.0000000000000D+00  0.0000000000000D+00
414  4.1300000000000D+00  0.0000000000000D+00  0.0000000000000D+00
415  4.1400000000000D+00  0.0000000000000D+00  0.0000000000000D+00
416  4.1500000000000D+00  0.0000000000000D+00  0.0000000000000D+00
417  4.1600000000000D+00  0.0000000000000D+00  0.0000000000000D+00
418  4.1700000000000D+00  0.0000000000000D+00  0.0000000000000D+00
419  4.1800000000000D+00  0.0000000000000D+00  0.0000000000000D+00
420  4.1900000000000D+00  0.0000000000000D+00  0.0000000000000D+00
421  4.2000000000000D+00  0.0000000000000D+00  0.0000000000000D+00
422  4.2100000000000D+00  0.0000000000000D+00  0.0000000000000D+00
423  4.2200000000000D+00  0.0000000000000D+00  0.0000000000000D+00
424  4.2300000000000D+00  0.0000000000000D+00  0.0000000000000D+00
425  4.2400000000000D+00  0.0000000000000D+00  0.0000000000000D+00
426  4.2500000000000D+00  0.0000000000000D+00  0.0000000000000D+00
427  4.2600000000000D+00  0.0000000000000D+00  0.0000000000000D+00
428  4.2700000000000D+00  0.0000000000000D+00  0.0000000000000D+00
429  4.2800000000000D+00  0.0000000000000D+00  0.0000000000000D+00
430  4.2900000000000D+00  0.0000000000000D+00  0.0000000000000D+00
431  4.3000000000000D+00  0.0000000000000D+00  0.0000000000000D+00
432  4.3100000000000D+00  0.0000000000000D+00  0.0000000000000D+00
433  4.3200000000000D+00  0.0000000000000D+00  0.0000000000000D+00
434  4.3300000000000D+00  0.0000000000000D+00  0.0000000000000D+00
435  4.3400000000000D+00  0.0000000000000D+00  0.0000000000000D+00
436  4.3500000000000D+00  0.0000000000000D+00  0.0000000000000D+00
437  4.3600000000000D+00  0.0000000000000D+00  0.0000000000000D+00
438  4.3700000000000D+00  0.0000000000000D+00  0.0000000000000D+00
439  4.3800000000000D+00  0.0000000000000D+00  0.0000000000000D+00
440  4.3900000000000D+00  0.0000000000000D+00  0.0000000000000D+00
441  4.4000000000000D+00  0.0000000000000D+00  0.0000000000000D+00
442  4.4100000000000D+00  0.0000000000000D+00  0.0000000000000D+00
443  4.4200000000000D+00  0.0000000000000D+00  0.0000000000000D+00
444  4.4300000000000D+00  0.0000000000000D+00  0.0000000000000D+00