S     ONCVPSP  r_core=  1.45  1.45  1.62
16.0000      6.0000      160518    zatom,zion,pspd
8      11   2     4   600     0    pspcod,pspxc,lmax,lloc,mmax,r2well
5.99000000  6.00000000  0.00000000    rchrg fchrg qchrg
2     3     2     0    nproj
2                 extension_switch
4     3     0    nprojso
0                         5.7399873771017D-01  6.6871451909765D+00
1  0.0000000000000D+00  1.2104737313196D-08 -3.3069711968814D-09
2  1.0000000000000D-02 -3.7993101712771D-03  3.9746203454937D-02
3  2.0000000000000D-02 -7.3480253514344D-03  7.9391157618771D-02
4  3.0000000000000D-02 -1.0402010080792D-02  1.1883542173824D-01
5  4.0000000000000D-02 -1.2729900909864D-02  1.5798313174203D-01
6  5.0000000000000D-02 -1.4119127965103D-02  1.9674368846922D-01
7  6.0000000000000D-02 -1.4381508058737D-02  2.3503332818579D-01
8  7.0000000000000D-02 -1.3358281109016D-02  2.7277654013568D-01
9  8.0000000000000D-02 -1.0924473741984D-02  3.0990729917997D-01
10  9.0000000000000D-02 -6.9924885904979D-03  3.4637008557927D-01
11  1.0000000000000D-01 -1.5148346815562D-03  3.8212066858651D-01
12  1.1000000000000D-01  5.5140669482034D-03  4.1712663564306D-01
13  1.2000000000000D-01  1.4057048042960D-02  4.5136765450228D-01
14  1.3000000000000D-01  2.4034352685030D-02  4.8483546142467D-01
15  1.4000000000000D-01  3.5324794110287D-02  5.1753357457510D-01
16  1.5000000000000D-01  4.7767889273252D-02  5.4947673777784D-01
17  1.6000000000000D-01  6.1166929993336D-02  5.8069010572197D-01
18  1.7000000000000D-01  7.5292928656420D-02  6.1120818743139D-01
19  1.8000000000000D-01  8.9889356841166D-02  6.4107357019806D-01
20  1.9000000000000D-01  1.0467757730952D-01  6.7033545110863D-01
21  2.0000000000000D-01  1.1936285393694D-01  6.9904800766647D-01
22  2.1000000000000D-01  1.3364081070701D-01  7.2726864272856D-01
23  2.2000000000000D-01  1.4720420015691D-01  7.5505614195736D-01
24  2.3000000000000D-01  1.5974983387643D-01  7.8246878416477D-01
25  2.4000000000000D-01  1.7098552301729D-01  8.0956244624917D-01
26  2.5000000000000D-01  1.8063687537665D-01  8.3638874486326D-01
27  2.6000000000000D-01  1.8845379752851D-01  8.6299325648692D-01
28  2.7000000000000D-01  1.9421655566935D-01  8.8941385621921D-01
29  2.8000000000000D-01  1.9774125722932D-01  9.1567921337094D-01
30  2.9000000000000D-01  1.9888462672172D-01  9.4180747887436D-01
31  3.0000000000000D-01  1.9754796353811D-01  9.6780519569033D-01
32  3.1000000000000D-01  1.9368018616398D-01  9.9366645885998D-01
33  3.2000000000000D-01  1.8727988624988D-01  1.0193723467090D+00
34  3.3000000000000D-01  1.7839633674328D-01  1.0448906390723D+00
35  3.4000000000000D-01  1.6712942043736D-01  1.0701758323787D+00
36  3.5000000000000D-01  1.5362846836709D-01  1.0951694551463D+00
37  3.6000000000000D-01  1.3809002100038D-01  1.1198006810170D+00
38  3.7000000000000D-01  1.2075454863439D-01  1.1439872300356D+00
39  3.8000000000000D-01  1.0190219032183D-01  1.1676365425999D+00
40  3.9000000000000D-01  8.1847592523965D-02  1.1906472044901D+00
41  4.0000000000000D-01  6.0933949048346D-02  1.2129105957734D+00
42  4.1000000000000D-01  3.9526362231740D-02  1.2343127312856D+00
43  4.2000000000000D-01  1.8004661365101D-02  1.2547362559280D+00
44  4.3000000000000D-01 -3.2441723339016D-03  1.2740625542869D+00
45  4.4000000000000D-01 -2.3833814624468D-02  1.2921739311705D+00
46  4.5000000000000D-01 -4.3386474461608D-02  1.3089558176283D+00
47  4.6000000000000D-01 -6.1540667453470D-02  1.3242989559278D+00
48  4.7000000000000D-01 -7.7958716546253D-02  1.3381015168412D+00
49  4.8000000000000D-01 -9.2333813610679D-02  1.3502711034572D+00
50  4.9000000000000D-01 -1.0439648287533D-01  1.3607265975670D+00
51  5.0000000000000D-01 -1.1392029789731D-01  1.3693998074591D+00
52  5.1000000000000D-01 -1.2072671779385D-01  1.3762368796361D+00
53  5.2000000000000D-01 -1.2468892552936D-01  1.3811994414867D+00
54  5.3000000000000D-01 -1.2573457084625D-01  1.3842654472076D+00
55  5.4000000000000D-01 -1.2384734254695D-01  1.3854297051830D+00
56  5.5000000000000D-01 -1.1906731886028D-01  1.3847040714732D+00
57  5.6000000000000D-01 -1.1149007011457D-01  1.3821173009197D+00
58  5.7000000000000D-01 -1.0126451425505D-01  1.3777145544802D+00
59  5.8000000000000D-01 -8.8589552590392D-02  1.3715565686715D+00
60  5.9000000000000D-01 -7.3709539627146D-02  1.3637185001900D+00
61  6.0000000000000D-01 -5.6908666837212D-02  1.3542884658572D+00
62  6.1000000000000D-01 -3.8504364663279D-02  1.3433658047303D+00
63  6.2000000000000D-01 -1.8839849973728D-02  1.3310590955084D+00
64  6.3000000000000D-01  1.7240334112281D-03  1.3174839680068D+00
65  6.4000000000000D-01  2.2817515725259D-02  1.3027607524197D+00
66  6.5000000000000D-01  4.4070963806560D-02  1.2870120141989D+00
67  6.6000000000000D-01  6.5124114168563D-02  1.2703600255416D+00
68  6.7000000000000D-01  8.5635278247150D-02  1.2529242266560D+00
69  6.8000000000000D-01  1.0529031821047D-01  1.2348187310687D+00
70  6.9000000000000D-01  1.2381119256182D-01  1.2161499292316D+00
71  7.0000000000000D-01  1.4096387574198D-01  1.1970142435714D+00
72  7.1000000000000D-01  1.5656546512454D-01  1.1774960858770D+00
73  7.2000000000000D-01  1.7049030192705D-01  1.1576660646096D+00
74  7.3000000000000D-01  1.8267494956800D-01  1.1375794853554D+00
75  7.4000000000000D-01  1.9312189345282D-01  1.1172751823475D+00
76  7.5000000000000D-01  2.0190184987311D-01  1.0967747127961D+00
77  7.6000000000000D-01  2.0915459814073D-01  1.0760819388292D+00
78  7.7000000000000D-01  2.1508827871368D-01  1.0551830143044D+00
79  7.8000000000000D-01  2.1997713047947D-01  1.0340467857021D+00
80  7.9000000000000D-01  2.2415767188076D-01  1.0126256079499D+00
81  8.0000000000000D-01  2.2802336261115D-01  9.9085656749137D-01
82  8.1000000000000D-01  2.3201781454068D-01  9.6866309638394D-01
83  8.2000000000000D-01  2.3662665170983D-01  9.4595695285390D-01
84  8.3000000000000D-01  2.4236814902397D-01  9.2264053572299D-01
85  8.4000000000000D-01  2.4978280708572D-01  8.9860949261194D-01
86  8.5000000000000D-01  2.5942204577763D-01  8.7375557499409D-01
87  8.6000000000000D-01  2.7183622133623D-01  8.4796968712931D-01
88  8.7000000000000D-01  2.8756219008761D-01  8.2114507083030D-01
89  8.8000000000000D-01  3.0711065644447D-01  7.9318056398297D-01
90  8.9000000000000D-01  3.3095355279967D-01  7.6398386786709D-01
91  9.0000000000000D-01  3.5951170432374D-01  7.3347475667650D-01
92  9.1000000000000D-01  3.9314303219007D-01  7.0158816227519D-01
93  9.2000000000000D-01  4.3213154434312D-01  6.6827706816702D-01
94  9.3000000000000D-01  4.7667735358027D-01  6.3351514890893D-01
95  9.4000000000000D-01  5.2688794854099D-01  5.9729909473574D-01
96  9.5000000000000D-01  5.8277092438374D-01  5.5965056594022D-01
97  9.6000000000000D-01  6.4422835676705D-01  5.2061772749099D-01
98  9.7000000000000D-01  7.1105297561409D-01  4.8027632137710D-01
99  9.8000000000000D-01  7.8292626454295D-01  4.3873024210632D-01
100  9.9000000000000D-01  8.5941857795328D-01  3.9611158961316D-01
101  1.0000000000000D+00  9.3999133201240D-01  3.5258018317430D-01
102  1.0100000000000D+00  1.0240012883059D+00  3.0832252974927D-01
103  1.0200000000000D+00  1.1107069091415D+00  2.6355025061377D-01
104  1.0300000000000D+00  1.1992767252662D+00  2.1849798021933D-01
105  1.0400000000000D+00  1.2887996177100D+00  1.7342076151624D-01
106  1.0500000000000D+00  1.3782968774818D+00  1.2859097202462D-01
107  1.0600000000000D+00  1.4667358718629D+00  8.4294824212053D-02
108  1.0700000000000D+00  1.5530451129932D+00  4.0828492519130D-02
109  1.0800000000000D+00  1.6361304930517D+00 -1.5060722535750D-03
110  1.0900000000000D+00  1.7148924259140D+00 -4.2405573946519D-02
111  1.1000000000000D+00  1.7882436123440D+00 -8.1569974032254D-02
112  1.1100000000000D+00  1.8551271303243D+00 -1.1870718900790D-01
113  1.1200000000000D+00  1.9145345385386D+00 -1.5353780086479D-01
114  1.1300000000000D+00  1.9655236758195D+00 -1.8579969779229D-01
115  1.1400000000000D+00  2.0072358395398D+00 -2.1525256215973D-01
116  1.1500000000000D+00  2.0389120307870D+00 -2.4168212395518D-01
117  1.1600000000000D+00  2.0599079631974D+00 -2.6490410008281D-01
118  1.1700000000000D+00  2.0697075515276D+00 -2.8476774481233D-01
119  1.1800000000000D+00  2.0679346202270D+00 -3.0115894289927D-01
120  1.1900000000000D+00  2.0543625908247D+00 -3.1400278166972D-01
121  1.2000000000000D+00  2.0289219458248D+00 -3.2326554842906D-01
122  1.2100000000000D+00  1.9917053026400D+00 -3.2895610888391D-01
123  1.2200000000000D+00  1.9429699694341D+00 -3.3112663225744D-01
124  1.2300000000000D+00  1.8831378846105D+00 -3.2987263655263D-01
125  1.2400000000000D+00  1.8127929065961D+00 -3.2533234438703D-01
126  1.2500000000000D+00  1.7326754603388D+00 -3.1768535024748D-01
127  1.2600000000000D+00  1.6436745639971D+00 -3.0715060445931D-01
128  1.2700000000000D+00  1.5468173495593D+00 -2.9398374283183D-01
129  1.2800000000000D+00  1.4432562150977D+00 -2.7847379726279D-01
130  1.2900000000000D+00  1.3342537606060D+00 -2.6093932629668D-01
131  1.3000000000000D+00  1.2211657516374D+00 -2.4172402889965D-01
132  1.3100000000000D+00  1.1054223586930D+00 -2.2119190573209D-01
133  1.3200000000000D+00  9.8850793731952D-01 -1.9972203664297D-01
134  1.3300000000000D+00  8.7193968709034D-01 -1.7770306244883D-01
135  1.3400000000000D+00  7.5724550531916D-01 -1.5552745320819D-01
136  1.3500000000000D+00  6.4594138712338D-01 -1.3358565460317D-01
137  1.3600000000000D+00  5.3950873237724D-01 -1.1226020724664D-01
138  1.3700000000000D+00  4.3937193817417D-01 -9.1919933141523D-02
139  1.3800000000000D+00  3.4687655500574D-01 -7.2914278501381D-02
140  1.3900000000000D+00  2.6326870364120D-01 -5.5567933584869D-02
141  1.4000000000000D+00  1.8967496481765D-01 -4.0175713778182D-02
142  1.4100000000000D+00  1.2712696705264D-01 -2.7006913072793D-02
143  1.4200000000000D+00  7.6317226451227D-02 -1.6252092779153D-02
144  1.4300000000000D+00  3.7845300373065D-02 -8.0747982997428D-03
145  1.4400000000000D+00  1.3342963883752D-02 -2.8515691018313D-03
146  1.4500000000000D+00  1.9109335033029D-03 -4.0925224807259D-04
147  1.4600000000000D+00 -9.2803286089360D-04  1.9854175983442D-04
148  1.4700000000000D+00 -1.3861478009018D-04  2.9691485673788D-05
149  1.4800000000000D+00  2.9855215336880D-04 -6.3870689514361D-05
150  1.4900000000000D+00 -1.2661877029454D-05  2.7021510477866D-06
151  1.5000000000000D+00 -4.8465004183306D-05  1.0343496286436D-05
152  1.5100000000000D+00 -2.0498659894690D-07  4.4378860933743D-08
153  1.5200000000000D+00 -2.4097649947424D-07  5.2170544871754D-08
154  1.5300000000000D+00  0.0000000000000D+00  0.0000000000000D+00
155  1.5400000000000D+00  0.0000000000000D+00  0.0000000000000D+00
156  1.5500000000000D+00  0.0000000000000D+00  0.0000000000000D+00
157  1.5600000000000D+00  0.0000000000000D+00  0.0000000000000D+00
158  1.5700000000000D+00  0.0000000000000D+00  0.0000000000000D+00
159  1.5800000000000D+00  0.0000000000000D+00  0.0000000000000D+00
160  1.5900000000000D+00  0.0000000000000D+00  0.0000000000000D+00
161  1.6000000000000D+00  0.0000000000000D+00  0.0000000000000D+00
162  1.6100000000000D+00  0.0000000000000D+00  0.0000000000000D+00
163  1.6200000000000D+00  0.0000000000000D+00  0.0000000000000D+00
164  1.6300000000000D+00  0.0000000000000D+00  0.0000000000000D+00
165  1.6400000000000D+00  0.0000000000000D+00  0.0000000000000D+00
166  1.6500000000000D+00  0.0000000000000D+00  0.0000000000000D+00
167  1.6600000000000D+00  0.0000000000000D+00  0.0000000000000D+00
168  1.6700000000000D+00  0.0000000000000D+00  0.0000000000000D+00
169  1.6800000000000D+00  0.0000000000000D+00  0.0000000000000D+00
170  1.6900000000000D+00  0.0000000000000D+00  0.0000000000000D+00
171  1.7000000000000D+00  0.0000000000000D+00  0.0000000000000D+00
172  1.7100000000000D+00  0.0000000000000D+00  0.0000000000000D+00
173  1.7200000000000D+00  0.0000000000000D+00  0.0000000000000D+00
174  1.7300000000000D+00  0.0000000000000D+00  0.0000000000000D+00
175  1.7400000000000D+00  0.0000000000000D+00  0.0000000000000D+00
176  1.7500000000000D+00  0.0000000000000D+00  0.0000000000000D+00
177  1.7600000000000D+00  0.0000000000000D+00  0.0000000000000D+00
178  1.7700000000000D+00  0.0000000000000D+00  0.0000000000000D+00
179  1.7800000000000D+00  0.0000000000000D+00  0.0000000000000D+00
180  1.7900000000000D+00  0.0000000000000D+00  0.0000000000000D+00
181  1.8000000000000D+00  0.0000000000000D+00  0.0000000000000D+00
182  1.8100000000000D+00  0.0000000000000D+00  0.0000000000000D+00
183  1.8200000000000D+00  0.0000000000000D+00  0.0000000000000D+00
184  1.8300000000000D+00  0.0000000000000D+00  0.0000000000000D+00
185  1.8400000000000D+00  0.0000000000000D+00  0.0000000000000D+00
186  1.8500000000000D+00  0.0000000000000D+00  0.0000000000000D+00
187  1.8600000000000D+00  0.0000000000000D+00  0.0000000000000D+00
188  1.8700000000000D+00  0.0000000000000D+00  0.0000000000000D+00
189  1.8800000000000D+00  0.0000000000000D+00  0.0000000000000D+00
190  1.8900000000000D+00  0.0000000000000D+00  0.0000000000000D+00
191  1.9000000000000D+00  0.0000000000000D+00  0.0000000000000D+00
192  1.9100000000000D+00  0.0000000000000D+00  0.0000000000000D+00
193  1.9200000000000D+00  0.0000000000000D+00  0.0000000000000D+00
194  1.9300000000000D+00  0.0000000000000D+00  0.0000000000000D+00
195  1.9400000000000D+00  0.0000000000000D+00  0.0000000000000D+00
196  1.9500000000000D+00  0.0000000000000D+00  0.0000000000000D+00
197  1.9600000000000D+00  0.0000000000000D+00  0.0000000000000D+00
198  1.9700000000000D+00  0.0000000000000D+00  0.0000000000000D+00
199  1.9800000000000D+00  0.0000000000000D+00  0.0000000000000D+00
200  1.9900000000000D+00  0.0000000000000D+00  0.0000000000000D+00
201  2.0000000000000D+00  0.0000000000000D+00  0.0000000000000D+00
202  2.0100000000000D+00  0.0000000000000D+00  0.0000000000000D+00
203  2.0200000000000D+00  0.0000000000000D+00  0.0000000000000D+00
204  2.0300000000000D+00  0.0000000000000D+00  0.0000000000000D+00
205  2.0400000000000D+00  0.0000000000000D+00  0.0000000000000D+00
206  2.0500000000000D+00  0.0000000000000D+00  0.0000000000000D+00
207  2.0600000000000D+00  0.0000000000000D+00  0.0000000000000D+00
208  2.0700000000000D+00  0.0000000000000D+00  0.0000000000000D+00
209  2.0800000000000D+00  0.0000000000000D+00  0.0000000000000D+00
210  2.0900000000000D+00  0.0000000000000D+00  0.0000000000000D+00
211  2.1000000000000D+00  0.0000000000000D+00  0.0000000000000D+00
212  2.1100000000000D+00  0.0000000000000D+00  0.0000000000000D+00
213  2.1200000000000D+00  0.0000000000000D+00  0.0000000000000D+00
214  2.1300000000000D+00  0.0000000000000D+00  0.0000000000000D+00
215  2.1400000000000D+00  0.0000000000000D+00  0.0000000000000D+00
216  2.1500000000000D+00  0.0000000000000D+00  0.0000000000000D+00
217  2.1600000000000D+00  0.0000000000000D+00  0.0000000000000D+00
218  2.1700000000000D+00  0.0000000000000D+00  0.0000000000000D+00
219  2.1800000000000D+00  0.0000000000000D+00  0.0000000000000D+00
220  2.1900000000000D+00  0.0000000000000D+00  0.0000000000000D+00
221  2.2000000000000D+00  0.0000000000000D+00  0.0000000000000D+00
222  2.2100000000000D+00  0.0000000000000D+00  0.0000000000000D+00
223  2.2200000000000D+00  0.0000000000000D+00  0.0000000000000D+00
224  2.2300000000000D+00  0.0000000000000D+00  0.0000000000000D+00
225  2.2400000000000D+00  0.0000000000000D+00  0.0000000000000D+00
226  2.2500000000000D+00  0.0000000000000D+00  0.0000000000000D+00
227  2.2600000000000D+00  0.0000000000000D+00  0.0000000000000D+00
228  2.2700000000000D+00  0.0000000000000D+00  0.0000000000000D+00
229  2.2800000000000D+00  0.0000000000000D+00  0.0000000000000D+00
230  2.2900000000000D+00  0.0000000000000D+00  0.0000000000000D+00
231  2.3000000000000D+00  0.0000000000000D+00  0.0000000000000D+00
232  2.3100000000000D+00  0.0000000000000D+00  0.0000000000000D+00
233  2.3200000000000D+00  0.0000000000000D+00  0.0000000000000D+00
234  2.3300000000000D+00  0.0000000000000D+00  0.0000000000000D+00
235  2.3400000000000D+00  0.0000000000000D+00  0.0000000000000D+00
236  2.3500000000000D+00  0.0000000000000D+00  0.0000000000000D+00
237  2.3600000000000D+00  0.0000000000000D+00  0.0000000000000D+00
238  2.3700000000000D+00  0.0000000000000D+00  0.0000000000000D+00
239  2.3800000000000D+00  0.0000000000000D+00  0.0000000000000D+00
240  2.3900000000000D+00  0.0000000000000D+00  0.0000000000000D+00
241  2.4000000000000D+00  0.0000000000000D+00  0.0000000000000D+00
242  2.4100000000000D+00  0.0000000000000D+00  0.0000000000000D+00
243  2.4200000000000D+00  0.0000000000000D+00  0.0000000000000D+00
244  2.4300000000000D+00  0.0000000000000D+00  0.0000000000000D+00
245  2.4400000000000D+00  0.0000000000000D+00  0.0000000000000D+00
246  2.4500000000000D+00  0.0000000000000D+00  0.0000000000000D+00
247  2.4600000000000D+00  0.0000000000000D+00  0.0000000000000D+00
248  2.4700000000000D+00  0.0000000000000D+00  0.0000000000000D+00
249  2.4800000000000D+00  0.0000000000000D+00  0.0000000000000D+00
250  2.4900000000000D+00  0.0000000000000D+00  0.0000000000000D+00
251  2.5000000000000D+00  0.0000000000000D+00  0.0000000000000D+00
252  2.5100000000000D+00  0.0000000000000D+00  0.0000000000000D+00
253  2.5200000000000D+00  0.0000000000000D+00  0.0000000000000D+00
254  2.5300000000000D+00  0.0000000000000D+00  0.0000000000000D+00
255  2.5400000000000D+00  0.0000000000000D+00  0.0000000000000D+00
256  2.5500000000000D+00  0.0000000000000D+00  0.0000000000000D+00
257  2.5600000000000D+00  0.0000000000000D+00  0.0000000000000D+00
258  2.5700000000000D+00  0.0000000000000D+00  0.0000000000000D+00
259  2.5800000000000D+00  0.0000000000000D+00  0.0000000000000D+00
260  2.5900000000000D+00  0.0000000000000D+00  0.0000000000000D+00
261  2.6000000000000D+00  0.0000000000000D+00  0.0000000000000D+00
262  2.6100000000000D+00  0.0000000000000D+00  0.0000000000000D+00
263  2.6200000000000D+00  0.0000000000000D+00  0.0000000000000D+00
264  2.6300000000000D+00  0.0000000000000D+00  0.0000000000000D+00
265  2.6400000000000D+00  0.0000000000000D+00  0.0000000000000D+00
266  2.6500000000000D+00  0.0000000000000D+00  0.0000000000000D+00
267  2.6600000000000D+00  0.0000000000000D+00  0.0000000000000D+00
268  2.6700000000000D+00  0.0000000000000D+00  0.0000000000000D+00
269  2.6800000000000D+00  0.0000000000000D+00  0.0000000000000D+00
270  2.6900000000000D+00  0.0000000000000D+00  0.0000000000000D+00
271  2.7000000000000D+00  0.0000000000000D+00  0.0000000000000D+00
272  2.7100000000000D+00  0.0000000000000D+00  0.0000000000000D+00
273  2.7200000000000D+00  0.0000000000000D+00  0.0000000000000D+00
274  2.7300000000000D+00  0.0000000000000D+00  0.0000000000000D+00
275  2.7400000000000D+00  0.0000000000000D+00  0.0000000000000D+00
276  2.7500000000000D+00  0.0000000000000D+00  0.0000000000000D+00
277  2.7600000000000D+00  0.0000000000000D+00  0.0000000000000D+00
278  2.7700000000000D+00  0.0000000000000D+00  0.0000000000000D+00
279  2.7800000000000D+00  0.0000000000000D+00  0.0000000000000D+00
280  2.7900000000000D+00  0.0000000000000D+00  0.0000000000000D+00
281  2.8000000000000D+00  0.0000000000000D+00  0.0000000000000D+00
282  2.8100000000000D+00  0.0000000000000D+00  0.0000000000000D+00
283  2.8200000000000D+00  0.0000000000000D+00  0.0000000000000D+00
284  2.8300000000000D+00  0.0000000000000D+00  0.0000000000000D+00
285  2.8400000000000D+00  0.0000000000000D+00  0.0000000000000D+00
286  2.8500000000000D+00  0.0000000000000D+00  0.0000000000000D+00
287  2.8600000000000D+00  0.0000000000000D+00  0.0000000000000D+00
288  2.8700000000000D+00  0.0000000000000D+00  0.0000000000000D+00
289  2.8800000000000D+00  0.0000000000000D+00  0.0000000000000D+00
290  2.8900000000000D+00  0.0000000000000D+00  0.0000000000000D+00
291  2.9000000000000D+00  0.0000000000000D+00  0.0000000000000D+00
292  2.9100000000000D+00  0.0000000000000D+00  0.0000000000000D+00
293  2.9200000000000D+00  0.0000000000000D+00  0.0000000000000D+00
294  2.9300000000000D+00  0.0000000000000D+00  0.0000000000000D+00
295  2.9400000000000D+00  0.0000000000000D+00  0.0000000000000D+00
296  2.9500000000000D+00  0.0000000000000D+00  0.0000000000000D+00
297  2.9600000000000D+00  0.0000000000000D+00  0.0000000000000D+00
298  2.9700000000000D+00  0.0000000000000D+00  0.0000000000000D+00
299  2.9800000000000D+00  0.0000000000000D+00  0.0000000000000D+00
300  2.9900000000000D+00  0.0000000000000D+00  0.0000000000000D+00
301  3.0000000000000D+00  0.0000000000000D+00  0.0000000000000D+00
302  3.0100000000000D+00  0.0000000000000D+00  0.0000000000000D+00
303  3.0200000000000D+00  0.0000000000000D+00  0.0000000000000D+00
304  3.0300000000000D+00  0.0000000000000D+00  0.0000000000000D+00
305  3.0400000000000D+00  0.0000000000000D+00  0.0000000000000D+00
306  3.0500000000000D+00  0.0000000000000D+00  0.0000000000000D+00
307  3.0600000000000D+00  0.0000000000000D+00  0.0000000000000D+00
308  3.0700000000000D+00  0.0000000000000D+00  0.0000000000000D+00
309  3.0800000000000D+00  0.0000000000000D+00  0.0000000000000D+00
310  3.0900000000000D+00  0.0000000000000D+00  0.0000000000000D+00
311  3.1000000000000D+00  0.0000000000000D+00  0.0000000000000D+00
312  3.1100000000000D+00  0.0000000000000D+00  0.0000000000000D+00
313  3.1200000000000D+00  0.0000000000000D+00  0.0000000000000D+00
314  3.1300000000000D+00  0.0000000000000D+00  0.0000000000000D+00
315  3.1400000000000D+00  0.0000000000000D+00  0.0000000000000D+00
316  3.1500000000000D+00  0.0000000000000D+00  0.0000000000000D+00
317  3.1600000000000D+00  0.0000000000000D+00  0.0000000000000D+00
318  3.1700000000000D+00  0.0000000000000D+00  0.0000000000000D+00
319  3.1800000000000D+00  0.0000000000000D+00  0.0000000000000D+00
320  3.1900000000000D+00  0.0000000000000D+00  0.0000000000000D+00
321  3.2000000000000D+00  0.0000000000000D+00  0.0000000000000D+00
322  3.2100000000000D+00  0.0000000000000D+00  0.0000000000000D+00
323  3.2200000000000D+00  0.0000000000000D+00  0.0000000000000D+00
324  3.2300000000000D+00  0.0000000000000D+00  0.0000000000000D+00
325  3.2400000000000D+00  0.0000000000000D+00  0.0000000000000D+00
326  3.2500000000000D+00  0.0000000000000D+00  0.0000000000000D+00
327  3.2600000000000D+00  0.0000000000000D+00  0.0000000000000D+00
328  3.2700000000000D+00  0.0000000000000D+00  0.0000000000000D+00
329  3.2800000000000D+00  0.0000000000000D+00  0.0000000000000D+00
330  3.2900000000000D+00  0.0000000000000D+00  0.0000000000000D+00
331  3.3000000000000D+00  0.0000000000000D+00  0.0000000000000D+00
332  3.3100000000000D+00  0.0000000000000D+00  0.0000000000000D+00
333  3.3200000000000D+00  0.0000000000000D+00  0.0000000000000D+00
334  3.3300000000000D+00  0.0000000000000D+00  0.0000000000000D+00
335  3.3400000000000D+00  0.0000000000000D+00  0.0000000000000D+00
336  3.3500000000000D+00  0.0000000000000D+00  0.0000000000000D+00
337  3.3600000000000D+00  0.0000000000000D+00  0.0000000000000D+00
338  3.3700000000000D+00  0.0000000000000D+00  0.0000000000000D+00
339  3.3800000000000D+00  0.0000000000000D+00  0.0000000000000D+00
340  3.3900000000000D+00  0.0000000000000D+00  0.0000000000000D+00
341  3.4000000000000D+00  0.0000000000000D+00  0.0000000000000D+00
342  3.4100000000000D+00  0.0000000000000D+00  0.0000000000000D+00
343  3.4200000000000D+00  0.0000000000000D+00  0.0000000000000D+00
344  3.4300000000000D+00  0.0000000000000D+00  0.0000000000000D+00
345  3.4400000000000D+00  0.0000000000000D+00  0.0000000000000D+00
346  3.4500000000000D+00  0.0000000000000D+00  0.0000000000000D+00
347  3.4600000000000D+00  0.0000000000000D+00  0.0000000000000D+00
348  3.4700000000000D+00  0.0000000000000D+00  0.0000000000000D+00
349  3.4800000000000D+00  0.0000000000000D+00  0.0000000000000D+00
350  3.4900000000000D+00  0.0000000000000D+00  0.0000000000000D+00
351  3.5000000000000D+00  0.0000000000000D+00  0.0000000000000D+00
352  3.5100000000000D+00  0.0000000000000D+00  0.0000000000000D+00
353  3.5200000000000D+00  0.0000000000000D+00  0.0000000000000D+00
354  3.5300000000000D+00  0.0000000000000D+00  0.0000000000000D+00
355  3.5400000000000D+00  0.0000000000000D+00  0.0000000000000D+00
356  3.5500000000000D+00  0.0000000000000D+00  0.0000000000000D+00
357  3.5600000000000D+00  0.0000000000000D+00  0.0000000000000D+00
358  3.5700000000000D+00  0.0000000000000D+00  0.0000000000000D+00
359  3.5800000000000D+00  0.0000000000000D+00  0.0000000000000D+00
360  3.5900000000000D+00  0.0000000000000D+00  0.0000000000000D+00
361  3.6000000000000D+00  0.0000000000000D+00  0.0000000000000D+00
362  3.6100000000000D+00  0.0000000000000D+00  0.0000000000000D+00
363  3.6200000000000D+00  0.0000000000000D+00  0.0000000000000D+00
364  3.6300000000000D+00  0.0000000000000D+00  0.0000000000000D+00
365  3.6400000000000D+00  0.0000000000000D+00  0.0000000000000D+00
366  3.6500000000000D+00  0.0000000000000D+00  0.0000000000000D+00
367  3.6600000000000D+00  0.0000000000000D+00  0.0000000000000D+00
368  3.6700000000000D+00  0.0000000000000D+00  0.0000000000000D+00
369  3.6800000000000D+00  0.0000000000000D+00  0.0000000000000D+00
370  3.6900000000000D+00  0.0000000000000D+00  0.0000000000000D+00
371  3.7000000000000D+00  0.0000000000000D+00  0.0000000000000D+00
372  3.7100000000000D+00  0.0000000000000D+00  0.0000000000000D+00
373  3.7200000000000D+00  0.0000000000000D+00  0.0000000000000D+00
374  3.7300000000000D+00  0.0000000000000D+00  0.0000000000000D+00
375  3.7400000000000D+00  0.0000000000000D+00  0.0000000000000D+00
376  3.7500000000000D+00  0.0000000000000D+00  0.0000000000000D+00
377  3.7600000000000D+00  0.0000000000000D+00  0.0000000000000D+00
378  3.7700000000000D+00  0.0000000000000D+00  0.0000000000000D+00
379  3.7800000000000D+00  0.0000000000000D+00  0.0000000000000D+00
380  3.7900000000000D+00  0.0000000000000D+00  0.0000000000000D+00
381  3.8000000000000D+00  0.0000000000000D+00  0.0000000000000D+00
382  3.8100000000000D+00  0.0000000000000D+00  0.0000000000000D+00
383  3.8200000000000D+00  0.0000000000000D+00  0.0000000000000D+00
384  3.8300000000000D+00  0.0000000000000D+00  0.0000000000000D+00
385  3.8400000000000D+00  0.0000000000000D+00  0.0000000000000D+00
386  3.8500000000000D+00  0.0000000000000D+00  0.0000000000000D+00
387  3.8600000000000D+00  0.0000000000000D+00  0.0000000000000D+00
388  3.8700000000000D+00  0.0000000000000D+00  0.0000000000000D+00
389  3.8800000000000D+00  0.0000000000000D+00  0.0000000000000D+00
390  3.8900000000000D+00  0.0000000000000D+00  0.0000000000000D+00
391  3.9000000000000D+00  0.0000000000000D+00  0.0000000000000D+00
392  3.9100000000000D+00  0.0000000000000D+00  0.0000000000000D+00
393  3.9200000000000D+00  0.0000000000000D+00  0.0000000000000D+00
394  3.9300000000000D+00  0.0000000000000D+00  0.0000000000000D+00
395  3.9400000000000D+00  0.0000000000000D+00  0.0000000000000D+00
396  3.9500000000000D+00  0.0000000000000D+00  0.0000000000000D+00
397  3.9600000000000D+00  0.0000000000000D+00  0.0000000000000D+00
398  3.9700000000000D+00  0.0000000000000D+00  0.0000000000000D+00
399  3.9800000000000D+00  0.0000000000000D+00  0.0000000000000D+00
400  3.9900000000000D+00  0.0000000000000D+00  0.0000000000000D+00
401  4.0000000000000D+00  0.0000000000000D+00  0.0000000000000D+00
402  4.0100000000000D+00  0.0000000000000D+00  0.0000000000000D+00
403  4.0200000000000D+00  0.0000000000000D+00  0.0000000000000D+00
404  4.0300000000000D+00  0.0000000000000D+00  0.0000000000000D+00
405  4.0400000000000D+00  0.0000000000000D+00  0.0000000000000D+00
406  4.0500000000000D+00  0.0000000000000D+00  0.0000000000000D+00
407  4.0600000000000D+00  0.0000000000000D+00  0.0000000000000D+00
408  4.0700000000000D+00  0.0000000000000D+00  0.0000000000000D+00
409  4.0800000000000D+00  0.0000000000000D+00  0.0000000000000D+00
410  4.0900000000000D+00  0.0000000000000D+00  0.0000000000000D+00
411  4.1000000000000D+00  0.0000000000000D+00  0.0000000000000D+00
412  4.1100000000000D+00  0.0000000000000D+00  0.0000000000000D+00
413  4.1200000000000D+00  0.0000000000000D+00  0.0000000000000D+00
414  4.1300000000000D+00  0.0000000000000D+00  0.0000000000000D+00
415  4.1400000000000D+00  0.0000000000000D+00  0.0000000000000D+00
416  4.1500000000000D+00  0.0000000000000D+00  0.0000000000000D+00
417  4.1600000000000D+00  0.0000000000000D+00  0.0000000000000D+00
418  4.1700000000000D+00  0.0000000000000D+00  0.0000000000000D+00
419  4.1800000000000D+00  0.0000000000000D+00  0.0000000000000D+00
420  4.1900000000000D+00  0.0000000000000D+00  0.0000000000000D+00
421  4.2000000000000D+00  0.0000000000000D+00  0.0000000000000D+00
422  4.2100000000000D+00  0.0000000000000D+00  0.0000000000000D+00
423  4.2200000000000D+00  0.0000000000000D+00  0.0000000000000D+00
424  4.2300000000000D+00  0.0000000000000D+00  0.0000000000000D+00
425  4.2400000000000D+00  0.0000000000000D+00  0.0000000000000D+00
426  4.2500000000000D+00  0.0000000000000D+00  0.0000000000000D+00
427  4.2600000000000D+00  0.0000000000000D+00  0.0000000000000D+00
428  4.2700000000000D+00  0.0000000000000D+00  0.0000000000000D+00
429  4.2800000000000D+00  0.0000000000000D+00  0.0000000000000D+00
430  4.2900000000000D+00  0.0000000000000D+00  0.0000000000000D+00
431  4.3000000000000D+00  0.0000000000000D+00  0.0000000000000D+00
432  4.3100000000000D+00  0.0000000000000D+00  0.0000000000000D+00
433  4.3200000000000D+00  0.0000000000000D+00  0.0000000000000D+00
434  4.3300000000000D+00  0.0000000000000D+00  0.0000000000000D+00
435  4.3400000000000D+00  0.0000000000000D+00  0.0000000000000D+00
436  4.3500000000000D+00  0.0000000000000D+00  0.0000000000000D+00
437  4.3600000000000D+00  0.0000000000000D+00  0.0000000000000D+00
438  4.3700000000000D+00  0.0000000000000D+00  0.0000000000000D+00
439  4.3800000000000D+00  0.0000000000000D+00  0.0000000000000D+00
440  4.3900000000000D+00  0.0000000000000D+00  0.0000000000000D+00
441  4.4000000000000D+00  0.0000000000000D+00  0.0000000000000D+00
442  4.4100000000000D+00  0.0000000000000D+00  0.0000000000000D+00
443  4.4200000000000D+00  0.0000000000000D+00  0.0000000000000D+00