Ga    ONCVPSP  r_core=  1.67  1.75  1.90
31.0000     13.0000      150728    zatom,zion,pspd
8      11   2     4   600     0    pspcod,pspxc,lmax,lloc,mmax,r2well
5.99000000  0.40000000  0.00000000    rchrg fchrg qchrg
2     2     2     0     0    nproj
0                 extension_switch
0                         6.7654312959370D+00  9.6579395663268D-01
1  0.0000000000000D+00  1.1287383666625D-09 -2.4742148330148D-09
2  1.0000000000000D-02  6.2311205844543D-03  3.6080219469713D-02
3  2.0000000000000D-02  1.2660229288907D-02  7.1726150953061D-02
4  3.0000000000000D-02  1.9482934247832D-02  1.0650864804677D-01
5  4.0000000000000D-02  2.6890110244451D-02  1.4000878942981D-01
6  5.0000000000000D-02  3.5065598294760D-02  1.7182284683003D-01
7  6.0000000000000D-02  4.4183983934725D-02  2.0156708127361D-01
8  7.0000000000000D-02  5.4408479106820D-02  2.2888231331180D-01
9  8.0000000000000D-02  6.5888931413401D-02  2.5343821539356D-01
10  9.0000000000000D-02  7.8759983116037D-02  2.7493727759595D-01
11  1.0000000000000D-01  9.3139400626900D-02  2.9311840150347D-01
12  1.1000000000000D-01  1.0912659337769D-01  3.0776008110548D-01
13  1.2000000000000D-01  1.2680133888333D-01  3.1868313411354D-01
14  1.3000000000000D-01  1.4622272856387D-01  3.2575295203941D-01
15  1.4000000000000D-01  1.6742834647222D-01  3.2888124266777D-01
16  1.5000000000000D-01  1.9043369052422D-01  3.2802724414730D-01
17  1.6000000000000D-01  2.1523184316696D-01  3.2319839575155D-01
18  1.7000000000000D-01  2.4179339568129D-01  3.1445045636306D-01
19  1.8000000000000D-01  2.7006662752293D-01  3.0188706784704D-01
20  1.9000000000000D-01  2.9997793929426D-01  2.8565876663818D-01
21  2.0000000000000D-01  3.3143253513624D-01  2.6596145300015D-01
22  2.1000000000000D-01  3.6431534756576D-01  2.4303433346492D-01
23  2.2000000000000D-01  3.9849219508996D-01  2.1715735785372D-01
24  2.3000000000000D-01  4.3381116033285D-01  1.8864817795811D-01
25  2.4000000000000D-01  4.7010417394040D-01  1.5785866035759D-01
26  2.5000000000000D-01  5.0718878721481D-01  1.2517099090915D-01
27  2.6000000000000D-01  5.4487011429160D-01  9.0993413109294D-02
28  2.7000000000000D-01  5.8294292273933D-01  5.5755646748806D-02
29  2.8000000000000D-01  6.2119384975127D-01  1.9904037006791D-02
30  2.9000000000000D-01  6.5940371963127D-01 -1.6103512677003D-02
31  3.0000000000000D-01  6.9734993706863D-01 -5.1802767991679D-02
32  3.1000000000000D-01  7.3480892976307D-01 -8.6728493427217D-02
33  3.2000000000000D-01  7.7155861331189D-01 -1.2041982485561D-01
34  3.3000000000000D-01  8.0738085091496D-01 -1.5242562489685D-01
35  3.4000000000000D-01  8.4206388039487D-01 -1.8230976084863D-01
36  3.5000000000000D-01  8.7540468127045D-01 -2.0965624551927D-01
37  3.6000000000000D-01  9.0721125516143D-01 -2.3407418251868D-01
38  3.7000000000000D-01  9.3730479363443D-01 -2.5520245942134D-01
39  3.8000000000000D-01  9.6552170871998D-01 -2.7271413470239D-01
40  3.9000000000000D-01  9.9171550272392D-01 -2.8632046743721D-01
41  4.0000000000000D-01  1.0157584556122D+00 -2.9577454241797D-01
42  4.1000000000000D-01  1.0375431101488D+00 -3.0087444753910D-01
43  4.2000000000000D-01  1.0569835370909D+00 -3.0146596499583D-01
44  4.3000000000000D-01  1.0740163650776D+00 -2.9744474297717D-01
45  4.4000000000000D-01  1.0886015623545D+00 -2.8875792006462D-01
46  4.5000000000000D-01  1.1007229601408D+00 -2.7540518041141D-01
47  4.6000000000000D-01  1.1103885102341D+00 -2.5743922391500D-01
48  4.7000000000000D-01  1.1176302723307D+00 -2.3496564194006D-01
49  4.8000000000000D-01  1.1225041294899D+00 -2.0814219563656D-01
50  4.9000000000000D-01  1.1250892331550D+00 -1.7717750045473D-01
51  5.0000000000000D-01  1.1254871821299D+00 -1.4232912701911D-01
52  5.1000000000000D-01  1.1238209428641D+00 -1.0390113501330D-01
53  5.2000000000000D-01  1.1202335212976D+00 -6.2241063078726D-02
54  5.3000000000000D-01  1.1148863993105D+00 -1.7736403867576D-02
55  5.4000000000000D-01  1.1079577515051D+00  2.9189400739704D-02
56  5.5000000000000D-01  1.0996404605654D+00  7.8081403725268D-02
57  5.6000000000000D-01  1.0901399517784D+00  1.2845799068658D-01
58  5.7000000000000D-01  1.0796718694383D+00  1.7981606094306D-01
59  5.8000000000000D-01  1.0684596197425D+00  2.3163649755593D-01
60  5.9000000000000D-01  1.0567318064445D+00  2.8338986822935D-01
61  6.0000000000000D-01  1.0447195868861D+00  3.3454229609922D-01
62  6.1000000000000D-01  1.0326539771185D+00  3.8456143707255D-01
63  6.2000000000000D-01  1.0207631355923D+00  4.3292249872639D-01
64  6.3000000000000D-01  1.0092696553559D+00  4.7911423480167D-01
65  6.4000000000000D-01  9.9838789484300D-01  5.2264484907146D-01
66  6.5000000000000D-01  9.8832137713874D-01  5.6304774281501D-01
67  6.6000000000000D-01  9.7926028710569D-01  5.9988704130465D-01
68  6.7000000000000D-01  9.7137909490991D-01  6.3276283659908D-01
69  6.8000000000000D-01  9.6483433334546D-01  6.6131608649678D-01
70  6.9000000000000D-01  9.5976255489203D-01  6.8523311276695D-01
71  7.0000000000000D-01  9.5627849269806D-01  7.0424964564953D-01
72  7.1000000000000D-01  9.5447344765390D-01  7.1815436611953D-01
73  7.2000000000000D-01  9.5441392145325D-01  7.2679190243478D-01
74  7.3000000000000D-01  9.5614051301779D-01  7.3006524307503D-01
75  7.4000000000000D-01  9.5966709295126D-01  7.2793753417334D-01
76  7.5000000000000D-01  9.6498026779132D-01  7.2043323594790D-01
77  7.6000000000000D-01  9.7203914278179D-01  7.0763861937067D-01
78  7.7000000000000D-01  9.8077538872100D-01  6.8970159130162D-01
79  7.8000000000000D-01  9.9109361520296D-01  6.6683084346348D-01
80  7.9000000000000D-01  1.0028720492605D+00  6.3929432792634D-01
81  8.0000000000000D-01  1.0159635151090D+00  6.0741706906546D-01
82  8.1000000000000D-01  1.0301967073995D+00  5.7157832920531D-01
83  8.2000000000000D-01  1.0453777471485D+00  5.3220815229160D-01
84  8.3000000000000D-01  1.0612920063692D+00  4.8978331685266D-01
85  8.4000000000000D-01  1.0777061844064D+00  4.4482273615008D-01
86  8.5000000000000D-01  1.0943706161169D+00  3.9788234970347D-01
87  8.6000000000000D-01  1.1110217893668D+00  3.4954955623345D-01
88  8.7000000000000D-01  1.1273850468661D+00  3.0043724343624D-01
89  8.8000000000000D-01  1.1431774451635D+00  2.5117747481955D-01
90  8.9000000000000D-01  1.1581107416942D+00  2.0241489803864D-01
91  9.0000000000000D-01  1.1718944791467D+00  1.5479994272120D-01
92  9.1000000000000D-01  1.1842391351011D+00  1.0898187862058D-01
93  9.2000000000000D-01  1.1948593039125D+00  6.5601807049607D-02
94  9.3000000000000D-01  1.2034768771776D+00  2.5285659896370D-02
95  9.4000000000000D-01  1.2098241888452D+00 -1.1362718909836D-02
96  9.5000000000000D-01  1.2136470911213D+00 -4.3768334870011D-02
97  9.6000000000000D-01  1.2147079277457D+00 -7.1391573696393D-02
98  9.7000000000000D-01  1.2127883720429D+00 -9.3734429657094D-02
99  9.8000000000000D-01  1.2076920982986D+00 -1.1034636231597D-01
100  9.9000000000000D-01  1.1992472565207D+00 -1.2082971587800D-01
101  1.0000000000000D+00  1.1873087224768D+00 -1.2484463944616D-01
102  1.0100000000000D+00  1.1717600970433D+00 -1.2211345126397D-01
103  1.0200000000000D+00  1.1525154313799D+00 -1.1242439553876D-01
104  1.0300000000000D+00  1.1295206570937D+00 -9.5634746325030D-02
105  1.0400000000000D+00  1.1027547035150D+00 -7.1673219513026D-02
106  1.0500000000000D+00  1.0722302874443D+00 -4.0541661147689D-02
107  1.0600000000000D+00  1.0379943639805D+00 -2.3159875070738D-03
108  1.0700000000000D+00  1.0001282305735D+00  4.2853639810186D-02
109  1.0800000000000D+00  9.5874728013802D-01  9.4743412361946D-02
110  1.0900000000000D+00  9.1400040235014D-01  1.5305724821356D-01
111  1.1000000000000D+00  8.6606903650773D-01  2.1742893205791D-01
112  1.1100000000000D+00  8.1516588256843D-01  2.8742500685675D-01
113  1.1200000000000D+00  7.6153328100482D-01  3.6254839287023D-01
114  1.1300000000000D+00  7.0544127514056D-01  4.4224270326696D-01
115  1.1400000000000D+00  6.4718537360506D-01  5.2589721674493D-01
116  1.1500000000000D+00  5.8708403356644D-01  6.1285246093601D-01
117  1.1600000000000D+00  5.2547588867410D-01  7.0240635316662D-01
118  1.1700000000000D+00  4.6271674791481D-01  7.9382084014749D-01
119  1.1800000000000D+00  3.9917639492167D-01  8.8632897083660D-01
120  1.1900000000000D+00  3.3523521917355D-01  9.7914233256138D-01
121  1.2000000000000D+00  2.7128071253931D-01  1.0714587760755D+00
122  1.2100000000000D+00  2.0770386600611D-01  1.1624703521933D+00
123  1.2200000000000D+00  1.4489550335306D-01  1.2513713784702D+00
124  1.2300000000000D+00  8.3242588760107D-02  1.3373665539378D+00
125  1.2400000000000D+00  2.3124546086486D-02  1.4196790382877D+00
126  1.2500000000000D+00 -3.5090372041493D-02  1.4975584110870D+00
127  1.2600000000000D+00 -9.1048628135133D-02  1.5702884287471D+00
128  1.2700000000000D+00 -1.4441481958852D-01  1.6371944970948D+00
129  1.2800000000000D+00 -1.9487493816935D-01  1.6976507798226D+00
130  1.2900000000000D+00 -2.4213943573898D-01  1.7510868688601D+00
131  1.3000000000000D+00 -2.8594606276712D-01  1.7969939429067D+00
132  1.3100000000000D+00 -3.2606244913000D-01  1.8349303469223D+00
133  1.3200000000000D+00 -3.6228840102032D-01  1.8645265350384D+00
134  1.3300000000000D+00 -3.9445788642997D-01  1.8854893163183D+00
135  1.3400000000000D+00 -4.2244068834125D-01  1.8976053576746D+00
136  1.3500000000000D+00 -4.4614370906427D-01  1.9007439078093D+00
137  1.3600000000000D+00 -4.6551190557388D-01  1.8948586980857D+00
138  1.3700000000000D+00 -4.8052884958727D-01  1.8799890071194D+00
139  1.3800000000000D+00 -4.9121690272207D-01  1.8562598682996D+00
140  1.3900000000000D+00 -4.9763700069587D-01  1.8238814075212D+00
141  1.4000000000000D+00 -4.9988805297860D-01  1.7831473260276D+00
142  1.4100000000000D+00 -4.9810595500297D-01  1.7344325226206D+00
143  1.4200000000000D+00 -4.9246222645937D-01  1.6781898859296D+00
144  1.4300000000000D+00 -4.8316228730681D-01  1.6149462832066D+00
145  1.4400000000000D+00 -4.7044338287807D-01  1.5452977715807D+00
146  1.4500000000000D+00 -4.5457218612562D-01  1.4699040946093D+00
147  1.4600000000000D+00 -4.3584209036455D-01  1.3894824944434D+00
148  1.4700000000000D+00 -4.1457022691026D-01  1.3048009165031D+00
149  1.4800000000000D+00 -3.9109423222845D-01  1.2166706618934D+00
150  1.4900000000000D+00 -3.6576879681219D-01  1.1259385596348D+00
151  1.5000000000000D+00 -3.3896203305739D-01  1.0334787418795D+00
152  1.5100000000000D+00 -3.1105169279270D-01  9.4018409076643D-01
153  1.5200000000000D+00 -2.8242127823306D-01  8.4695745437539D-01
154  1.5300000000000D+00 -2.5345607981094D-01  7.5470270661458D-01
155  1.5400000000000D+00 -2.2453918463189D-01  6.6431574840339D-01
156  1.5500000000000D+00 -1.9604749262719D-01  5.7667553289045D-01
157  1.5600000000000D+00 -1.6834778262116D-01  4.9263520696579D-01
158  1.5700000000000D+00 -1.4179286710201D-01  4.1301346680036D-01
159  1.5800000000000D+00 -1.1671786923679D-01  3.3858615909008D-01
160  1.5900000000000D+00 -9.3436684065062D-02  2.7007839281242D-01
161  1.6000000000000D+00 -7.2238611839520D-02  2.0815691865194D-01
162  1.6100000000000D+00 -5.3385364722013D-02  1.5342331901499D-01
163  1.6200000000000D+00 -3.7121039961998D-02  1.0644473334373D-01
164  1.6300000000000D+00 -2.3594834720633D-02  6.7534954463114D-02
165  1.6400000000000D+00 -1.2951553489896D-02  3.7015104946918D-02
166  1.6500000000000D+00 -5.5716504338812D-03  1.5899189487795D-02
167  1.6600000000000D+00 -1.4840839923424D-03  4.2202774157567D-03
168  1.6700000000000D+00  1.1908161582528D-04 -3.5221023420132D-04
169  1.6800000000000D+00  2.7331992025882D-04 -7.8473477293745D-04
170  1.6900000000000D+00 -2.7502950743588D-05  7.8884623882710D-05
171  1.7000000000000D+00 -9.3237324573392D-05  2.6716081044039D-04
172  1.7100000000000D+00  3.6882095838465D-06 -1.0604935439753D-05
173  1.7200000000000D+00  1.7447071052151D-05 -5.0143558559492D-05
174  1.7300000000000D+00 -9.6998978811387D-10  7.1438242966742D-09
175  1.7400000000000D+00 -8.3257444219110D-09  6.1317815937837D-08
176  1.7500000000000D+00 -1.3698619976663D-10  1.0088821080321D-09
177  1.7600000000000D+00  0.0000000000000D+00  0.0000000000000D+00
178  1.7700000000000D+00  0.0000000000000D+00  0.0000000000000D+00
179  1.7800000000000D+00  0.0000000000000D+00  0.0000000000000D+00
180  1.7900000000000D+00  0.0000000000000D+00  0.0000000000000D+00
181  1.8000000000000D+00  0.0000000000000D+00  0.0000000000000D+00
182  1.8100000000000D+00  0.0000000000000D+00  0.0000000000000D+00
183  1.8200000000000D+00  0.0000000000000D+00  0.0000000000000D+00
184  1.8300000000000D+00  0.0000000000000D+00  0.0000000000000D+00
185  1.8400000000000D+00  0.0000000000000D+00  0.0000000000000D+00
186  1.8500000000000D+00  0.0000000000000D+00  0.0000000000000D+00
187  1.8600000000000D+00  0.0000000000000D+00  0.0000000000000D+00
188  1.8700000000000D+00  0.0000000000000D+00  0.0000000000000D+00
189  1.8800000000000D+00  0.0000000000000D+00  0.0000000000000D+00
190  1.8900000000000D+00  0.0000000000000D+00  0.0000000000000D+00
191  1.9000000000000D+00  0.0000000000000D+00  0.0000000000000D+00
192  1.9100000000000D+00  0.0000000000000D+00  0.0000000000000D+00
193  1.9200000000000D+00  0.0000000000000D+00  0.0000000000000D+00
194  1.9300000000000D+00  0.0000000000000D+00  0.0000000000000D+00
195  1.9400000000000D+00  0.0000000000000D+00  0.0000000000000D+00
196  1.9500000000000D+00  0.0000000000000D+00  0.0000000000000D+00
197  1.9600000000000D+00  0.0000000000000D+00  0.0000000000000D+00
198  1.9700000000000D+00  0.0000000000000D+00  0.0000000000000D+00
199  1.9800000000000D+00  0.0000000000000D+00  0.0000000000000D+00
200  1.9900000000000D+00  0.0000000000000D+00  0.0000000000000D+00
201  2.0000000000000D+00  0.0000000000000D+00  0.0000000000000D+00
202  2.0100000000000D+00  0.0000000000000D+00  0.0000000000000D+00
203  2.0200000000000D+00  0.0000000000000D+00  0.0000000000000D+00
204  2.0300000000000D+00  0.0000000000000D+00  0.0000000000000D+00
205  2.0400000000000D+00  0.0000000000000D+00  0.0000000000000D+00
206  2.0500000000000D+00  0.0000000000000D+00  0.0000000000000D+00
207  2.0600000000000D+00  0.0000000000000D+00  0.0000000000000D+00
208  2.0700000000000D+00  0.0000000000000D+00  0.0000000000000D+00
209  2.0800000000000D+00  0.0000000000000D+00  0.0000000000000D+00
210  2.0900000000000D+00  0.0000000000000D+00  0.0000000000000D+00
211  2.1000000000000D+00  0.0000000000000D+00  0.0000000000000D+00
212  2.1100000000000D+00  0.0000000000000D+00  0.0000000000000D+00
213  2.1200000000000D+00  0.0000000000000D+00  0.0000000000000D+00
214  2.1300000000000D+00  0.0000000000000D+00  0.0000000000000D+00
215  2.1400000000000D+00  0.0000000000000D+00  0.0000000000000D+00
216  2.1500000000000D+00  0.0000000000000D+00  0.0000000000000D+00
217  2.1600000000000D+00  0.0000000000000D+00  0.0000000000000D+00
218  2.1700000000000D+00  0.0000000000000D+00  0.0000000000000D+00
219  2.1800000000000D+00  0.0000000000000D+00  0.0000000000000D+00
220  2.1900000000000D+00  0.0000000000000D+00  0.0000000000000D+00
221  2.2000000000000D+00  0.0000000000000D+00  0.0000000000000D+00
222  2.2100000000000D+00  0.0000000000000D+00  0.0000000000000D+00
223  2.2200000000000D+00  0.0000000000000D+00  0.0000000000000D+00
224  2.2300000000000D+00  0.0000000000000D+00  0.0000000000000D+00
225  2.2400000000000D+00  0.0000000000000D+00  0.0000000000000D+00
226  2.2500000000000D+00  0.0000000000000D+00  0.0000000000000D+00
227  2.2600000000000D+00  0.0000000000000D+00  0.0000000000000D+00
228  2.2700000000000D+00  0.0000000000000D+00  0.0000000000000D+00
229  2.2800000000000D+00  0.0000000000000D+00  0.0000000000000D+00
230  2.2900000000000D+00  0.0000000000000D+00  0.0000000000000D+00
231  2.3000000000000D+00  0.0000000000000D+00  0.0000000000000D+00
232  2.3100000000000D+00  0.0000000000000D+00  0.0000000000000D+00
233  2.3200000000000D+00  0.0000000000000D+00  0.0000000000000D+00
234  2.3300000000000D+00  0.0000000000000D+00  0.0000000000000D+00
235  2.3400000000000D+00  0.0000000000000D+00  0.0000000000000D+00
236  2.3500000000000D+00  0.0000000000000D+00  0.0000000000000D+00
237  2.3600000000000D+00  0.0000000000000D+00  0.0000000000000D+00
238  2.3700000000000D+00  0.0000000000000D+00  0.0000000000000D+00
239  2.3800000000000D+00  0.0000000000000D+00  0.0000000000000D+00
240  2.3900000000000D+00  0.0000000000000D+00  0.0000000000000D+00
241  2.4000000000000D+00  0.0000000000000D+00  0.0000000000000D+00
242  2.4100000000000D+00  0.0000000000000D+00  0.0000000000000D+00
243  2.4200000000000D+00  0.0000000000000D+00  0.0000000000000D+00
244  2.4300000000000D+00  0.0000000000000D+00  0.0000000000000D+00
245  2.4400000000000D+00  0.0000000000000D+00  0.0000000000000D+00
246  2.4500000000000D+00  0.0000000000000D+00  0.0000000000000D+00
247  2.4600000000000D+00  0.0000000000000D+00  0.0000000000000D+00
248  2.4700000000000D+00  0.0000000000000D+00  0.0000000000000D+00
249  2.4800000000000D+00  0.0000000000000D+00  0.0000000000000D+00
250  2.4900000000000D+00  0.0000000000000D+00  0.0000000000000D+00
251  2.5000000000000D+00  0.0000000000000D+00  0.0000000000000D+00
252  2.5100000000000D+00  0.0000000000000D+00  0.0000000000000D+00
253  2.5200000000000D+00  0.0000000000000D+00  0.0000000000000D+00
254  2.5300000000000D+00  0.0000000000000D+00  0.0000000000000D+00
255  2.5400000000000D+00  0.0000000000000D+00  0.0000000000000D+00
256  2.5500000000000D+00  0.0000000000000D+00  0.0000000000000D+00
257  2.5600000000000D+00  0.0000000000000D+00  0.0000000000000D+00
258  2.5700000000000D+00  0.0000000000000D+00  0.0000000000000D+00
259  2.5800000000000D+00  0.0000000000000D+00  0.0000000000000D+00
260  2.5900000000000D+00  0.0000000000000D+00  0.0000000000000D+00
261  2.6000000000000D+00  0.0000000000000D+00  0.0000000000000D+00
262  2.6100000000000D+00  0.0000000000000D+00  0.0000000000000D+00
263  2.6200000000000D+00  0.0000000000000D+00  0.0000000000000D+00
264  2.6300000000000D+00  0.0000000000000D+00  0.0000000000000D+00
265  2.6400000000000D+00  0.0000000000000D+00  0.0000000000000D+00
266  2.6500000000000D+00  0.0000000000000D+00  0.0000000000000D+00
267  2.6600000000000D+00  0.0000000000000D+00  0.0000000000000D+00
268  2.6700000000000D+00  0.0000000000000D+00  0.0000000000000D+00
269  2.6800000000000D+00  0.0000000000000D+00  0.0000000000000D+00
270  2.6900000000000D+00  0.0000000000000D+00  0.0000000000000D+00
271  2.7000000000000D+00  0.0000000000000D+00  0.0000000000000D+00
272  2.7100000000000D+00  0.0000000000000D+00  0.0000000000000D+00
273  2.7200000000000D+00  0.0000000000000D+00  0.0000000000000D+00
274  2.7300000000000D+00  0.0000000000000D+00  0.0000000000000D+00
275  2.7400000000000D+00  0.0000000000000D+00  0.0000000000000D+00
276  2.7500000000000D+00  0.0000000000000D+00  0.0000000000000D+00
277  2.7600000000000D+00  0.0000000000000D+00  0.0000000000000D+00
278  2.7700000000000D+00  0.0000000000000D+00  0.0000000000000D+00
279  2.7800000000000D+00  0.0000000000000D+00  0.0000000000000D+00
280  2.7900000000000D+00  0.0000000000000D+00  0.0000000000000D+00
281  2.8000000000000D+00  0.0000000000000D+00  0.0000000000000D+00
282  2.8100000000000D+00  0.0000000000000D+00  0.0000000000000D+00
283  2.8200000000000D+00  0.0000000000000D+00  0.0000000000000D+00
284  2.8300000000000D+00  0.0000000000000D+00  0.0000000000000D+00
285  2.8400000000000D+00  0.0000000000000D+00  0.0000000000000D+00
286  2.8500000000000D+00  0.0000000000000D+00  0.0000000000000D+00
287  2.8600000000000D+00  0.0000000000000D+00  0.0000000000000D+00
288  2.8700000000000D+00  0.0000000000000D+00  0.0000000000000D+00
289  2.8800000000000D+00  0.0000000000000D+00  0.0000000000000D+00
290  2.8900000000000D+00  0.0000000000000D+00  0.0000000000000D+00
291  2.9000000000000D+00  0.0000000000000D+00  0.0000000000000D+00
292  2.9100000000000D+00  0.0000000000000D+00  0.0000000000000D+00
293  2.9200000000000D+00  0.0000000000000D+00  0.0000000000000D+00
294  2.9300000000000D+00  0.0000000000000D+00  0.0000000000000D+00
295  2.9400000000000D+00  0.0000000000000D+00  0.0000000000000D+00
296  2.9500000000000D+00  0.0000000000000D+00  0.0000000000000D+00
297  2.9600000000000D+00  0.0000000000000D+00  0.0000000000000D+00
298  2.9700000000000D+00  0.0000000000000D+00  0.0000000000000D+00
299  2.9800000000000D+00  0.0000000000000D+00  0.0000000000000D+00
300  2.9900000000000D+00  0.0000000000000D+00  0.0000000000000D+00
301  3.0000000000000D+00  0.0000000000000D+00  0.0000000000000D+00
302  3.0100000000000D+00  0.0000000000000D+00  0.0000000000000D+00
303  3.0200000000000D+00  0.0000000000000D+00  0.0000000000000D+00
304  3.0300000000000D+00  0.0000000000000D+00  0.0000000000000D+00
305  3.0400000000000D+00  0.0000000000000D+00  0.0000000000000D+00
306  3.0500000000000D+00  0.0000000000000D+00  0.0000000000000D+00
307  3.0600000000000D+00  0.0000000000000D+00  0.0000000000000D+00
308  3.0700000000000D+00  0.0000000000000D+00  0.0000000000000D+00
309  3.0800000000000D+00  0.0000000000000D+00  0.0000000000000D+00
310  3.0900000000000D+00  0.0000000000000D+00  0.0000000000000D+00
311  3.1000000000000D+00  0.0000000000000D+00  0.0000000000000D+00
312  3.1100000000000D+00  0.0000000000000D+00  0.0000000000000D+00
313  3.1200000000000D+00  0.0000000000000D+00  0.0000000000000D+00
314  3.1300000000000D+00  0.0000000000000D+00  0.0000000000000D+00
315  3.1400000000000D+00  0.0000000000000D+00  0.0000000000000D+00
316  3.1500000000000D+00  0.0000000000000D+00  0.0000000000000D+00
317  3.1600000000000D+00  0.0000000000000D+00  0.0000000000000D+00
318  3.1700000000000D+00  0.0000000000000D+00  0.0000000000000D+00
319  3.1800000000000D+00  0.0000000000000D+00  0.0000000000000D+00
320  3.1900000000000D+00  0.0000000000000D+00  0.0000000000000D+00
321  3.2000000000000D+00  0.0000000000000D+00  0.0000000000000D+00
322  3.2100000000000D+00  0.0000000000000D+00  0.0000000000000D+00
323  3.2200000000000D+00  0.0000000000000D+00  0.0000000000000D+00
324  3.2300000000000D+00  0.0000000000000D+00  0.0000000000000D+00
325  3.2400000000000D+00  0.0000000000000D+00  0.0000000000000D+00
326  3.2500000000000D+00  0.0000000000000D+00  0.0000000000000D+00
327  3.2600000000000D+00  0.0000000000000D+00  0.0000000000000D+00
328  3.2700000000000D+00  0.0000000000000D+00  0.0000000000000D+00
329  3.2800000000000D+00  0.0000000000000D+00  0.0000000000000D+00
330  3.2900000000000D+00  0.0000000000000D+00  0.0000000000000D+00
331  3.3000000000000D+00  0.0000000000000D+00  0.0000000000000D+00
332  3.3100000000000D+00  0.0000000000000D+00  0.0000000000000D+00
333  3.3200000000000D+00  0.0000000000000D+00  0.0000000000000D+00
334  3.3300000000000D+00  0.0000000000000D+00  0.0000000000000D+00
335  3.3400000000000D+00  0.0000000000000D+00  0.0000000000000D+00
336  3.3500000000000D+00  0.0000000000000D+00  0.0000000000000D+00
337  3.3600000000000D+00  0.0000000000000D+00  0.0000000000000D+00
338  3.3700000000000D+00  0.0000000000000D+00  0.0000000000000D+00
339  3.3800000000000D+00  0.0000000000000D+00  0.0000000000000D+00
340  3.3900000000000D+00  0.0000000000000D+00  0.0000000000000D+00
341  3.4000000000000D+00  0.0000000000000D+00  0.0000000000000D+00
342  3.4100000000000D+00  0.0000000000000D+00  0.0000000000000D+00
343  3.4200000000000D+00  0.0000000000000D+00  0.0000000000000D+00
344  3.4300000000000D+00  0.0000000000000D+00  0.0000000000000D+00
345  3.4400000000000D+00  0.0000000000000D+00  0.0000000000000D+00
346  3.4500000000000D+00  0.0000000000000D+00  0.0000000000000D+00
347  3.4600000000000D+00  0.0000000000000D+00  0.0000000000000D+00
348  3.4700000000000D+00  0.0000000000000D+00  0.0000000000000D+00
349  3.4800000000000D+00  0.0000000000000D+00  0.0000000000000D+00
350  3.4900000000000D+00  0.0000000000000D+00  0.0000000000000D+00
351  3.5000000000000D+00  0.0000000000000D+00  0.0000000000000D+00
352  3.5100000000000D+00  0.0000000000000D+00  0.0000000000000D+00
353  3.5200000000000D+00  0.0000000000000D+00  0.0000000000000D+00
354  3.5300000000000D+00  0.0000000000000D+00  0.0000000000000D+00
355  3.5400000000000D+00  0.0000000000000D+00  0.0000000000000D+00
356  3.5500000000000D+00  0.0000000000000D+00  0.0000000000000D+00
357  3.5600000000000D+00  0.0000000000000D+00  0.0000000000000D+00
358  3.5700000000000D+00  0.0000000000000D+00  0.0000000000000D+00
359  3.5800000000000D+00  0.0000000000000D+00  0.0000000000000D+00
360  3.5900000000000D+00  0.0000000000000D+00  0.0000000000000D+00
361  3.6000000000000D+00  0.0000000000000D+00  0.0000000000000D+00
362  3.6100000000000D+00  0.0000000000000D+00  0.0000000000000D+00
363  3.6200000000000D+00  0.0000000000000D+00  0.0000000000000D+00
364  3.6300000000000D+00  0.0000000000000D+00  0.0000000000000D+00
365  3.6400000000000D+00  0.0000000000000D+00  0.0000000000000D+00
366  3.6500000000000D+00  0.0000000000000D+00  0.0000000000000D+00
367  3.6600000000000D+00  0.0000000000000D+00  0.0000000000000D+00
368  3.6700000000000D+00  0.0000000000000D+00  0.0000000000000D+00
369  3.6800000000000D+00  0.0000000000000D+00  0.0000000000000D+00
370  3.6900000000000D+00  0.0000000000000D+00  0.0000000000000D+00
371  3.7000000000000D+00  0.0000000000000D+00  0.0000000000000D+00
372  3.7100000000000D+00  0.0000000000000D+00  0.0000000000000D+00
373  3.7200000000000D+00  0.0000000000000D+00  0.0000000000000D+00
374  3.7300000000000D+00  0.0000000000000D+00  0.0000000000000D+00
375  3.7400000000000D+00  0.0000000000000D+00  0.0000000000000D+00
376  3.7500000000000D+00  0.0000000000000D+00  0.0000000000000D+00
377  3.7600000000000D+00  0.0000000000000D+00  0.0000000000000D+00
378  3.7700000000000D+00  0.0000000000000D+00  0.0000000000000D+00
379  3.7800000000000D+00  0.0000000000000D+00  0.0000000000000D+00
380  3.7900000000000D+00  0.0000000000000D+00  0.0000000000000D+00
381  3.8000000000000D+00  0.0000000000000D+00  0.0000000000000D+00
382  3.8100000000000D+00  0.0000000000000D+00  0.0000000000000D+00
383  3.8200000000000D+00  0.0000000000000D+00  0.0000000000000D+00
384  3.8300000000000D+00  0.0000000000000D+00  0.0000000000000D+00
385  3.8400000000000D+00  0.0000000000000D+00  0.0000000000000D+00
386  3.8500000000000D+00  0.0000000000000D+00  0.0000000000000D+00
387  3.8600000000000D+00  0.0000000000000D+00  0.0000000000000D+00
388  3.8700000000000D+00  0.0000000000000D+00  0.0000000000000D+00
389  3.8800000000000D+00  0.0000000000000D+00  0.0000000000000D+00
390  3.8900000000000D+00  0.0000000000000D+00  0.0000000000000D+00
391  3.9000000000000D+00  0.0000000000000D+00  0.0000000000000D+00
392  3.9100000000000D+00  0.0000000000000D+00  0.0000000000000D+00
393  3.9200000000000D+00  0.0000000000000D+00  0.0000000000000D+00
394  3.9300000000000D+00  0.0000000000000D+00  0.0000000000000D+00
395  3.9400000000000D+00  0.0000000000000D+00  0.0000000000000D+00
396  3.9500000000000D+00  0.0000000000000D+00  0.0000000000000D+00
397  3.9600000000000D+00  0.0000000000000D+00  0.0000000000000D+00
398  3.9700000000000D+00  0.0000000000000D+00  0.0000000000000D+00
399  3.9800000000000D+00  0.0000000000000D+00  0.0000000000000D+00
400  3.9900000000000D+00  0.0000000000000D+00  0.0000000000000D+00
401  4.0000000000000D+00  0.0000000000000D+00  0.0000000000000D+00
402  4.0100000000000D+00  0.0000000000000D+00  0.0000000000000D+00
403  4.0200000000000D+00  0.0000000000000D+00  0.0000000000000D+00
404  4.0300000000000D+00  0.0000000000000D+00  0.0000000000000D+00
405  4.0400000000000D+00  0.0000000000000D+00  0.0000000000000D+00
406  4.0500000000000D+00  0.0000000000000D+00  0.0000000000000D+00
407  4.0600000000000D+00  0.0000000000000D+00  0.0000000000000D+00
408  4.0700000000000D+00  0.0000000000000D+00  0.0000000000000D+00
409  4.0800000000000D+00  0.0000000000000D+00  0.0000000000000D+00
410  4.0900000000000D+00  0.0000000000000D+00  0.0000000000000D+00
411  4.1000000000000D+00  0.0000000000000D+00  0.0000000000000D+00
412  4.1100000000000D+00  0.0000000000000D+00  0.0000000000000D+00
413  4.1200000000000D+00  0.0000000000000D+00  0.0000000000000D+00
414  4.1300000000000D+00  0.0000000000000D+00  0.0000000000000D+00
415  4.1400000000000D+00  0.0000000000000D+00  0.0000000000000D+00
416  4.1500000000000D+00  0.0000000000000D+00  0.0000000000000D+00
417  4.1600000000000D+00  0.0000000000000D+00  0.0000000000000D+00
418  4.1700000000000D+00  0.0000000000000D+00  0.0000000000000D+00
419  4.1800000000000D+00  0.0000000000000D+00  0.0000000000000D+00
420  4.1900000000000D+00  0.0000000000000D+00  0.0000000000000D+00
421  4.2000000000000D+00  0.0000000000000D+00  0.0000000000000D+00
422  4.2100000000000D+00  0.0000000000000D+00  0.0000000000000D+00
423  4.2200000000000D+00  0.0000000000000D+00  0.0000000000000D+00
424  4.2300000000000D+00  0.0000000000000D+00  0.0000000000000D+00
425  4.2400000000000D+00  0.0000000000000D+00  0.0000000000000D+00
426  4.2500000000000D+00  0.0000000000000D+00  0.0000000000000D+00
427  4.2600000000000D+00  0.0000000000000D+00  0.0000000000000D+00
428  4.2700000000000D+00  0.0000000000000D+00  0.0000000000000D+00
429  4.2800000000000D+00  0.0000000000000D+00  0.0000000000000D+00
430  4.2900000000000D+00  0.0000000000000D+00  0.0000000000000D+00
431  4.3000000000000D+00  0.0000000000000D+00  0.0000000000000D+00
432  4.3100000000000D+00  0.0000000000000D+00  0.0000000000000D+00
433  4.3200000000000D+00  0.0000000000000D+00  0.0000000000000D+00
434  4.3300000000000D+00  0.0000000000000D+00  0.0000000000000D+00
435  4.3400000000000D+00  0.0000000000000D+00  0.0000000000000D+00
436  4.3500000000000D+00  0.0000000000000D+00  0.0000000000000D+00
437  4.3600000000000D+00  0.0000000000000D+00  0.0000000000000D+00
438  4.3700000000000D+00  0.0000000000000D+00  0.0000000000000D+00
439  4.3800000000000D+00  0.0000000000000D+00  0.0000000000000D+00
440  4.3900000000000D+00  0.0000000000000D+00  0.0000000000000D+00
441  4.4000000000000D+00  0.0000000000000D+00  0.0000000000000D+00
442  4.4100000000000D+00  0.0000000000000D+00  0.0000000000000D+00
443  4.4200000000000D+00  0.0000000000000D+00  0.0000000000000D+00
444  4.4300000000000D+00  0.0000000000000D+00  0.0000000000000D+00