Ga    ONCVPSP  r_core=  1.67  1.75  1.90
31.0000     13.0000      160903    zatom,zion,pspd
8      11   2     4   600     0    pspcod,pspxc,lmax,lloc,mmax,r2well
5.99000000  5.00000000  0.00000000    rchrg fchrg qchrg
2     4     2     0    nproj
3                 extension_switch
4     3     0    nprojso
0                         9.3937474840875D-01  6.7964352320135D+00
1  0.0000000000000D+00 -2.1362817625992D-09  1.0055084126437D-09
2  1.0000000000000D-02  2.9784577533245D-02  8.1340603656265D-03
3  2.0000000000000D-02  5.9208194419184D-02  1.6439069540064D-02
4  3.0000000000000D-02  8.7914227817878D-02  2.5083895632381D-02
5  4.0000000000000D-02  1.1555468085216D-01  3.4233268865275D-02
6  5.0000000000000D-02  1.4179437200780D-01  4.4045771156421D-02
7  6.0000000000000D-02  1.6631497776671D-01  5.4671895208957D-02
8  7.0000000000000D-02  1.8881888208409D-01  6.6252195088488D-02
9  8.0000000000000D-02  2.0903278845698D-01  7.8915549258489D-02
10  9.0000000000000D-02  2.2671105295867D-01  9.2777555809236D-02
11  1.0000000000000D-01  2.4163869970374D-01  1.0793907816087D-01
12  1.1000000000000D-01  2.5363408372747D-01  1.2448495786436D-01
13  1.2000000000000D-01  2.6255117017508D-01  1.4248290928248D-01
14  1.3000000000000D-01  2.6828140295649D-01  1.6198260892684D-01
15  1.4000000000000D-01  2.7075514058753D-01  1.8301499007697D-01
16  1.5000000000000D-01  2.6994264175717D-01  2.0559175103770D-01
17  1.6000000000000D-01  2.6585458818303D-01  2.2970508302524D-01
18  1.7000000000000D-01  2.5854213748706D-01  2.5532762123565D-01
19  1.8000000000000D-01  2.4809650408662D-01  2.8241262016959D-01
20  1.9000000000000D-01  2.3464807139388D-01  3.1089435178886D-01
21  2.0000000000000D-01  2.1836504389290D-01  3.4068872259240D-01
22  2.1000000000000D-01  1.9945165285933D-01  3.7169410324798D-01
23  2.2000000000000D-01  1.7814593454803D-01  4.0379236202755D-01
24  2.3000000000000D-01  1.5471710454118D-01  4.3685009099571D-01
25  2.4000000000000D-01  1.2946255657172D-01  4.7072001171669D-01
26  2.5000000000000D-01  1.0270451846273D-01  5.0524254519970D-01
27  2.6000000000000D-01  7.4786401803732D-02  5.4024752891837D-01
28  2.7000000000000D-01  4.6068885576318D-02  5.7555606203828D-01
29  2.8000000000000D-01  1.6925777103336D-02  6.1098245848561D-01
30  2.9000000000000D-01 -1.2260303608905D-02  6.4633628620792D-01
31  3.0000000000000D-01 -4.1102367867538D-02  6.8142446992885D-01
32  3.1000000000000D-01 -6.9213580685582D-02  7.1605343389441D-01
33  3.2000000000000D-01 -9.6211810495215D-02  7.5003126055980D-01
34  3.3000000000000D-01 -1.2172415453353D-01  7.8316984087908D-01
35  3.4000000000000D-01 -1.4539138824636D-01  8.1528699183903D-01
36  3.5000000000000D-01 -1.6687228761921D-01  8.4620851712622D-01
37  3.6000000000000D-01 -1.8584777447513D-01  8.7577018732934D-01
38  3.7000000000000D-01 -2.0202483646559D-01  9.0381961685424D-01
39  3.8000000000000D-01 -2.1514017571023D-01  9.3021801575934D-01
40  3.9000000000000D-01 -2.2496354278925D-01  9.5484179599358D-01
41  4.0000000000000D-01 -2.3130071603458D-01  9.7758401302648D-01
42  4.1000000000000D-01 -2.3399608976796D-01  9.9835562558389D-01
43  4.2000000000000D-01 -2.3293483925907D-01  1.0170865581269D+00
44  4.3000000000000D-01 -2.2804463468211D-01  1.0337265528142D+00
45  4.4000000000000D-01 -2.1929688118821D-01  1.0482457999512D+00
46  4.5000000000000D-01 -2.0670746733226D-01  1.0606353383215D+00
47  4.6000000000000D-01 -1.9033700944457D-01  1.0709072193056D+00
48  4.7000000000000D-01 -1.7029058505867D-01  1.0790944312746D+00
49  4.8000000000000D-01 -1.4671695414533D-01  1.0852505833910D+00
50  4.9000000000000D-01 -1.1980727258874D-01  1.0894493506177D+00
51  5.0000000000000D-01 -8.9793308023361D-02  1.0917836844012D+00
52  5.1000000000000D-01 -5.6945173757795D-02  1.0923647961320D+00
53  5.2000000000000D-01 -2.1568601991149D-02  1.0913209230607D+00
54  5.3000000000000D-01  1.5998217190606D-02  1.0887958888343D+00
55  5.4000000000000D-01  5.5388199512220D-02  1.0849474731902D+00
56  5.5000000000000D-01  9.6209296651725D-02  1.0799456075757D+00
57  5.6000000000000D-01  1.3804875221374D-01  1.0739704155182D+00
58  5.7000000000000D-01  1.8047763896010D-01  1.0672101184504D+00
59  5.8000000000000D-01  2.2305562923533D-01  1.0598588293439D+00
60  5.9000000000000D-01  2.6533594751575D-01  1.0521142579402D+00
61  6.0000000000000D-01  3.0687045155515D-01  1.0441753525383D+00
62  6.1000000000000D-01  3.4721478669408D-01  1.0362399042174D+00
63  6.2000000000000D-01  3.8593355659499D-01  1.0285021400092D+00
64  6.3000000000000D-01  4.2260545296239D-01  1.0211503318874D+00
65  6.4000000000000D-01  4.5682828673182D-01  1.0143644485085D+00
66  6.5000000000000D-01  4.8822386375371D-01  1.0083138764064D+00
67  6.6000000000000D-01  5.1644264917791D-01  1.0031552368213D+00
68  6.7000000000000D-01  5.4116816653699D-01  9.9903032353066D-01
69  6.8000000000000D-01  5.6212107991351D-01  9.9606418595788D-01
70  6.9000000000000D-01  5.7906291056649D-01  9.9436338046185D-01
71  7.0000000000000D-01  5.9179934291852D-01  9.9401441108476D-01
72  7.1000000000000D-01  6.0018307886989D-01  9.9508237915657D-01
73  7.2000000000000D-01  6.0411620392221D-01  9.9760985906355D-01
74  7.3000000000000D-01  6.0355203359407D-01  1.0016160151690D+00
75  7.4000000000000D-01  5.9849641395539D-01  1.0070959723931D+00
76  7.5000000000000D-01  5.8900845580504D-01  1.0140204503079D+00
77  7.6000000000000D-01  5.7520068797936D-01  1.0223356678307D+00
78  7.7000000000000D-01  5.5723862146589D-01  1.0319635227139D+00
79  7.8000000000000D-01  5.3533972230161D-01  1.0428020470906D+00
80  7.9000000000000D-01  5.0977179765547D-01  1.0547261373402D+00
81  8.0000000000000D-01  4.8085080590352D-01  1.0675885535407D+00
82  8.1000000000000D-01  4.4893810785605D-01  1.0812211808093D+00
83  8.2000000000000D-01  4.1443718252902D-01  1.0954365419126D+00
84  8.3000000000000D-01  3.7778983688395D-01  1.1100295477031D+00
85  8.4000000000000D-01  3.3947194473211D-01  1.1247794692322D+00
86  8.5000000000000D-01  2.9998875544409D-01  1.1394521128323D+00
87  8.6000000000000D-01  2.5986981816302D-01  1.1538021770815D+00
88  8.7000000000000D-01  2.1966357183299D-01  1.1675757683916D+00
89  8.8000000000000D-01  1.7993165546668D-01  1.1805130500190D+00
90  8.9000000000000D-01  1.4124299664415D-01  1.1923509976049D+00
91  9.0000000000000D-01  1.0416773921064D-01  1.2028262329403D+00
92  9.1000000000000D-01  6.9271073491375D-02  1.2116779065211D+00
93  9.2000000000000D-01  3.7107034033285D-02  1.2186505986441D+00
94  9.3000000000000D-01  8.2123308952906D-03  1.2234972082861D+00
95  9.4000000000000D-01 -1.6899719174275D-02  1.2259817988337D+00
96  9.5000000000000D-01 -3.7745095750523D-02  1.2258823698867D+00
97  9.6000000000000D-01 -5.3874747066102D-02  1.2229935248220D+00
98  9.7000000000000D-01 -6.4879968656227D-02  1.2171290046319D+00
99  9.8000000000000D-01 -7.0397427765493D-02  1.2081240596712D+00
100  9.9000000000000D-01 -7.0113776139815D-02  1.1958376323903D+00
101  1.0000000000000D+00 -6.3769797628037D-02  1.1801543258731D+00
102  1.0100000000000D+00 -5.1164041407459D-02  1.1609861350149D+00
103  1.0200000000000D+00 -3.2155896698223D-02  1.1382739195005D+00
104  1.0300000000000D+00 -6.6680701898741D-03  1.1119886002132D+00
105  1.0400000000000D+00  2.5311566637210D-02  1.0821320634567D+00
106  1.0500000000000D+00  6.3728786624172D-02  1.0487377603747D+00
107  1.0600000000000D+00  1.0846249231208D-01  1.0118709919578D+00
108  1.0700000000000D+00  1.5932489038490D-01  9.7162887328781D-01
109  1.0800000000000D+00  2.1606236064201D-01  9.2813997407191D-01
110  1.0900000000000D+00  2.7835701845841D-01  8.8156363553805D-01
111  1.1000000000000D+00  3.4582896128056D-01  8.3208896767170D-01
112  1.1100000000000D+00  4.1803918333953D-01  7.7993353373462D-01
113  1.1200000000000D+00  4.9449313485935D-01  7.2534173268572D-01
114  1.1300000000000D+00  5.7464489611066D-01  6.6858289288530D-01
115  1.1400000000000D+00  6.5790192889701D-01  6.0994909408376D-01
116  1.1500000000000D+00  7.4363036218210D-01  5.4975273744164D-01
117  1.1600000000000D+00  8.3116076222795D-01  4.8832388629198D-01
118  1.1700000000000D+00  9.1979433321809D-01  4.2600740241292D-01
119  1.1800000000000D+00  1.0088094879239D+00  3.6315990558685D-01
120  1.1900000000000D+00  1.0974687243667D+00  3.0014658592037D-01
121  1.2000000000000D+00  1.1850257406257D+00  2.3733790019513D-01
122  1.2100000000000D+00  1.2707327173203D+00  1.7510618475664D-01
123  1.2200000000000D+00  1.3538476937717D+00  1.1382221912799D-01
124  1.2300000000000D+00  1.4336419635737D+00  5.3851774694412D-02
125  1.2400000000000D+00  1.5094074139438D+00 -4.4478165475469D-03
126  1.2500000000000D+00  1.5804637327463D+00 -6.0731037905825D-02
127  1.2600000000000D+00  1.6461654091384D+00 -1.1466747422593D-01
128  1.2700000000000D+00  1.7059084539907D+00 -1.6594497416938D-01
129  1.2800000000000D+00  1.7591367686332D+00 -2.1427265532752D-01
130  1.2900000000000D+00  1.8053480958302D+00 -2.5938372140250D-01
131  1.3000000000000D+00  1.8440994870913D+00 -3.0103806077545D-01
132  1.3100000000000D+00  1.8750122265494D+00 -3.3902459856688D-01
133  1.3200000000000D+00  1.8977761604725D+00 -3.7316337835225D-01
134  1.3300000000000D+00  1.9121533787183D+00 -4.0330734842577D-01
135  1.3400000000000D+00  1.9179812080927D+00 -4.2934383376558D-01
136  1.3500000000000D+00  1.9151744862124D+00 -4.5119567884122D-01
137  1.3600000000000D+00  1.9037270772930D+00 -4.6882204308761D-01
138  1.3700000000000D+00  1.8837126193392D+00 -4.8221884379243D-01
139  1.3800000000000D+00  1.8552844852911D+00 -4.9141883796349D-01
140  1.3900000000000D+00  1.8186749480600D+00 -4.9649133813106D-01
141  1.4000000000000D+00  1.7741935643278D+00 -4.9754156856343D-01
142  1.4100000000000D+00  1.7222247733399D+00 -4.9470965976019D-01
143  1.4200000000000D+00  1.6632247398457D+00 -4.8816929429454D-01
144  1.4300000000000D+00  1.5977174664654D+00 -4.7812601529978D-01
145  1.4400000000000D+00  1.5262902003557D+00 -4.6481520868885D-01
146  1.4500000000000D+00  1.4495881921959D+00 -4.4849978555610D-01
147  1.4600000000000D+00  1.3683088363088D+00 -4.2946757767449D-01
148  1.4700000000000D+00  1.2831952625702D+00 -4.0802847839065D-01
149  1.4800000000000D+00  1.1950294312637D+00 -3.8451135219457D-01
150  1.4900000000000D+00  1.1046247972229D+00 -3.5926074326155D-01
151  1.5000000000000D+00  1.0128186193831D+00 -3.3263341785198D-01
152  1.5100000000000D+00  9.2046397906295D-01 -3.0499476944978D-01
153  1.5200000000000D+00  8.2842159575836D-01 -2.7671512744497D-01
154  1.5300000000000D+00  7.3755150929622D-01 -2.4816600080970D-01
155  1.5400000000000D+00  6.4870471695929D-01 -2.1971629751988D-01
156  1.5500000000000D+00  5.6271484134098D-01 -1.9172855443349D-01
157  1.5600000000000D+00  4.8038991270525D-01 -1.6455521695311D-01
158  1.5700000000000D+00  4.0250435664018D-01 -1.3853500483038D-01
159  1.5800000000000D+00  3.2979120951200D-01 -1.1398939477075D-01
160  1.5900000000000D+00  2.6293482214463D-01 -9.1219279507821D-02
161  1.6000000000000D+00  2.0256379684119D-01 -7.0501788556570D-02
162  1.6100000000000D+00  1.4924468361263D-01 -5.2087466319907D-02
163  1.6200000000000D+00  1.0351215428728D-01 -3.6210084912668D-02
164  1.6300000000000D+00  6.5656618119109D-02 -2.3011383887108D-02
165  1.6400000000000D+00  3.5977758498219D-02 -1.2629379265128D-02
166  1.6500000000000D+00  1.5450624626427D-02 -5.4323815584209D-03
167  1.6600000000000D+00  4.0998912252353D-03 -1.4467427125206D-03
168  1.6700000000000D+00 -3.4310279390182D-04  1.1622484273330D-04
169  1.6800000000000D+00 -7.6280320949691D-04  2.6649916825887D-04
170  1.6900000000000D+00  7.6678504263454D-05 -2.6816900461391D-05
171  1.7000000000000D+00  2.5966705970831D-04 -9.0907507922520D-05
172  1.7100000000000D+00 -1.0311465380118D-05  3.5969070156555D-06
173  1.7200000000000D+00 -4.8754331964329D-05  1.7014918025121D-05
174  1.7300000000000D+00  7.2490962570677D-09 -9.9246465223834D-10
175  1.7400000000000D+00  6.2221400127866D-08 -8.5186536431322D-09
176  1.7500000000000D+00  1.0237490746486D-09 -1.4016019836401D-10
177  1.7600000000000D+00  0.0000000000000D+00  0.0000000000000D+00
178  1.7700000000000D+00  0.0000000000000D+00  0.0000000000000D+00
179  1.7800000000000D+00  0.0000000000000D+00  0.0000000000000D+00
180  1.7900000000000D+00  0.0000000000000D+00  0.0000000000000D+00
181  1.8000000000000D+00  0.0000000000000D+00  0.0000000000000D+00
182  1.8100000000000D+00  0.0000000000000D+00  0.0000000000000D+00
183  1.8200000000000D+00  0.0000000000000D+00  0.0000000000000D+00
184  1.8300000000000D+00  0.0000000000000D+00  0.0000000000000D+00
185  1.8400000000000D+00  0.0000000000000D+00  0.0000000000000D+00
186  1.8500000000000D+00  0.0000000000000D+00  0.0000000000000D+00
187  1.8600000000000D+00  0.0000000000000D+00  0.0000000000000D+00
188  1.8700000000000D+00  0.0000000000000D+00  0.0000000000000D+00
189  1.8800000000000D+00  0.0000000000000D+00  0.0000000000000D+00
190  1.8900000000000D+00  0.0000000000000D+00  0.0000000000000D+00
191  1.9000000000000D+00  0.0000000000000D+00  0.0000000000000D+00
192  1.9100000000000D+00  0.0000000000000D+00  0.0000000000000D+00
193  1.9200000000000D+00  0.0000000000000D+00  0.0000000000000D+00
194  1.9300000000000D+00  0.0000000000000D+00  0.0000000000000D+00
195  1.9400000000000D+00  0.0000000000000D+00  0.0000000000000D+00
196  1.9500000000000D+00  0.0000000000000D+00  0.0000000000000D+00
197  1.9600000000000D+00  0.0000000000000D+00  0.0000000000000D+00
198  1.9700000000000D+00  0.0000000000000D+00  0.0000000000000D+00
199  1.9800000000000D+00  0.0000000000000D+00  0.0000000000000D+00
200  1.9900000000000D+00  0.0000000000000D+00  0.0000000000000D+00
201  2.0000000000000D+00  0.0000000000000D+00  0.0000000000000D+00
202  2.0100000000000D+00  0.0000000000000D+00  0.0000000000000D+00
203  2.0200000000000D+00  0.0000000000000D+00  0.0000000000000D+00
204  2.0300000000000D+00  0.0000000000000D+00  0.0000000000000D+00
205  2.0400000000000D+00  0.0000000000000D+00  0.0000000000000D+00
206  2.0500000000000D+00  0.0000000000000D+00  0.0000000000000D+00
207  2.0600000000000D+00  0.0000000000000D+00  0.0000000000000D+00
208  2.0700000000000D+00  0.0000000000000D+00  0.0000000000000D+00
209  2.0800000000000D+00  0.0000000000000D+00  0.0000000000000D+00
210  2.0900000000000D+00  0.0000000000000D+00  0.0000000000000D+00
211  2.1000000000000D+00  0.0000000000000D+00  0.0000000000000D+00
212  2.1100000000000D+00  0.0000000000000D+00  0.0000000000000D+00
213  2.1200000000000D+00  0.0000000000000D+00  0.0000000000000D+00
214  2.1300000000000D+00  0.0000000000000D+00  0.0000000000000D+00
215  2.1400000000000D+00  0.0000000000000D+00  0.0000000000000D+00
216  2.1500000000000D+00  0.0000000000000D+00  0.0000000000000D+00
217  2.1600000000000D+00  0.0000000000000D+00  0.0000000000000D+00
218  2.1700000000000D+00  0.0000000000000D+00  0.0000000000000D+00
219  2.1800000000000D+00  0.0000000000000D+00  0.0000000000000D+00
220  2.1900000000000D+00  0.0000000000000D+00  0.0000000000000D+00
221  2.2000000000000D+00  0.0000000000000D+00  0.0000000000000D+00
222  2.2100000000000D+00  0.0000000000000D+00  0.0000000000000D+00
223  2.2200000000000D+00  0.0000000000000D+00  0.0000000000000D+00
224  2.2300000000000D+00  0.0000000000000D+00  0.0000000000000D+00
225  2.2400000000000D+00  0.0000000000000D+00  0.0000000000000D+00
226  2.2500000000000D+00  0.0000000000000D+00  0.0000000000000D+00
227  2.2600000000000D+00  0.0000000000000D+00  0.0000000000000D+00
228  2.2700000000000D+00  0.0000000000000D+00  0.0000000000000D+00
229  2.2800000000000D+00  0.0000000000000D+00  0.0000000000000D+00
230  2.2900000000000D+00  0.0000000000000D+00  0.0000000000000D+00
231  2.3000000000000D+00  0.0000000000000D+00  0.0000000000000D+00
232  2.3100000000000D+00  0.0000000000000D+00  0.0000000000000D+00
233  2.3200000000000D+00  0.0000000000000D+00  0.0000000000000D+00
234  2.3300000000000D+00  0.0000000000000D+00  0.0000000000000D+00
235  2.3400000000000D+00  0.0000000000000D+00  0.0000000000000D+00
236  2.3500000000000D+00  0.0000000000000D+00  0.0000000000000D+00
237  2.3600000000000D+00  0.0000000000000D+00  0.0000000000000D+00
238  2.3700000000000D+00  0.0000000000000D+00  0.0000000000000D+00
239  2.3800000000000D+00  0.0000000000000D+00  0.0000000000000D+00
240  2.3900000000000D+00  0.0000000000000D+00  0.0000000000000D+00
241  2.4000000000000D+00  0.0000000000000D+00  0.0000000000000D+00
242  2.4100000000000D+00  0.0000000000000D+00  0.0000000000000D+00
243  2.4200000000000D+00  0.0000000000000D+00  0.0000000000000D+00
244  2.4300000000000D+00  0.0000000000000D+00  0.0000000000000D+00
245  2.4400000000000D+00  0.0000000000000D+00  0.0000000000000D+00
246  2.4500000000000D+00  0.0000000000000D+00  0.0000000000000D+00
247  2.4600000000000D+00  0.0000000000000D+00  0.0000000000000D+00
248  2.4700000000000D+00  0.0000000000000D+00  0.0000000000000D+00
249  2.4800000000000D+00  0.0000000000000D+00  0.0000000000000D+00
250  2.4900000000000D+00  0.0000000000000D+00  0.0000000000000D+00
251  2.5000000000000D+00  0.0000000000000D+00  0.0000000000000D+00
252  2.5100000000000D+00  0.0000000000000D+00  0.0000000000000D+00
253  2.5200000000000D+00  0.0000000000000D+00  0.0000000000000D+00
254  2.5300000000000D+00  0.0000000000000D+00  0.0000000000000D+00
255  2.5400000000000D+00  0.0000000000000D+00  0.0000000000000D+00
256  2.5500000000000D+00  0.0000000000000D+00  0.0000000000000D+00
257  2.5600000000000D+00  0.0000000000000D+00  0.0000000000000D+00
258  2.5700000000000D+00  0.0000000000000D+00  0.0000000000000D+00
259  2.5800000000000D+00  0.0000000000000D+00  0.0000000000000D+00
260  2.5900000000000D+00  0.0000000000000D+00  0.0000000000000D+00
261  2.6000000000000D+00  0.0000000000000D+00  0.0000000000000D+00
262  2.6100000000000D+00  0.0000000000000D+00  0.0000000000000D+00
263  2.6200000000000D+00  0.0000000000000D+00  0.0000000000000D+00
264  2.6300000000000D+00  0.0000000000000D+00  0.0000000000000D+00
265  2.6400000000000D+00  0.0000000000000D+00  0.0000000000000D+00
266  2.6500000000000D+00  0.0000000000000D+00  0.0000000000000D+00
267  2.6600000000000D+00  0.0000000000000D+00  0.0000000000000D+00
268  2.6700000000000D+00  0.0000000000000D+00  0.0000000000000D+00
269  2.6800000000000D+00  0.0000000000000D+00  0.0000000000000D+00
270  2.6900000000000D+00  0.0000000000000D+00  0.0000000000000D+00
271  2.7000000000000D+00  0.0000000000000D+00  0.0000000000000D+00
272  2.7100000000000D+00  0.0000000000000D+00  0.0000000000000D+00
273  2.7200000000000D+00  0.0000000000000D+00  0.0000000000000D+00
274  2.7300000000000D+00  0.0000000000000D+00  0.0000000000000D+00
275  2.7400000000000D+00  0.0000000000000D+00  0.0000000000000D+00
276  2.7500000000000D+00  0.0000000000000D+00  0.0000000000000D+00
277  2.7600000000000D+00  0.0000000000000D+00  0.0000000000000D+00
278  2.7700000000000D+00  0.0000000000000D+00  0.0000000000000D+00
279  2.7800000000000D+00  0.0000000000000D+00  0.0000000000000D+00
280  2.7900000000000D+00  0.0000000000000D+00  0.0000000000000D+00
281  2.8000000000000D+00  0.0000000000000D+00  0.0000000000000D+00
282  2.8100000000000D+00  0.0000000000000D+00  0.0000000000000D+00
283  2.8200000000000D+00  0.0000000000000D+00  0.0000000000000D+00
284  2.8300000000000D+00  0.0000000000000D+00  0.0000000000000D+00
285  2.8400000000000D+00  0.0000000000000D+00  0.0000000000000D+00
286  2.8500000000000D+00  0.0000000000000D+00  0.0000000000000D+00
287  2.8600000000000D+00  0.0000000000000D+00  0.0000000000000D+00
288  2.8700000000000D+00  0.0000000000000D+00  0.0000000000000D+00
289  2.8800000000000D+00  0.0000000000000D+00  0.0000000000000D+00
290  2.8900000000000D+00  0.0000000000000D+00  0.0000000000000D+00
291  2.9000000000000D+00  0.0000000000000D+00  0.0000000000000D+00
292  2.9100000000000D+00  0.0000000000000D+00  0.0000000000000D+00
293  2.9200000000000D+00  0.0000000000000D+00  0.0000000000000D+00
294  2.9300000000000D+00  0.0000000000000D+00  0.0000000000000D+00
295  2.9400000000000D+00  0.0000000000000D+00  0.0000000000000D+00
296  2.9500000000000D+00  0.0000000000000D+00  0.0000000000000D+00
297  2.9600000000000D+00  0.0000000000000D+00  0.0000000000000D+00
298  2.9700000000000D+00  0.0000000000000D+00  0.0000000000000D+00
299  2.9800000000000D+00  0.0000000000000D+00  0.0000000000000D+00
300  2.9900000000000D+00  0.0000000000000D+00  0.0000000000000D+00
301  3.0000000000000D+00  0.0000000000000D+00  0.0000000000000D+00
302  3.0100000000000D+00  0.0000000000000D+00  0.0000000000000D+00
303  3.0200000000000D+00  0.0000000000000D+00  0.0000000000000D+00
304  3.0300000000000D+00  0.0000000000000D+00  0.0000000000000D+00
305  3.0400000000000D+00  0.0000000000000D+00  0.0000000000000D+00
306  3.0500000000000D+00  0.0000000000000D+00  0.0000000000000D+00
307  3.0600000000000D+00  0.0000000000000D+00  0.0000000000000D+00
308  3.0700000000000D+00  0.0000000000000D+00  0.0000000000000D+00
309  3.0800000000000D+00  0.0000000000000D+00  0.0000000000000D+00
310  3.0900000000000D+00  0.0000000000000D+00  0.0000000000000D+00
311  3.1000000000000D+00  0.0000000000000D+00  0.0000000000000D+00
312  3.1100000000000D+00  0.0000000000000D+00  0.0000000000000D+00
313  3.1200000000000D+00  0.0000000000000D+00  0.0000000000000D+00
314  3.1300000000000D+00  0.0000000000000D+00  0.0000000000000D+00
315  3.1400000000000D+00  0.0000000000000D+00  0.0000000000000D+00
316  3.1500000000000D+00  0.0000000000000D+00  0.0000000000000D+00
317  3.1600000000000D+00  0.0000000000000D+00  0.0000000000000D+00
318  3.1700000000000D+00  0.0000000000000D+00  0.0000000000000D+00
319  3.1800000000000D+00  0.0000000000000D+00  0.0000000000000D+00
320  3.1900000000000D+00  0.0000000000000D+00  0.0000000000000D+00
321  3.2000000000000D+00  0.0000000000000D+00  0.0000000000000D+00
322  3.2100000000000D+00  0.0000000000000D+00  0.0000000000000D+00
323  3.2200000000000D+00  0.0000000000000D+00  0.0000000000000D+00
324  3.2300000000000D+00  0.0000000000000D+00  0.0000000000000D+00
325  3.2400000000000D+00  0.0000000000000D+00  0.0000000000000D+00
326  3.2500000000000D+00  0.0000000000000D+00  0.0000000000000D+00
327  3.2600000000000D+00  0.0000000000000D+00  0.0000000000000D+00
328  3.2700000000000D+00  0.0000000000000D+00  0.0000000000000D+00
329  3.2800000000000D+00  0.0000000000000D+00  0.0000000000000D+00
330  3.2900000000000D+00  0.0000000000000D+00  0.0000000000000D+00
331  3.3000000000000D+00  0.0000000000000D+00  0.0000000000000D+00
332  3.3100000000000D+00  0.0000000000000D+00  0.0000000000000D+00
333  3.3200000000000D+00  0.0000000000000D+00  0.0000000000000D+00
334  3.3300000000000D+00  0.0000000000000D+00  0.0000000000000D+00
335  3.3400000000000D+00  0.0000000000000D+00  0.0000000000000D+00
336  3.3500000000000D+00  0.0000000000000D+00  0.0000000000000D+00
337  3.3600000000000D+00  0.0000000000000D+00  0.0000000000000D+00
338  3.3700000000000D+00  0.0000000000000D+00  0.0000000000000D+00
339  3.3800000000000D+00  0.0000000000000D+00  0.0000000000000D+00
340  3.3900000000000D+00  0.0000000000000D+00  0.0000000000000D+00
341  3.4000000000000D+00  0.0000000000000D+00  0.0000000000000D+00
342  3.4100000000000D+00  0.0000000000000D+00  0.0000000000000D+00
343  3.4200000000000D+00  0.0000000000000D+00  0.0000000000000D+00
344  3.4300000000000D+00  0.0000000000000D+00  0.0000000000000D+00
345  3.4400000000000D+00  0.0000000000000D+00  0.0000000000000D+00
346  3.4500000000000D+00  0.0000000000000D+00  0.0000000000000D+00
347  3.4600000000000D+00  0.0000000000000D+00  0.0000000000000D+00
348  3.4700000000000D+00  0.0000000000000D+00  0.0000000000000D+00
349  3.4800000000000D+00  0.0000000000000D+00  0.0000000000000D+00
350  3.4900000000000D+00  0.0000000000000D+00  0.0000000000000D+00
351  3.5000000000000D+00  0.0000000000000D+00  0.0000000000000D+00
352  3.5100000000000D+00  0.0000000000000D+00  0.0000000000000D+00
353  3.5200000000000D+00  0.0000000000000D+00  0.0000000000000D+00
354  3.5300000000000D+00  0.0000000000000D+00  0.0000000000000D+00
355  3.5400000000000D+00  0.0000000000000D+00  0.0000000000000D+00
356  3.5500000000000D+00  0.0000000000000D+00  0.0000000000000D+00
357  3.5600000000000D+00  0.0000000000000D+00  0.0000000000000D+00
358  3.5700000000000D+00  0.0000000000000D+00  0.0000000000000D+00
359  3.5800000000000D+00  0.0000000000000D+00  0.0000000000000D+00
360  3.5900000000000D+00  0.0000000000000D+00  0.0000000000000D+00
361  3.6000000000000D+00  0.0000000000000D+00  0.0000000000000D+00
362  3.6100000000000D+00  0.0000000000000D+00  0.0000000000000D+00
363  3.6200000000000D+00  0.0000000000000D+00  0.0000000000000D+00
364  3.6300000000000D+00  0.0000000000000D+00  0.0000000000000D+00
365  3.6400000000000D+00  0.0000000000000D+00  0.0000000000000D+00
366  3.6500000000000D+00  0.0000000000000D+00  0.0000000000000D+00
367  3.6600000000000D+00  0.0000000000000D+00  0.0000000000000D+00
368  3.6700000000000D+00  0.0000000000000D+00  0.0000000000000D+00
369  3.6800000000000D+00  0.0000000000000D+00  0.0000000000000D+00
370  3.6900000000000D+00  0.0000000000000D+00  0.0000000000000D+00
371  3.7000000000000D+00  0.0000000000000D+00  0.0000000000000D+00
372  3.7100000000000D+00  0.0000000000000D+00  0.0000000000000D+00
373  3.7200000000000D+00  0.0000000000000D+00  0.0000000000000D+00
374  3.7300000000000D+00  0.0000000000000D+00  0.0000000000000D+00
375  3.7400000000000D+00  0.0000000000000D+00  0.0000000000000D+00
376  3.7500000000000D+00  0.0000000000000D+00  0.0000000000000D+00
377  3.7600000000000D+00  0.0000000000000D+00  0.0000000000000D+00
378  3.7700000000000D+00  0.0000000000000D+00  0.0000000000000D+00
379  3.7800000000000D+00  0.0000000000000D+00  0.0000000000000D+00
380  3.7900000000000D+00  0.0000000000000D+00  0.0000000000000D+00
381  3.8000000000000D+00  0.0000000000000D+00  0.0000000000000D+00
382  3.8100000000000D+00  0.0000000000000D+00  0.0000000000000D+00
383  3.8200000000000D+00  0.0000000000000D+00  0.0000000000000D+00
384  3.8300000000000D+00  0.0000000000000D+00  0.0000000000000D+00
385  3.8400000000000D+00  0.0000000000000D+00  0.0000000000000D+00
386  3.8500000000000D+00  0.0000000000000D+00  0.0000000000000D+00
387  3.8600000000000D+00  0.0000000000000D+00  0.0000000000000D+00
388  3.8700000000000D+00  0.0000000000000D+00  0.0000000000000D+00
389  3.8800000000000D+00  0.0000000000000D+00  0.0000000000000D+00
390  3.8900000000000D+00  0.0000000000000D+00  0.0000000000000D+00
391  3.9000000000000D+00  0.0000000000000D+00  0.0000000000000D+00
392  3.9100000000000D+00  0.0000000000000D+00  0.0000000000000D+00
393  3.9200000000000D+00  0.0000000000000D+00  0.0000000000000D+00
394  3.9300000000000D+00  0.0000000000000D+00  0.0000000000000D+00
395  3.9400000000000D+00  0.0000000000000D+00  0.0000000000000D+00
396  3.9500000000000D+00  0.0000000000000D+00  0.0000000000000D+00
397  3.9600000000000D+00  0.0000000000000D+00  0.0000000000000D+00
398  3.9700000000000D+00  0.0000000000000D+00  0.0000000000000D+00
399  3.9800000000000D+00  0.0000000000000D+00  0.0000000000000D+00
400  3.9900000000000D+00  0.0000000000000D+00  0.0000000000000D+00
401  4.0000000000000D+00  0.0000000000000D+00  0.0000000000000D+00
402  4.0100000000000D+00  0.0000000000000D+00  0.0000000000000D+00
403  4.0200000000000D+00  0.0000000000000D+00  0.0000000000000D+00
404  4.0300000000000D+00  0.0000000000000D+00  0.0000000000000D+00
405  4.0400000000000D+00  0.0000000000000D+00  0.0000000000000D+00
406  4.0500000000000D+00  0.0000000000000D+00  0.0000000000000D+00
407  4.0600000000000D+00  0.0000000000000D+00  0.0000000000000D+00
408  4.0700000000000D+00  0.0000000000000D+00  0.0000000000000D+00
409  4.0800000000000D+00  0.0000000000000D+00  0.0000000000000D+00
410  4.0900000000000D+00  0.0000000000000D+00  0.0000000000000D+00
411  4.1000000000000D+00  0.0000000000000D+00  0.0000000000000D+00
412  4.1100000000000D+00  0.0000000000000D+00  0.0000000000000D+00
413  4.1200000000000D+00  0.0000000000000D+00  0.0000000000000D+00
414  4.1300000000000D+00  0.0000000000000D+00  0.0000000000000D+00
415  4.1400000000000D+00  0.0000000000000D+00  0.0000000000000D+00
416  4.1500000000000D+00  0.0000000000000D+00  0.0000000000000D+00
417  4.1600000000000D+00  0.0000000000000D+00  0.0000000000000D+00
418  4.1700000000000D+00  0.0000000000000D+00  0.0000000000000D+00
419  4.1800000000000D+00  0.0000000000000D+00  0.0000000000000D+00
420  4.1900000000000D+00  0.0000000000000D+00  0.0000000000000D+00
421  4.2000000000000D+00  0.0000000000000D+00  0.0000000000000D+00
422  4.2100000000000D+00  0.0000000000000D+00  0.0000000000000D+00
423  4.2200000000000D+00  0.0000000000000D+00  0.0000000000000D+00
424  4.2300000000000D+00  0.0000000000000D+00  0.0000000000000D+00
425  4.2400000000000D+00  0.0000000000000D+00  0.0000000000000D+00
426  4.2500000000000D+00  0.0000000000000D+00  0.0000000000000D+00
427  4.2600000000000D+00  0.0000000000000D+00  0.0000000000000D+00
428  4.2700000000000D+00  0.0000000000000D+00  0.0000000000000D+00
429  4.2800000000000D+00  0.0000000000000D+00  0.0000000000000D+00
430  4.2900000000000D+00  0.0000000000000D+00  0.0000000000000D+00
431  4.3000000000000D+00  0.0000000000000D+00  0.0000000000000D+00
432  4.3100000000000D+00  0.0000000000000D+00  0.0000000000000D+00
433  4.3200000000000D+00  0.0000000000000D+00  0.0000000000000D+00
434  4.3300000000000D+00  0.0000000000000D+00  0.0000000000000D+00
435  4.3400000000000D+00  0.0000000000000D+00  0.0000000000000D+00
436  4.3500000000000D+00  0.0000000000000D+00  0.0000000000000D+00
437  4.3600000000000D+00  0.0000000000000D+00  0.0000000000000D+00
438  4.3700000000000D+00  0.0000000000000D+00  0.0000000000000D+00
439  4.3800000000000D+00  0.0000000000000D+00  0.0000000000000D+00
440  4.3900000000000D+00  0.0000000000000D+00  0.0000000000000D+00
441  4.4000000000000D+00  0.0000000000000D+00  0.0000000000000D+00
442  4.4100000000000D+00  0.0000000000000D+00  0.0000000000000D+00
443  4.4200000000000D+00  0.0000000000000D+00  0.0000000000000D+00