Ga    ONCVPSP  r_core=  1.31  1.41  1.61
31.0000     21.0000      160910    zatom,zion,pspd
8      11   2     4   600     0    pspcod,pspxc,lmax,lloc,mmax,r2well
5.99000000  5.00000000  0.00000000    rchrg fchrg qchrg
2     2     2     0     0    nproj
1                 extension_switch
0                         4.1114221590922D+00 -1.1757747918546D+00
1  0.0000000000000D+00  3.0641933435049D-11  8.3622275770523D-11
2  1.0000000000000D-02  1.0730359203264D-01  2.8881444483800D-02
3  2.0000000000000D-02  2.1416609252252D-01  5.7781592730683D-02
4  3.0000000000000D-02  3.2014828408545D-01  8.6718842195770D-02
5  4.0000000000000D-02  4.2481469131304D-01  1.1571098024451D-01
6  5.0000000000000D-02  5.2773543589778D-01  1.4477488540210D-01
7  6.0000000000000D-02  6.2848807269828D-01  1.7392623609634D-01
8  7.0000000000000D-02  7.2665940035147D-01  2.0317922929290D-01
9  8.0000000000000D-02  8.2184724000827D-01  2.3254631133830D-01
10  9.0000000000000D-02  9.1366217573507D-01  2.6203792322291D-01
11  1.0000000000000D-01  1.0017292500881D+00  2.9166226235447D-01
12  1.1000000000000D-01  1.0856896083349D+00  3.2142506279368D-01
13  1.2000000000000D-01  1.1652020847705D+00  3.5132939574774D-01
14  1.3000000000000D-01  1.2399447245564D+00  3.8137549194771D-01
15  1.4000000000000D-01  1.3096162345081D+00  4.1156058735181D-01
16  1.5000000000000D-01  1.3739373562702D+00  4.4187879342157D-01
17  1.6000000000000D-01  1.4326521553515D+00  4.7232099301240D-01
18  1.7000000000000D-01  1.4855292195581D+00  5.0287476270675D-01
19  1.8000000000000D-01  1.5323627604553D+00  5.3352432219846D-01
20  1.9000000000000D-01  1.5729736116159D+00  5.6425051111296D-01
21  2.0000000000000D-01  1.6072101175857D+00  5.9503079342155D-01
22  2.1000000000000D-01  1.6349489077058D+00  6.2583928938176D-01
23  2.2000000000000D-01  1.6560955491941D+00  6.5664683471076D-01
24  2.3000000000000D-01  1.6705850741967D+00  6.8742106647762D-01
25  2.4000000000000D-01  1.6783823758865D+00  7.1812653498481D-01
26  2.5000000000000D-01  1.6794824691026D+00  7.4872484070127D-01
27  2.6000000000000D-01  1.6739106115024D+00  7.7917479511063D-01
28  2.7000000000000D-01  1.6617222817325D+00  8.0943260415071D-01
29  2.8000000000000D-01  1.6430030117144D+00  8.3945207274516D-01
30  2.9000000000000D-01  1.6178680707951D+00  8.6918482876756D-01
31  3.0000000000000D-01  1.5864620002130D+00  8.9858056463296D-01
32  3.1000000000000D-01  1.5489579970939D+00  9.2758729458295D-01
33  3.2000000000000D-01  1.5055571479991D+00  9.5615162562003D-01
34  3.3000000000000D-01  1.4564875129060D+00  9.8421903995439D-01
35  3.4000000000000D-01  1.4020030614001D+00  1.0117341867536D+00
36  3.5000000000000D-01  1.3423824637938D+00  1.0386411809330D+00
37  3.6000000000000D-01  1.2779277408518D+00  1.0648839066905D+00
38  3.7000000000000D-01  1.2089627767932D+00  1.0904063234793D+00
39  3.8000000000000D-01  1.1358317012419D+00  1.1151527721168D+00
40  3.9000000000000D-01  1.0588971468101D+00  1.1390682787588D+00
41  4.0000000000000D-01  9.7853839000498D-01  1.1620988545118D+00
42  4.1000000000000D-01  8.9514938414736D-01  1.1841917885262D+00
43  4.2000000000000D-01  8.0913669396246D-01  1.2052959324936D+00
44  4.3000000000000D-01  7.2091734244852D-01  1.2253619745759D+00
45  4.4000000000000D-01  6.3091658152583D-01  1.2443427009089D+00
46  4.5000000000000D-01  5.3956559881774D-01  1.2621932429564D+00
47  4.6000000000000D-01  4.4729917369750D-01  1.2788713091349D+00
48  4.7000000000000D-01  3.5455329644614D-01  1.2943373992874D+00
49  4.8000000000000D-01  2.6176276499225D-01  1.3085550007510D+00
50  4.9000000000000D-01  1.6935877423906D-01  1.3214907649368D+00
51  5.0000000000000D-01  7.7766513416070D-02  1.3331146635267D+00
52  5.1000000000000D-01 -1.2597212785952D-02  1.3434001235735D+00
53  5.2000000000000D-01 -1.0132632333283D-01  1.3523241409836D+00
54  5.3000000000000D-01 -1.8802774417391D-01  1.3598673720507D+00
55  5.4000000000000D-01 -2.7232361978306D-01  1.3660142028987D+00
56  5.5000000000000D-01 -3.5385343710189D-01  1.3707527968788D+00
57  5.6000000000000D-01 -4.3227604639225D-01  1.3740751201482D+00
58  5.7000000000000D-01 -5.0727156396507D-01  1.3759769458337D+00
59  5.8000000000000D-01 -5.7854314234723D-01  1.3764578373515D+00
60  5.9000000000000D-01 -6.4581859418752D-01  1.3755211116141D+00
61  6.0000000000000D-01 -7.0885185706875D-01  1.3731737830020D+00
62  6.1000000000000D-01 -7.6742428740095D-01  1.3694264891142D+00
63  6.2000000000000D-01 -8.2134577269404D-01  1.3642933994347D+00
64  6.3000000000000D-01 -8.7045565275842D-01  1.3577921081597D+00
65  6.4000000000000D-01 -9.1462344174161D-01  1.3499435125241D+00
66  6.5000000000000D-01 -9.5374934436105D-01  1.3407716780440D+00
67  6.6000000000000D-01 -9.8776456124907D-01  1.3303036921529D+00
68  6.7000000000000D-01 -1.0166313799477D+00  1.3185695077560D+00
69  6.8000000000000D-01 -1.0403430497753D+00  1.3056017782544D+00
70  6.9000000000000D-01 -1.0589234405302D+00  1.2914356856059D+00
71  7.0000000000000D-01 -1.0724264867629D+00  1.2761087629841D+00
72  7.1000000000000D-01 -1.0809354211363D+00  1.2596607135793D+00
73  7.2000000000000D-01 -1.0845618021741D+00  1.2421332270524D+00
74  7.3000000000000D-01 -1.0834443434740D+00  1.2235697951037D+00
75  7.4000000000000D-01 -1.0777475531881D+00  1.2040155275581D+00
76  7.5000000000000D-01 -1.0676601942556D+00  1.1835169702967D+00
77  7.6000000000000D-01 -1.0533935774793D+00  1.1621219262794D+00
78  7.7000000000000D-01 -1.0351797010606D+00  1.1398792808105D+00
79  7.8000000000000D-01 -1.0132692516193D+00  1.1168388320987D+00
80  7.9000000000000D-01 -9.8792948302287D-01  1.0930511280532D+00
81  8.0000000000000D-01 -9.5944199050791D-01  1.0685673101456D+00
82  8.1000000000000D-01 -9.2810039858514D-01  1.0434389650505D+00
83  8.2000000000000D-01 -8.9420798206604D-01  1.0177179846556D+00
84  8.3000000000000D-01 -8.5807524022356D-01  9.9145643491820D-01
85  8.4000000000000D-01 -8.2001744458884D-01  9.6470643391864D-01
86  8.5000000000000D-01 -7.8035218118541D-01  9.3752003935232D-01
87  8.6000000000000D-01 -7.3939690810527D-01  9.0994914558330D-01
88  8.7000000000000D-01 -6.9746654923334D-01  8.8204539027832D-01
89  8.8000000000000D-01 -6.5487114462645D-01  8.5386007053730D-01
90  8.9000000000000D-01 -6.1191357755122D-01  8.2544406834284D-01
91  9.0000000000000D-01 -5.6888739748306D-01  7.9684778506539D-01
92  9.1000000000000D-01 -5.2607475747255D-01  7.6812108468425D-01
93  9.2000000000000D-01 -4.8374448320075D-01  7.3931324531806D-01
94  9.3000000000000D-01 -4.4215028978207D-01  7.1047291860189D-01
95  9.4000000000000D-01 -4.0152916094502D-01  6.8164809640245D-01
96  9.5000000000000D-01 -3.6209990361673D-01  6.5288608432844D-01
97  9.6000000000000D-01 -3.2406188925619D-01  6.2423348146902D-01
98  9.7000000000000D-01 -2.8759399137540D-01  5.9573616578065D-01
99  9.8000000000000D-01 -2.5285372677292D-01  5.6743928453992D-01
100  9.9000000000000D-01 -2.1997660594927D-01  5.3938724928785D-01
101  1.0000000000000D+00 -1.8907569607072D-01  5.1162373470827D-01
102  1.0100000000000D+00 -1.6024139770484D-01  4.8419168090865D-01
103  1.0200000000000D+00 -1.3354143435279D-01  4.5713329860633D-01
104  1.0300000000000D+00 -1.0902105168423D-01  4.3049007676317D-01
105  1.0400000000000D+00 -8.6703421216725D-02  4.0430279225830D-01
106  1.0500000000000D+00 -6.6590241046481D-02  3.7861152124177D-01
107  1.0600000000000D+00 -4.8662524267124D-02  3.5345565186570D-01
108  1.0700000000000D+00 -3.2881563746577D-02  3.2887389814800D-01
109  1.0800000000000D+00 -1.9190060083282D-02  3.0490431478399D-01
110  1.0900000000000D+00 -7.5133980148717D-03  2.8158431277419D-01
111  1.1000000000000D+00  2.2389452136344D-03  2.5895067580303D-01
112  1.1100000000000D+00  1.0171877195111D-02  2.3703957735061D-01
113  1.1200000000000D+00  1.6403072390174D-02  2.1588659857624D-01
114  1.1300000000000D+00  2.1061278671951D-02  1.9552674705163D-01
115  1.1400000000000D+00  2.4284569153464D-02  1.7599447647004D-01
116  1.1500000000000D+00  2.6218560542718D-02  1.5732370748735D-01
117  1.1600000000000D+00  2.7014619582554D-02  1.3954784987708D-01
118  1.1700000000000D+00  2.6828081336130D-02  1.2269982716913D-01
119  1.1800000000000D+00  2.5816487166634D-02  1.0681209743987D-01
120  1.1900000000000D+00  2.4137921169374D-02  9.1916697138027D-02
121  1.2000000000000D+00  2.1949196046116D-02  7.8045184549533D-02
122  1.2100000000000D+00  1.9404932213036D-02  6.5228956958938D-02
123  1.2200000000000D+00  1.6654639679935D-02  5.3498576186918D-02
124  1.2300000000000D+00  1.3838058022447D-02  4.2882247008628D-02
125  1.2400000000000D+00  1.1080432946917D-02  3.3404427892214D-02
126  1.2500000000000D+00  8.4901129473917D-03  2.5085517951008D-02
127  1.2600000000000D+00  6.1577832724670D-03  1.7942270577456D-02
128  1.2700000000000D+00  4.1555818931596D-03  1.1988936787604D-02
129  1.2800000000000D+00  2.5352004477494D-03  7.2342850196872D-03
130  1.2900000000000D+00  1.3190668513451D-03  3.6608828908648D-03
131  1.3000000000000D+00  5.4926413889585D-04  1.3498704838300D-03
132  1.3100000000000D+00  2.0606083758336D-04  2.7650764095901D-04
133  1.3200000000000D+00  6.7712901012031D-05 -1.6324448942855D-05
134  1.3300000000000D+00  7.4269501184579D-07 -1.0040419458373D-06
135  1.3400000000000D+00 -5.7930122831586D-06  1.2475739430693D-05
136  1.3500000000000D+00  1.4775045460990D-06 -1.5244958518596D-06
137  1.3600000000000D+00  7.1589964431617D-07 -9.0776250106357D-07
138  1.3700000000000D+00 -3.8443951749727D-07 -2.3931159925114D-07
139  1.3800000000000D+00  0.0000000000000D+00  0.0000000000000D+00
140  1.3900000000000D+00  0.0000000000000D+00  0.0000000000000D+00
141  1.4000000000000D+00  0.0000000000000D+00  0.0000000000000D+00
142  1.4100000000000D+00  0.0000000000000D+00  0.0000000000000D+00
143  1.4200000000000D+00  0.0000000000000D+00  0.0000000000000D+00
144  1.4300000000000D+00  0.0000000000000D+00  0.0000000000000D+00
145  1.4400000000000D+00  0.0000000000000D+00  0.0000000000000D+00
146  1.4500000000000D+00  0.0000000000000D+00  0.0000000000000D+00
147  1.4600000000000D+00  0.0000000000000D+00  0.0000000000000D+00
148  1.4700000000000D+00  0.0000000000000D+00  0.0000000000000D+00
149  1.4800000000000D+00  0.0000000000000D+00  0.0000000000000D+00
150  1.4900000000000D+00  0.0000000000000D+00  0.0000000000000D+00
151  1.5000000000000D+00  0.0000000000000D+00  0.0000000000000D+00
152  1.5100000000000D+00  0.0000000000000D+00  0.0000000000000D+00
153  1.5200000000000D+00  0.0000000000000D+00  0.0000000000000D+00
154  1.5300000000000D+00  0.0000000000000D+00  0.0000000000000D+00
155  1.5400000000000D+00  0.0000000000000D+00  0.0000000000000D+00
156  1.5500000000000D+00  0.0000000000000D+00  0.0000000000000D+00
157  1.5600000000000D+00  0.0000000000000D+00  0.0000000000000D+00
158  1.5700000000000D+00  0.0000000000000D+00  0.0000000000000D+00
159  1.5800000000000D+00  0.0000000000000D+00  0.0000000000000D+00
160  1.5900000000000D+00  0.0000000000000D+00  0.0000000000000D+00
161  1.6000000000000D+00  0.0000000000000D+00  0.0000000000000D+00
162  1.6100000000000D+00  0.0000000000000D+00  0.0000000000000D+00
163  1.6200000000000D+00  0.0000000000000D+00  0.0000000000000D+00
164  1.6300000000000D+00  0.0000000000000D+00  0.0000000000000D+00
165  1.6400000000000D+00  0.0000000000000D+00  0.0000000000000D+00
166  1.6500000000000D+00  0.0000000000000D+00  0.0000000000000D+00
167  1.6600000000000D+00  0.0000000000000D+00  0.0000000000000D+00
168  1.6700000000000D+00  0.0000000000000D+00  0.0000000000000D+00
169  1.6800000000000D+00  0.0000000000000D+00  0.0000000000000D+00
170  1.6900000000000D+00  0.0000000000000D+00  0.0000000000000D+00
171  1.7000000000000D+00  0.0000000000000D+00  0.0000000000000D+00
172  1.7100000000000D+00  0.0000000000000D+00  0.0000000000000D+00
173  1.7200000000000D+00  0.0000000000000D+00  0.0000000000000D+00
174  1.7300000000000D+00  0.0000000000000D+00  0.0000000000000D+00
175  1.7400000000000D+00  0.0000000000000D+00  0.0000000000000D+00
176  1.7500000000000D+00  0.0000000000000D+00  0.0000000000000D+00
177  1.7600000000000D+00  0.0000000000000D+00  0.0000000000000D+00
178  1.7700000000000D+00  0.0000000000000D+00  0.0000000000000D+00
179  1.7800000000000D+00  0.0000000000000D+00  0.0000000000000D+00
180  1.7900000000000D+00  0.0000000000000D+00  0.0000000000000D+00
181  1.8000000000000D+00  0.0000000000000D+00  0.0000000000000D+00
182  1.8100000000000D+00  0.0000000000000D+00  0.0000000000000D+00
183  1.8200000000000D+00  0.0000000000000D+00  0.0000000000000D+00
184  1.8300000000000D+00  0.0000000000000D+00  0.0000000000000D+00
185  1.8400000000000D+00  0.0000000000000D+00  0.0000000000000D+00
186  1.8500000000000D+00  0.0000000000000D+00  0.0000000000000D+00
187  1.8600000000000D+00  0.0000000000000D+00  0.0000000000000D+00
188  1.8700000000000D+00  0.0000000000000D+00  0.0000000000000D+00
189  1.8800000000000D+00  0.0000000000000D+00  0.0000000000000D+00
190  1.8900000000000D+00  0.0000000000000D+00  0.0000000000000D+00
191  1.9000000000000D+00  0.0000000000000D+00  0.0000000000000D+00
192  1.9100000000000D+00  0.0000000000000D+00  0.0000000000000D+00
193  1.9200000000000D+00  0.0000000000000D+00  0.0000000000000D+00
194  1.9300000000000D+00  0.0000000000000D+00  0.0000000000000D+00
195  1.9400000000000D+00  0.0000000000000D+00  0.0000000000000D+00
196  1.9500000000000D+00  0.0000000000000D+00  0.0000000000000D+00
197  1.9600000000000D+00  0.0000000000000D+00  0.0000000000000D+00
198  1.9700000000000D+00  0.0000000000000D+00  0.0000000000000D+00
199  1.9800000000000D+00  0.0000000000000D+00  0.0000000000000D+00
200  1.9900000000000D+00  0.0000000000000D+00  0.0000000000000D+00
201  2.0000000000000D+00  0.0000000000000D+00  0.0000000000000D+00
202  2.0100000000000D+00  0.0000000000000D+00  0.0000000000000D+00
203  2.0200000000000D+00  0.0000000000000D+00  0.0000000000000D+00
204  2.0300000000000D+00  0.0000000000000D+00  0.0000000000000D+00
205  2.0400000000000D+00  0.0000000000000D+00  0.0000000000000D+00
206  2.0500000000000D+00  0.0000000000000D+00  0.0000000000000D+00
207  2.0600000000000D+00  0.0000000000000D+00  0.0000000000000D+00
208  2.0700000000000D+00  0.0000000000000D+00  0.0000000000000D+00
209  2.0800000000000D+00  0.0000000000000D+00  0.0000000000000D+00
210  2.0900000000000D+00  0.0000000000000D+00  0.0000000000000D+00
211  2.1000000000000D+00  0.0000000000000D+00  0.0000000000000D+00
212  2.1100000000000D+00  0.0000000000000D+00  0.0000000000000D+00
213  2.1200000000000D+00  0.0000000000000D+00  0.0000000000000D+00
214  2.1300000000000D+00  0.0000000000000D+00  0.0000000000000D+00
215  2.1400000000000D+00  0.0000000000000D+00  0.0000000000000D+00
216  2.1500000000000D+00  0.0000000000000D+00  0.0000000000000D+00
217  2.1600000000000D+00  0.0000000000000D+00  0.0000000000000D+00
218  2.1700000000000D+00  0.0000000000000D+00  0.0000000000000D+00
219  2.1800000000000D+00  0.0000000000000D+00  0.0000000000000D+00
220  2.1900000000000D+00  0.0000000000000D+00  0.0000000000000D+00
221  2.2000000000000D+00  0.0000000000000D+00  0.0000000000000D+00
222  2.2100000000000D+00  0.0000000000000D+00  0.0000000000000D+00
223  2.2200000000000D+00  0.0000000000000D+00  0.0000000000000D+00
224  2.2300000000000D+00  0.0000000000000D+00  0.0000000000000D+00
225  2.2400000000000D+00  0.0000000000000D+00  0.0000000000000D+00
226  2.2500000000000D+00  0.0000000000000D+00  0.0000000000000D+00
227  2.2600000000000D+00  0.0000000000000D+00  0.0000000000000D+00
228  2.2700000000000D+00  0.0000000000000D+00  0.0000000000000D+00
229  2.2800000000000D+00  0.0000000000000D+00  0.0000000000000D+00
230  2.2900000000000D+00  0.0000000000000D+00  0.0000000000000D+00
231  2.3000000000000D+00  0.0000000000000D+00  0.0000000000000D+00
232  2.3100000000000D+00  0.0000000000000D+00  0.0000000000000D+00
233  2.3200000000000D+00  0.0000000000000D+00  0.0000000000000D+00
234  2.3300000000000D+00  0.0000000000000D+00  0.0000000000000D+00
235  2.3400000000000D+00  0.0000000000000D+00  0.0000000000000D+00
236  2.3500000000000D+00  0.0000000000000D+00  0.0000000000000D+00
237  2.3600000000000D+00  0.0000000000000D+00  0.0000000000000D+00
238  2.3700000000000D+00  0.0000000000000D+00  0.0000000000000D+00
239  2.3800000000000D+00  0.0000000000000D+00  0.0000000000000D+00
240  2.3900000000000D+00  0.0000000000000D+00  0.0000000000000D+00
241  2.4000000000000D+00  0.0000000000000D+00  0.0000000000000D+00
242  2.4100000000000D+00  0.0000000000000D+00  0.0000000000000D+00
243  2.4200000000000D+00  0.0000000000000D+00  0.0000000000000D+00
244  2.4300000000000D+00  0.0000000000000D+00  0.0000000000000D+00
245  2.4400000000000D+00  0.0000000000000D+00  0.0000000000000D+00
246  2.4500000000000D+00  0.0000000000000D+00  0.0000000000000D+00
247  2.4600000000000D+00  0.0000000000000D+00  0.0000000000000D+00
248  2.4700000000000D+00  0.0000000000000D+00  0.0000000000000D+00
249  2.4800000000000D+00  0.0000000000000D+00  0.0000000000000D+00
250  2.4900000000000D+00  0.0000000000000D+00  0.0000000000000D+00
251  2.5000000000000D+00  0.0000000000000D+00  0.0000000000000D+00
252  2.5100000000000D+00  0.0000000000000D+00  0.0000000000000D+00
253  2.5200000000000D+00  0.0000000000000D+00  0.0000000000000D+00
254  2.5300000000000D+00  0.0000000000000D+00  0.0000000000000D+00
255  2.5400000000000D+00  0.0000000000000D+00  0.0000000000000D+00
256  2.5500000000000D+00  0.0000000000000D+00  0.0000000000000D+00
257  2.5600000000000D+00  0.0000000000000D+00  0.0000000000000D+00
258  2.5700000000000D+00  0.0000000000000D+00  0.0000000000000D+00
259  2.5800000000000D+00  0.0000000000000D+00  0.0000000000000D+00
260  2.5900000000000D+00  0.0000000000000D+00  0.0000000000000D+00
261  2.6000000000000D+00  0.0000000000000D+00  0.0000000000000D+00
262  2.6100000000000D+00  0.0000000000000D+00  0.0000000000000D+00
263  2.6200000000000D+00  0.0000000000000D+00  0.0000000000000D+00
264  2.6300000000000D+00  0.0000000000000D+00  0.0000000000000D+00
265  2.6400000000000D+00  0.0000000000000D+00  0.0000000000000D+00
266  2.6500000000000D+00  0.0000000000000D+00  0.0000000000000D+00
267  2.6600000000000D+00  0.0000000000000D+00  0.0000000000000D+00
268  2.6700000000000D+00  0.0000000000000D+00  0.0000000000000D+00
269  2.6800000000000D+00  0.0000000000000D+00  0.0000000000000D+00
270  2.6900000000000D+00  0.0000000000000D+00  0.0000000000000D+00
271  2.7000000000000D+00  0.0000000000000D+00  0.0000000000000D+00
272  2.7100000000000D+00  0.0000000000000D+00  0.0000000000000D+00
273  2.7200000000000D+00  0.0000000000000D+00  0.0000000000000D+00
274  2.7300000000000D+00  0.0000000000000D+00  0.0000000000000D+00
275  2.7400000000000D+00  0.0000000000000D+00  0.0000000000000D+00
276  2.7500000000000D+00  0.0000000000000D+00  0.0000000000000D+00
277  2.7600000000000D+00  0.0000000000000D+00  0.0000000000000D+00
278  2.7700000000000D+00  0.0000000000000D+00  0.0000000000000D+00
279  2.7800000000000D+00  0.0000000000000D+00  0.0000000000000D+00
280  2.7900000000000D+00  0.0000000000000D+00  0.0000000000000D+00
281  2.8000000000000D+00  0.0000000000000D+00  0.0000000000000D+00
282  2.8100000000000D+00  0.0000000000000D+00  0.0000000000000D+00
283  2.8200000000000D+00  0.0000000000000D+00  0.0000000000000D+00
284  2.8300000000000D+00  0.0000000000000D+00  0.0000000000000D+00
285  2.8400000000000D+00  0.0000000000000D+00  0.0000000000000D+00
286  2.8500000000000D+00  0.0000000000000D+00  0.0000000000000D+00
287  2.8600000000000D+00  0.0000000000000D+00  0.0000000000000D+00
288  2.8700000000000D+00  0.0000000000000D+00  0.0000000000000D+00
289  2.8800000000000D+00  0.0000000000000D+00  0.0000000000000D+00
290  2.8900000000000D+00  0.0000000000000D+00  0.0000000000000D+00
291  2.9000000000000D+00  0.0000000000000D+00  0.0000000000000D+00
292  2.9100000000000D+00  0.0000000000000D+00  0.0000000000000D+00
293  2.9200000000000D+00  0.0000000000000D+00  0.0000000000000D+00
294  2.9300000000000D+00  0.0000000000000D+00  0.0000000000000D+00
295  2.9400000000000D+00  0.0000000000000D+00  0.0000000000000D+00
296  2.9500000000000D+00  0.0000000000000D+00  0.0000000000000D+00
297  2.9600000000000D+00  0.0000000000000D+00  0.0000000000000D+00
298  2.9700000000000D+00  0.0000000000000D+00  0.0000000000000D+00
299  2.9800000000000D+00  0.0000000000000D+00  0.0000000000000D+00
300  2.9900000000000D+00  0.0000000000000D+00  0.0000000000000D+00
301  3.0000000000000D+00  0.0000000000000D+00  0.0000000000000D+00
302  3.0100000000000D+00  0.0000000000000D+00  0.0000000000000D+00
303  3.0200000000000D+00  0.0000000000000D+00  0.0000000000000D+00
304  3.0300000000000D+00  0.0000000000000D+00  0.0000000000000D+00
305  3.0400000000000D+00  0.0000000000000D+00  0.0000000000000D+00
306  3.0500000000000D+00  0.0000000000000D+00  0.0000000000000D+00
307  3.0600000000000D+00  0.0000000000000D+00  0.0000000000000D+00
308  3.0700000000000D+00  0.0000000000000D+00  0.0000000000000D+00
309  3.0800000000000D+00  0.0000000000000D+00  0.0000000000000D+00
310  3.0900000000000D+00  0.0000000000000D+00  0.0000000000000D+00
311  3.1000000000000D+00  0.0000000000000D+00  0.0000000000000D+00
312  3.1100000000000D+00  0.0000000000000D+00  0.0000000000000D+00
313  3.1200000000000D+00  0.0000000000000D+00  0.0000000000000D+00
314  3.1300000000000D+00  0.0000000000000D+00  0.0000000000000D+00
315  3.1400000000000D+00  0.0000000000000D+00  0.0000000000000D+00
316  3.1500000000000D+00  0.0000000000000D+00  0.0000000000000D+00
317  3.1600000000000D+00  0.0000000000000D+00  0.0000000000000D+00
318  3.1700000000000D+00  0.0000000000000D+00  0.0000000000000D+00
319  3.1800000000000D+00  0.0000000000000D+00  0.0000000000000D+00
320  3.1900000000000D+00  0.0000000000000D+00  0.0000000000000D+00
321  3.2000000000000D+00  0.0000000000000D+00  0.0000000000000D+00
322  3.2100000000000D+00  0.0000000000000D+00  0.0000000000000D+00
323  3.2200000000000D+00  0.0000000000000D+00  0.0000000000000D+00
324  3.2300000000000D+00  0.0000000000000D+00  0.0000000000000D+00
325  3.2400000000000D+00  0.0000000000000D+00  0.0000000000000D+00
326  3.2500000000000D+00  0.0000000000000D+00  0.0000000000000D+00
327  3.2600000000000D+00  0.0000000000000D+00  0.0000000000000D+00
328  3.2700000000000D+00  0.0000000000000D+00  0.0000000000000D+00
329  3.2800000000000D+00  0.0000000000000D+00  0.0000000000000D+00
330  3.2900000000000D+00  0.0000000000000D+00  0.0000000000000D+00
331  3.3000000000000D+00  0.0000000000000D+00  0.0000000000000D+00
332  3.3100000000000D+00  0.0000000000000D+00  0.0000000000000D+00
333  3.3200000000000D+00  0.0000000000000D+00  0.0000000000000D+00
334  3.3300000000000D+00  0.0000000000000D+00  0.0000000000000D+00
335  3.3400000000000D+00  0.0000000000000D+00  0.0000000000000D+00
336  3.3500000000000D+00  0.0000000000000D+00  0.0000000000000D+00
337  3.3600000000000D+00  0.0000000000000D+00  0.0000000000000D+00
338  3.3700000000000D+00  0.0000000000000D+00  0.0000000000000D+00
339  3.3800000000000D+00  0.0000000000000D+00  0.0000000000000D+00
340  3.3900000000000D+00  0.0000000000000D+00  0.0000000000000D+00
341  3.4000000000000D+00  0.0000000000000D+00  0.0000000000000D+00
342  3.4100000000000D+00  0.0000000000000D+00  0.0000000000000D+00
343  3.4200000000000D+00  0.0000000000000D+00  0.0000000000000D+00
344  3.4300000000000D+00  0.0000000000000D+00  0.0000000000000D+00
345  3.4400000000000D+00  0.0000000000000D+00  0.0000000000000D+00
346  3.4500000000000D+00  0.0000000000000D+00  0.0000000000000D+00
347  3.4600000000000D+00  0.0000000000000D+00  0.0000000000000D+00
348  3.4700000000000D+00  0.0000000000000D+00  0.0000000000000D+00
349  3.4800000000000D+00  0.0000000000000D+00  0.0000000000000D+00
350  3.4900000000000D+00  0.0000000000000D+00  0.0000000000000D+00
351  3.5000000000000D+00  0.0000000000000D+00  0.0000000000000D+00
352  3.5100000000000D+00  0.0000000000000D+00  0.0000000000000D+00
353  3.5200000000000D+00  0.0000000000000D+00  0.0000000000000D+00
354  3.5300000000000D+00  0.0000000000000D+00  0.0000000000000D+00
355  3.5400000000000D+00  0.0000000000000D+00  0.0000000000000D+00
356  3.5500000000000D+00  0.0000000000000D+00  0.0000000000000D+00
357  3.5600000000000D+00  0.0000000000000D+00  0.0000000000000D+00
358  3.5700000000000D+00  0.0000000000000D+00  0.0000000000000D+00
359  3.5800000000000D+00  0.0000000000000D+00  0.0000000000000D+00
360  3.5900000000000D+00  0.0000000000000D+00  0.0000000000000D+00
361  3.6000000000000D+00  0.0000000000000D+00  0.0000000000000D+00
362  3.6100000000000D+00  0.0000000000000D+00  0.0000000000000D+00
363  3.6200000000000D+00  0.0000000000000D+00  0.0000000000000D+00
364  3.6300000000000D+00  0.0000000000000D+00  0.0000000000000D+00
365  3.6400000000000D+00  0.0000000000000D+00  0.0000000000000D+00
366  3.6500000000000D+00  0.0000000000000D+00  0.0000000000000D+00
367  3.6600000000000D+00  0.0000000000000D+00  0.0000000000000D+00
368  3.6700000000000D+00  0.0000000000000D+00  0.0000000000000D+00
369  3.6800000000000D+00  0.0000000000000D+00  0.0000000000000D+00
370  3.6900000000000D+00  0.0000000000000D+00  0.0000000000000D+00
371  3.7000000000000D+00  0.0000000000000D+00  0.0000000000000D+00
372  3.7100000000000D+00  0.0000000000000D+00  0.0000000000000D+00
373  3.7200000000000D+00  0.0000000000000D+00  0.0000000000000D+00
374  3.7300000000000D+00  0.0000000000000D+00  0.0000000000000D+00
375  3.7400000000000D+00  0.0000000000000D+00  0.0000000000000D+00
376  3.7500000000000D+00  0.0000000000000D+00  0.0000000000000D+00
377  3.7600000000000D+00  0.0000000000000D+00  0.0000000000000D+00
378  3.7700000000000D+00  0.0000000000000D+00  0.0000000000000D+00
379  3.7800000000000D+00  0.0000000000000D+00  0.0000000000000D+00
380  3.7900000000000D+00  0.0000000000000D+00  0.0000000000000D+00
381  3.8000000000000D+00  0.0000000000000D+00  0.0000000000000D+00
382  3.8100000000000D+00  0.0000000000000D+00  0.0000000000000D+00
383  3.8200000000000D+00  0.0000000000000D+00  0.0000000000000D+00
384  3.8300000000000D+00  0.0000000000000D+00  0.0000000000000D+00
385  3.8400000000000D+00  0.0000000000000D+00  0.0000000000000D+00
386  3.8500000000000D+00  0.0000000000000D+00  0.0000000000000D+00
387  3.8600000000000D+00  0.0000000000000D+00  0.0000000000000D+00
388  3.8700000000000D+00  0.0000000000000D+00  0.0000000000000D+00
389  3.8800000000000D+00  0.0000000000000D+00  0.0000000000000D+00
390  3.8900000000000D+00  0.0000000000000D+00  0.0000000000000D+00
391  3.9000000000000D+00  0.0000000000000D+00  0.0000000000000D+00
392  3.9100000000000D+00  0.0000000000000D+00  0.0000000000000D+00
393  3.9200000000000D+00  0.0000000000000D+00  0.0000000000000D+00
394  3.9300000000000D+00  0.0000000000000D+00  0.0000000000000D+00
395  3.9400000000000D+00  0.0000000000000D+00  0.0000000000000D+00
396  3.9500000000000D+00  0.0000000000000D+00  0.0000000000000D+00
397  3.9600000000000D+00  0.0000000000000D+00  0.0000000000000D+00
398  3.9700000000000D+00  0.0000000000000D+00  0.0000000000000D+00
399  3.9800000000000D+00  0.0000000000000D+00  0.0000000000000D+00
400  3.9900000000000D+00  0.0000000000000D+00  0.0000000000000D+00
401  4.0000000000000D+00  0.0000000000000D+00  0.0000000000000D+00
402  4.0100000000000D+00  0.0000000000000D+00  0.0000000000000D+00
403  4.0200000000000D+00  0.0000000000000D+00  0.0000000000000D+00
404  4.0300000000000D+00  0.0000000000000D+00  0.0000000000000D+00
405  4.0400000000000D+00  0.0000000000000D+00  0.0000000000000D+00
406  4.0500000000000D+00  0.0000000000000D+00  0.0000000000000D+00
407  4.0600000000000D+00  0.0000000000000D+00  0.0000000000000D+00
408  4.0700000000000D+00  0.0000000000000D+00  0.0000000000000D+00
409  4.0800000000000D+00  0.0000000000000D+00  0.0000000000000D+00
410  4.0900000000000D+00  0.0000000000000D+00  0.0000000000000D+00
411  4.1000000000000D+00  0.0000000000000D+00  0.0000000000000D+00
412  4.1100000000000D+00  0.0000000000000D+00  0.0000000000000D+00
413  4.1200000000000D+00  0.0000000000000D+00  0.0000000000000D+00
414  4.1300000000000D+00  0.0000000000000D+00  0.0000000000000D+00
415  4.1400000000000D+00  0.0000000000000D+00  0.0000000000000D+00
416  4.1500000000000D+00  0.0000000000000D+00  0.0000000000000D+00
417  4.1600000000000D+00  0.0000000000000D+00  0.0000000000000D+00
418  4.1700000000000D+00  0.0000000000000D+00  0.0000000000000D+00
419  4.1800000000000D+00  0.0000000000000D+00  0.0000000000000D+00
420  4.1900000000000D+00  0.0000000000000D+00  0.0000000000000D+00
421  4.2000000000000D+00  0.0000000000000D+00  0.0000000000000D+00
422  4.2100000000000D+00  0.0000000000000D+00  0.0000000000000D+00
423  4.2200000000000D+00  0.0000000000000D+00  0.0000000000000D+00
424  4.2300000000000D+00  0.0000000000000D+00  0.0000000000000D+00
425  4.2400000000000D+00  0.0000000000000D+00  0.0000000000000D+00
426  4.2500000000000D+00  0.0000000000000D+00  0.0000000000000D+00
427  4.2600000000000D+00  0.0000000000000D+00  0.0000000000000D+00
428  4.2700000000000D+00  0.0000000000000D+00  0.0000000000000D+00
429  4.2800000000000D+00  0.0000000000000D+00  0.0000000000000D+00
430  4.2900000000000D+00  0.0000000000000D+00  0.0000000000000D+00
431  4.3000000000000D+00  0.0000000000000D+00  0.0000000000000D+00
432  4.3100000000000D+00  0.0000000000000D+00  0.0000000000000D+00
433  4.3200000000000D+00  0.0000000000000D+00  0.0000000000000D+00
434  4.3300000000000D+00  0.0000000000000D+00  0.0000000000000D+00
435  4.3400000000000D+00  0.0000000000000D+00  0.0000000000000D+00
436  4.3500000000000D+00  0.0000000000000D+00  0.0000000000000D+00
437  4.3600000000000D+00  0.0000000000000D+00  0.0000000000000D+00
438  4.3700000000000D+00  0.0000000000000D+00  0.0000000000000D+00
439  4.3800000000000D+00  0.0000000000000D+00  0.0000000000000D+00
440  4.3900000000000D+00  0.0000000000000D+00  0.0000000000000D+00
441  4.4000000000000D+00  0.0000000000000D+00  0.0000000000000D+00
442  4.4100000000000D+00  0.0000000000000D+00  0.0000000000000D+00
443  4.4200000000000D+00  0.0000000000000D+00  0.0000000000000D+00
444  4.4300000000000D+00  0.0000000000000D+00  0.0000000000000D+00