Nb    ONCVPSP  r_core=  1.46  1.40  1.40
41.0000     13.0000      141231    zatom,zion,pspd
8    11     2     4   601     0    pspcod,pspxc,lmax,lloc,mmax,r2well
6.00000000  0.07000000  0.00000000    rchrg fchrg qchrg
2     2     2     0     0    nproj
0                 extension_switch
0                         1.1138820070622D+01  8.2399379001065D-01
1  0.0000000000000D+00 -0.0000000000000D+00 -0.0000000000000D+00
2  1.0000000000000D-02 -5.0448124716444D-02 -7.5790071493990D-03
3  2.0000000000000D-02 -1.0091978796961D-01 -1.4699100902515D-02
4  3.0000000000000D-02 -1.5143667746920D-01 -2.0911734442022D-02
5  4.0000000000000D-02 -2.0201681792148D-01 -2.5788882136996D-02
6  5.0000000000000D-02 -2.5267283538520D-01 -2.8932774474129D-02
7  6.0000000000000D-02 -3.0341033451847D-01 -2.9985014061209D-02
8  7.0000000000000D-02 -3.5422642283004D-01 -2.8634885909008D-02
9  8.0000000000000D-02 -4.0510841311843D-01 -2.4626691452414D-02
10  9.0000000000000D-02 -4.5603273174766D-01 -1.7765955376080D-02
11  1.0000000000000D-01 -5.0696405627785D-01 -7.9243772148558D-03
12  1.1000000000000D-01 -5.5785470144872D-01  4.9565752536874D-03
13  1.2000000000000D-01 -6.0864426751308D-01  2.0863506096426D-02
14  1.3000000000000D-01 -6.5925955972192D-01  3.9710411312314D-02
15  1.4000000000000D-01 -7.0961478231054D-01  6.1339495228869D-02
16  1.5000000000000D-01 -7.5961200490739D-01  8.5523469623444D-02
17  1.6000000000000D-01 -8.0914189385209D-01  1.1196929176806D-01
18  1.7000000000000D-01 -8.5808469531740D-01  1.4032326709206D-01
19  1.8000000000000D-01 -9.0631145261650D-01  1.7017741686766D-01
20  1.9000000000000D-01 -9.5368543540233D-01  2.0107698588373D-01
21  2.0000000000000D-01 -1.0000637525993D+00  2.3252893323916D-01
22  2.1000000000000D-01 -1.0452991202509D+00  2.6401124498418D-01
23  2.2000000000000D-01 -1.0892417487149D+00  2.9498287158516D-01
24  2.3000000000000D-01 -1.1317413155140D+00  3.2489410253050D-01
25  2.4000000000000D-01 -1.1726489829393D+00  3.5319715256324D-01
26  2.5000000000000D-01 -1.2118194215253D+00  3.7935674484506D-01
27  2.6000000000000D-01 -1.2491128091997D+00  4.0286052215488D-01
28  2.7000000000000D-01 -1.2843967506217D+00  4.2322898562457D-01
29  2.8000000000000D-01 -1.3175480930668D+00  4.4002482829972D-01
30  2.9000000000000D-01 -1.3484546021732D+00  4.5286146341618D-01
31  3.0000000000000D-01 -1.3770164614210D+00  4.6141055188113D-01
32  3.1000000000000D-01 -1.4031475682343D+00  4.6540838212828D-01
33  3.2000000000000D-01 -1.4267766007763D+00  4.6466096369215D-01
34  3.3000000000000D-01 -1.4478478225115D+00  4.5904766573707D-01
35  3.4000000000000D-01 -1.4663216764739D+00  4.4852365381317D-01
36  3.5000000000000D-01 -1.4821750118602D+00  4.3312034653598D-01
37  3.6000000000000D-01 -1.4954011398394D+00  4.1294486341708D-01
38  3.7000000000000D-01 -1.5060095138854D+00  3.8817747990107D-01
39  3.8000000000000D-01 -1.5140252137807D+00  3.5906795407233D-01
40  3.9000000000000D-01 -1.5194881308917D+00  3.2593025901283D-01
41  4.0000000000000D-01 -1.5224519189180D+00  2.8913605486120D-01
42  4.1000000000000D-01 -1.5229827327325D+00  2.4910701826530D-01
43  4.2000000000000D-01 -1.5211577703430D+00  2.0630613744060D-01
44  4.3000000000000D-01 -1.5170636524483D+00  1.6122816699147D-01
45  4.4000000000000D-01 -1.5107946735862D+00  1.1438943776523D-01
46  4.5000000000000D-01 -1.5024509612256D+00  6.6317229893227D-02
47  4.6000000000000D-01 -1.4921365812100D+00  1.7538928301436D-02
48  4.7000000000000D-01 -1.4799576297814D+00 -3.1428810244080D-02
49  4.8000000000000D-01 -1.4660203561309D+00 -8.0090628627991D-02
50  4.9000000000000D-01 -1.4504294010611D+00 -1.2798228783063D-01
51  5.0000000000000D-01 -1.4332859278117D+00 -1.7468105979320D-01
52  5.1000000000000D-01 -1.4146861839418D+00 -2.1981351174204D-01
53  5.2000000000000D-01 -1.3947201730877D+00 -2.6306263767562D-01
54  5.3000000000000D-01 -1.3734701954482D+00 -3.0417567375241D-01
55  5.4000000000000D-01 -1.3510101149427D+00 -3.4296766329517D-01
56  5.5000000000000D-01 -1.3274046095869D+00 -3.7932510106356D-01
57  5.6000000000000D-01 -1.3027085091499D+00 -4.1320896279589D-01
58  5.7000000000000D-01 -1.2769669747347D+00 -4.4465298359769D-01
59  5.8000000000000D-01 -1.2502151585390D+00 -4.7376468358026D-01
60  5.9000000000000D-01 -1.2224789920858D+00 -5.0072014787239D-01
61  6.0000000000000D-01 -1.1937755118253D+00 -5.2576114865277D-01
62  6.1000000000000D-01 -1.1641139150960D+00 -5.4918826771413D-01
63  6.2000000000000D-01 -1.1334967087781D+00 -5.7135345966953D-01
64  6.3000000000000D-01 -1.1019209216986D+00 -5.9265191714619D-01
65  6.4000000000000D-01 -1.0693797791975D+00 -6.1351181479217D-01
66  6.5000000000000D-01 -1.0358642901500D+00 -6.3438411716901D-01
67  6.6000000000000D-01 -1.0013651318442D+00 -6.5573062607562D-01
68  6.7000000000000D-01 -9.6587445956048D-01 -6.7801287051743D-01
69  6.8000000000000D-01 -9.2938770043157D-01 -7.0168086820364D-01
70  6.9000000000000D-01 -8.9190573116700D-01 -7.2715927779876D-01
71  7.0000000000000D-01 -8.5343655009840D-01 -7.5483706243660D-01
72  7.1000000000000D-01 -8.1399699775416D-01 -7.8505661440856D-01
73  7.2000000000000D-01 -7.7361439271149D-01 -8.1810331848312D-01
74  7.3000000000000D-01 -7.3232781424216D-01 -8.5419731339031D-01
75  7.4000000000000D-01 -6.9018978899393D-01 -8.9348235539849D-01
76  7.5000000000000D-01 -6.4726686425762D-01 -9.3602186575024D-01
77  7.6000000000000D-01 -6.0364038692181D-01 -9.8179334463780D-01
78  7.7000000000000D-01 -5.5940693737292D-01 -1.0306848050155D+00
79  7.8000000000000D-01 -5.1467842920731D-01 -1.0824931359635D+00
80  7.9000000000000D-01 -4.6958188535826D-01 -1.1369243144294D+00
81  8.0000000000000D-01 -4.2425888585199D-01 -1.1935954932616D+00
82  8.1000000000000D-01 -3.7886468907967D-01 -1.2520389555090D+00
83  8.2000000000000D-01 -3.3356703512787D-01 -1.3117078871651D+00
84  8.3000000000000D-01 -2.8854464621131D-01 -1.3719838836732D+00
85  8.4000000000000D-01 -2.4398544547553D-01 -1.4321860702752D+00
86  8.5000000000000D-01 -2.0008452127342D-01 -1.4915816832955D+00
87  8.6000000000000D-01 -1.5704186937832D-01 -1.5493979292275D+00
88  8.7000000000000D-01 -1.1505995039823D-01 -1.6048349114624D+00
89  8.8000000000000D-01 -7.4341103834917D-02 -1.6570793910528D+00
90  8.9000000000000D-01 -3.5084863727269D-02 -1.7053191283676D+00
91  9.0000000000000D-01  2.5147764323871D-03 -1.7487575372194D+00
92  9.1000000000000D-01  3.8272099884969D-02 -1.7866283724221D+00
93  9.2000000000000D-01  7.2012353232518D-02 -1.8182101662028D+00
94  9.3000000000000D-01  1.0357433280056D-01 -1.8428401290049D+00
95  9.4000000000000D-01  1.3281282108694D-01 -1.8599272365685D+00
96  9.5000000000000D-01  1.5960082592463D-01 -1.8689642383891D+00
97  9.6000000000000D-01  1.8383157858084D-01 -1.8695383432925D+00
98  9.7000000000000D-01  2.0542001891986D-01 -1.8613392095793D+00
99  9.8000000000000D-01  2.2430418871948D-01 -1.8441663082242D+00
100  9.9000000000000D-01  2.4044783043719D-01 -1.8179421183024D+00
101  1.0000000000000D+00  2.5383925887630D-01 -1.7827065810268D+00
102  1.0100000000000D+00  2.6449228445906D-01 -1.7386215269797D+00
103  1.0200000000000D+00  2.7244613291538D-01 -1.6859699263791D+00
104  1.0300000000000D+00  2.7776496294013D-01 -1.6251529506288D+00
105  1.0400000000000D+00  2.8053614388622D-01 -1.5566809562844D+00
106  1.0500000000000D+00  2.8087243788452D-01 -1.4811827808445D+00
107  1.0600000000000D+00  2.7890675823462D-01 -1.3993790104150D+00
108  1.0700000000000D+00  2.7479141910286D-01 -1.3120769293007D+00
109  1.0800000000000D+00  2.6869593468919D-01 -1.2201583884404D+00
110  1.0900000000000D+00  2.6080495332223D-01 -1.1245687513641D+00
111  1.1000000000000D+00  2.5131587103840D-01 -1.0263012362164D+00
112  1.1100000000000D+00  2.4043467975102D-01 -9.2637679999703D-01
113  1.1200000000000D+00  2.2837370979247D-01 -8.2583098383802D-01
114  1.1300000000000D+00  2.1535027279243D-01 -7.2570752652055D-01
115  1.1400000000000D+00  2.0158002727079D-01 -6.2701894338880D-01
116  1.1500000000000D+00  1.8727598012086D-01 -5.3074451164185D-01
117  1.1600000000000D+00  1.7264620594589D-01 -4.3781762846332D-01
118  1.1700000000000D+00  1.5789296106747D-01 -3.4912145186281D-01
119  1.1800000000000D+00  1.4320198252539D-01 -2.6542899910888D-01
120  1.1900000000000D+00  1.2874787469904D-01 -1.8743617871134D-01
121  1.2000000000000D+00  1.1469360474963D-01 -1.1575907063983D-01
122  1.2100000000000D+00  1.0118038714272D-01 -5.0878508850943D-02
123  1.2200000000000D+00  8.8329790042154D-02  6.8457161641487D-03
124  1.2300000000000D+00  7.6248392876734D-02  5.7148625488347D-02
125  1.2400000000000D+00  6.5021163079921D-02  9.9895493711313D-02
126  1.2500000000000D+00  5.4707154855925D-02  1.3510166461839D-01
127  1.2600000000000D+00  4.5351046889588D-02  1.6286999757073D-01
128  1.2700000000000D+00  3.6976996151767D-02  1.8342301658051D-01
129  1.2800000000000D+00  2.9583746498167D-02  1.9712284499470D-01
130  1.2900000000000D+00  2.3158776140500D-02  2.0439847873375D-01
131  1.3000000000000D+00  1.7670756202211D-02  2.0578264446924D-01
132  1.3100000000000D+00  1.3070376395840D-02  2.0189876629174D-01
133  1.3200000000000D+00  9.3007115653072D-03  1.9341476003488D-01
134  1.3300000000000D+00  6.2902698949338D-03  1.8106806285044D-01
135  1.3400000000000D+00  3.9607211669689D-03  1.6562054400675D-01
136  1.3500000000000D+00  2.2282870088866D-03  1.4786589845033D-01
137  1.3600000000000D+00  1.0049707519080D-03  1.2859256009197D-01
138  1.3700000000000D+00  2.0358819672055D-04  1.0857643718109D-01
139  1.3800000000000D+00 -2.6498614236462D-04  8.8594565235010D-02
140  1.3900000000000D+00 -4.8012902389140D-04  6.9333096938484D-02
141  1.4000000000000D+00 -5.2184773806151D-04  5.1482313978294D-02
142  1.4100000000000D+00 -4.5747573007833D-04  3.5625297707856D-02
143  1.4200000000000D+00 -3.4316114284337D-04  2.2261834347386D-02
144  1.4300000000000D+00 -2.3075751273201D-04  1.1856376717940D-02
145  1.4400000000000D+00 -1.4358065935531D-04  4.7284839815823D-03
146  1.4500000000000D+00 -1.0727428230262D-04  1.2360221199371D-03
147  1.4600000000000D+00 -6.7492163991262D-05 -5.2780641090419D-05
148  1.4700000000000D+00 -1.3754418245944D-05 -1.0981935083506D-04
149  1.4800000000000D+00  6.0664283076913D-06 -2.0446387761830D-05
150  1.4900000000000D+00  8.1753259974019D-07 -2.7554250531622D-06
151  1.5000000000000D+00  0.0000000000000D+00  0.0000000000000D+00
152  1.5100000000000D+00  0.0000000000000D+00  0.0000000000000D+00
153  1.5200000000000D+00  0.0000000000000D+00  0.0000000000000D+00
154  1.5300000000000D+00  0.0000000000000D+00  0.0000000000000D+00
155  1.5400000000000D+00  0.0000000000000D+00  0.0000000000000D+00
156  1.5500000000000D+00  0.0000000000000D+00  0.0000000000000D+00
157  1.5600000000000D+00  0.0000000000000D+00  0.0000000000000D+00
158  1.5700000000000D+00  0.0000000000000D+00  0.0000000000000D+00
159  1.5800000000000D+00  0.0000000000000D+00  0.0000000000000D+00
160  1.5900000000000D+00  0.0000000000000D+00  0.0000000000000D+00
161  1.6000000000000D+00  0.0000000000000D+00  0.0000000000000D+00
162  1.6100000000000D+00  0.0000000000000D+00  0.0000000000000D+00
163  1.6200000000000D+00  0.0000000000000D+00  0.0000000000000D+00
164  1.6300000000000D+00  0.0000000000000D+00  0.0000000000000D+00
165  1.6400000000000D+00  0.0000000000000D+00  0.0000000000000D+00
166  1.6500000000000D+00  0.0000000000000D+00  0.0000000000000D+00
167  1.6600000000000D+00  0.0000000000000D+00  0.0000000000000D+00
168  1.6700000000000D+00  0.0000000000000D+00  0.0000000000000D+00
169  1.6800000000000D+00  0.0000000000000D+00  0.0000000000000D+00
170  1.6900000000000D+00  0.0000000000000D+00  0.0000000000000D+00
171  1.7000000000000D+00  0.0000000000000D+00  0.0000000000000D+00
172  1.7100000000000D+00  0.0000000000000D+00  0.0000000000000D+00
173  1.7200000000000D+00  0.0000000000000D+00  0.0000000000000D+00
174  1.7300000000000D+00  0.0000000000000D+00  0.0000000000000D+00
175  1.7400000000000D+00  0.0000000000000D+00  0.0000000000000D+00
176  1.7500000000000D+00  0.0000000000000D+00  0.0000000000000D+00
177  1.7600000000000D+00  0.0000000000000D+00  0.0000000000000D+00
178  1.7700000000000D+00  0.0000000000000D+00  0.0000000000000D+00
179  1.7800000000000D+00  0.0000000000000D+00  0.0000000000000D+00
180  1.7900000000000D+00  0.0000000000000D+00  0.0000000000000D+00
181  1.8000000000000D+00  0.0000000000000D+00  0.0000000000000D+00
182  1.8100000000000D+00  0.0000000000000D+00  0.0000000000000D+00
183  1.8200000000000D+00  0.0000000000000D+00  0.0000000000000D+00
184  1.8300000000000D+00  0.0000000000000D+00  0.0000000000000D+00
185  1.8400000000000D+00  0.0000000000000D+00  0.0000000000000D+00
186  1.8500000000000D+00  0.0000000000000D+00  0.0000000000000D+00
187  1.8600000000000D+00  0.0000000000000D+00  0.0000000000000D+00
188  1.8700000000000D+00  0.0000000000000D+00  0.0000000000000D+00
189  1.8800000000000D+00  0.0000000000000D+00  0.0000000000000D+00
190  1.8900000000000D+00  0.0000000000000D+00  0.0000000000000D+00
191  1.9000000000000D+00  0.0000000000000D+00  0.0000000000000D+00
192  1.9100000000000D+00  0.0000000000000D+00  0.0000000000000D+00
193  1.9200000000000D+00  0.0000000000000D+00  0.0000000000000D+00
194  1.9300000000000D+00  0.0000000000000D+00  0.0000000000000D+00
195  1.9400000000000D+00  0.0000000000000D+00  0.0000000000000D+00
196  1.9500000000000D+00  0.0000000000000D+00  0.0000000000000D+00
197  1.9600000000000D+00  0.0000000000000D+00  0.0000000000000D+00
198  1.9700000000000D+00  0.0000000000000D+00  0.0000000000000D+00
199  1.9800000000000D+00  0.0000000000000D+00  0.0000000000000D+00
200  1.9900000000000D+00  0.0000000000000D+00  0.0000000000000D+00
201  2.0000000000000D+00  0.0000000000000D+00  0.0000000000000D+00
202  2.0100000000000D+00  0.0000000000000D+00  0.0000000000000D+00
203  2.0200000000000D+00  0.0000000000000D+00  0.0000000000000D+00
204  2.0300000000000D+00  0.0000000000000D+00  0.0000000000000D+00
205  2.0400000000000D+00  0.0000000000000D+00  0.0000000000000D+00
206  2.0500000000000D+00  0.0000000000000D+00  0.0000000000000D+00
207  2.0600000000000D+00  0.0000000000000D+00  0.0000000000000D+00
208  2.0700000000000D+00  0.0000000000000D+00  0.0000000000000D+00
209  2.0800000000000D+00  0.0000000000000D+00  0.0000000000000D+00
210  2.0900000000000D+00  0.0000000000000D+00  0.0000000000000D+00
211  2.1000000000000D+00  0.0000000000000D+00  0.0000000000000D+00
212  2.1100000000000D+00  0.0000000000000D+00  0.0000000000000D+00
213  2.1200000000000D+00  0.0000000000000D+00  0.0000000000000D+00
214  2.1300000000000D+00  0.0000000000000D+00  0.0000000000000D+00
215  2.1400000000000D+00  0.0000000000000D+00  0.0000000000000D+00
216  2.1500000000000D+00  0.0000000000000D+00  0.0000000000000D+00
217  2.1600000000000D+00  0.0000000000000D+00  0.0000000000000D+00
218  2.1700000000000D+00  0.0000000000000D+00  0.0000000000000D+00
219  2.1800000000000D+00  0.0000000000000D+00  0.0000000000000D+00
220  2.1900000000000D+00  0.0000000000000D+00  0.0000000000000D+00
221  2.2000000000000D+00  0.0000000000000D+00  0.0000000000000D+00
222  2.2100000000000D+00  0.0000000000000D+00  0.0000000000000D+00
223  2.2200000000000D+00  0.0000000000000D+00  0.0000000000000D+00
224  2.2300000000000D+00  0.0000000000000D+00  0.0000000000000D+00
225  2.2400000000000D+00  0.0000000000000D+00  0.0000000000000D+00
226  2.2500000000000D+00  0.0000000000000D+00  0.0000000000000D+00
227  2.2600000000000D+00  0.0000000000000D+00  0.0000000000000D+00
228  2.2700000000000D+00  0.0000000000000D+00  0.0000000000000D+00
229  2.2800000000000D+00  0.0000000000000D+00  0.0000000000000D+00
230  2.2900000000000D+00  0.0000000000000D+00  0.0000000000000D+00
231  2.3000000000000D+00  0.0000000000000D+00  0.0000000000000D+00
232  2.3100000000000D+00  0.0000000000000D+00  0.0000000000000D+00
233  2.3200000000000D+00  0.0000000000000D+00  0.0000000000000D+00
234  2.3300000000000D+00  0.0000000000000D+00  0.0000000000000D+00
235  2.3400000000000D+00  0.0000000000000D+00  0.0000000000000D+00
236  2.3500000000000D+00  0.0000000000000D+00  0.0000000000000D+00
237  2.3600000000000D+00  0.0000000000000D+00  0.0000000000000D+00
238  2.3700000000000D+00  0.0000000000000D+00  0.0000000000000D+00
239  2.3800000000000D+00  0.0000000000000D+00  0.0000000000000D+00
240  2.3900000000000D+00  0.0000000000000D+00  0.0000000000000D+00
241  2.4000000000000D+00  0.0000000000000D+00  0.0000000000000D+00
242  2.4100000000000D+00  0.0000000000000D+00  0.0000000000000D+00
243  2.4200000000000D+00  0.0000000000000D+00  0.0000000000000D+00
244  2.4300000000000D+00  0.0000000000000D+00  0.0000000000000D+00
245  2.4400000000000D+00  0.0000000000000D+00  0.0000000000000D+00
246  2.4500000000000D+00  0.0000000000000D+00  0.0000000000000D+00
247  2.4600000000000D+00  0.0000000000000D+00  0.0000000000000D+00
248  2.4700000000000D+00  0.0000000000000D+00  0.0000000000000D+00
249  2.4800000000000D+00  0.0000000000000D+00  0.0000000000000D+00
250  2.4900000000000D+00  0.0000000000000D+00  0.0000000000000D+00
251  2.5000000000000D+00  0.0000000000000D+00  0.0000000000000D+00
252  2.5100000000000D+00  0.0000000000000D+00  0.0000000000000D+00
253  2.5200000000000D+00  0.0000000000000D+00  0.0000000000000D+00
254  2.5300000000000D+00  0.0000000000000D+00  0.0000000000000D+00
255  2.5400000000000D+00  0.0000000000000D+00  0.0000000000000D+00
256  2.5500000000000D+00  0.0000000000000D+00  0.0000000000000D+00
257  2.5600000000000D+00  0.0000000000000D+00  0.0000000000000D+00
258  2.5700000000000D+00  0.0000000000000D+00  0.0000000000000D+00
259  2.5800000000000D+00  0.0000000000000D+00  0.0000000000000D+00
260  2.5900000000000D+00  0.0000000000000D+00  0.0000000000000D+00
261  2.6000000000000D+00  0.0000000000000D+00  0.0000000000000D+00
262  2.6100000000000D+00  0.0000000000000D+00  0.0000000000000D+00
263  2.6200000000000D+00  0.0000000000000D+00  0.0000000000000D+00
264  2.6300000000000D+00  0.0000000000000D+00  0.0000000000000D+00
265  2.6400000000000D+00  0.0000000000000D+00  0.0000000000000D+00
266  2.6500000000000D+00  0.0000000000000D+00  0.0000000000000D+00
267  2.6600000000000D+00  0.0000000000000D+00  0.0000000000000D+00
268  2.6700000000000D+00  0.0000000000000D+00  0.0000000000000D+00
269  2.6800000000000D+00  0.0000000000000D+00  0.0000000000000D+00
270  2.6900000000000D+00  0.0000000000000D+00  0.0000000000000D+00
271  2.7000000000000D+00  0.0000000000000D+00  0.0000000000000D+00
272  2.7100000000000D+00  0.0000000000000D+00  0.0000000000000D+00
273  2.7200000000000D+00  0.0000000000000D+00  0.0000000000000D+00
274  2.7300000000000D+00  0.0000000000000D+00  0.0000000000000D+00
275  2.7400000000000D+00  0.0000000000000D+00  0.0000000000000D+00
276  2.7500000000000D+00  0.0000000000000D+00  0.0000000000000D+00
277  2.7600000000000D+00  0.0000000000000D+00  0.0000000000000D+00
278  2.7700000000000D+00  0.0000000000000D+00  0.0000000000000D+00
279  2.7800000000000D+00  0.0000000000000D+00  0.0000000000000D+00
280  2.7900000000000D+00  0.0000000000000D+00  0.0000000000000D+00
281  2.8000000000000D+00  0.0000000000000D+00  0.0000000000000D+00
282  2.8100000000000D+00  0.0000000000000D+00  0.0000000000000D+00
283  2.8200000000000D+00  0.0000000000000D+00  0.0000000000000D+00
284  2.8300000000000D+00  0.0000000000000D+00  0.0000000000000D+00
285  2.8400000000000D+00  0.0000000000000D+00  0.0000000000000D+00
286  2.8500000000000D+00  0.0000000000000D+00  0.0000000000000D+00
287  2.8600000000000D+00  0.0000000000000D+00  0.0000000000000D+00
288  2.8700000000000D+00  0.0000000000000D+00  0.0000000000000D+00
289  2.8800000000000D+00  0.0000000000000D+00  0.0000000000000D+00
290  2.8900000000000D+00  0.0000000000000D+00  0.0000000000000D+00
291  2.9000000000000D+00  0.0000000000000D+00  0.0000000000000D+00
292  2.9100000000000D+00  0.0000000000000D+00  0.0000000000000D+00
293  2.9200000000000D+00  0.0000000000000D+00  0.0000000000000D+00
294  2.9300000000000D+00  0.0000000000000D+00  0.0000000000000D+00
295  2.9400000000000D+00  0.0000000000000D+00  0.0000000000000D+00
296  2.9500000000000D+00  0.0000000000000D+00  0.0000000000000D+00
297  2.9600000000000D+00  0.0000000000000D+00  0.0000000000000D+00
298  2.9700000000000D+00  0.0000000000000D+00  0.0000000000000D+00
299  2.9800000000000D+00  0.0000000000000D+00  0.0000000000000D+00
300  2.9900000000000D+00  0.0000000000000D+00  0.0000000000000D+00
301  3.0000000000000D+00  0.0000000000000D+00  0.0000000000000D+00
302  3.0100000000000D+00  0.0000000000000D+00  0.0000000000000D+00
303  3.0200000000000D+00  0.0000000000000D+00  0.0000000000000D+00
304  3.0300000000000D+00  0.0000000000000D+00  0.0000000000000D+00
305  3.0400000000000D+00  0.0000000000000D+00  0.0000000000000D+00
306  3.0500000000000D+00  0.0000000000000D+00  0.0000000000000D+00
307  3.0600000000000D+00  0.0000000000000D+00  0.0000000000000D+00
308  3.0700000000000D+00  0.0000000000000D+00  0.0000000000000D+00
309  3.0800000000000D+00  0.0000000000000D+00  0.0000000000000D+00
310  3.0900000000000D+00  0.0000000000000D+00  0.0000000000000D+00
311  3.1000000000000D+00  0.0000000000000D+00  0.0000000000000D+00
312  3.1100000000000D+00  0.0000000000000D+00  0.0000000000000D+00
313  3.1200000000000D+00  0.0000000000000D+00  0.0000000000000D+00
314  3.1300000000000D+00  0.0000000000000D+00  0.0000000000000D+00
315  3.1400000000000D+00  0.0000000000000D+00  0.0000000000000D+00
316  3.1500000000000D+00  0.0000000000000D+00  0.0000000000000D+00
317  3.1600000000000D+00  0.0000000000000D+00  0.0000000000000D+00
318  3.1700000000000D+00  0.0000000000000D+00  0.0000000000000D+00
319  3.1800000000000D+00  0.0000000000000D+00  0.0000000000000D+00
320  3.1900000000000D+00  0.0000000000000D+00  0.0000000000000D+00
321  3.2000000000000D+00  0.0000000000000D+00  0.0000000000000D+00
322  3.2100000000000D+00  0.0000000000000D+00  0.0000000000000D+00
323  3.2200000000000D+00  0.0000000000000D+00  0.0000000000000D+00
324  3.2300000000000D+00  0.0000000000000D+00  0.0000000000000D+00
325  3.2400000000000D+00  0.0000000000000D+00  0.0000000000000D+00
326  3.2500000000000D+00  0.0000000000000D+00  0.0000000000000D+00
327  3.2600000000000D+00  0.0000000000000D+00  0.0000000000000D+00
328  3.2700000000000D+00  0.0000000000000D+00  0.0000000000000D+00
329  3.2800000000000D+00  0.0000000000000D+00  0.0000000000000D+00
330  3.2900000000000D+00  0.0000000000000D+00  0.0000000000000D+00
331  3.3000000000000D+00  0.0000000000000D+00  0.0000000000000D+00
332  3.3100000000000D+00  0.0000000000000D+00  0.0000000000000D+00
333  3.3200000000000D+00  0.0000000000000D+00  0.0000000000000D+00
334  3.3300000000000D+00  0.0000000000000D+00  0.0000000000000D+00
335  3.3400000000000D+00  0.0000000000000D+00  0.0000000000000D+00
336  3.3500000000000D+00  0.0000000000000D+00  0.0000000000000D+00
337  3.3600000000000D+00  0.0000000000000D+00  0.0000000000000D+00
338  3.3700000000000D+00  0.0000000000000D+00  0.0000000000000D+00
339  3.3800000000000D+00  0.0000000000000D+00  0.0000000000000D+00
340  3.3900000000000D+00  0.0000000000000D+00  0.0000000000000D+00
341  3.4000000000000D+00  0.0000000000000D+00  0.0000000000000D+00
342  3.4100000000000D+00  0.0000000000000D+00  0.0000000000000D+00
343  3.4200000000000D+00  0.0000000000000D+00  0.0000000000000D+00
344  3.4300000000000D+00  0.0000000000000D+00  0.0000000000000D+00
345  3.4400000000000D+00  0.0000000000000D+00  0.0000000000000D+00
346  3.4500000000000D+00  0.0000000000000D+00  0.0000000000000D+00
347  3.4600000000000D+00  0.0000000000000D+00  0.0000000000000D+00
348  3.4700000000000D+00  0.0000000000000D+00  0.0000000000000D+00
349  3.4800000000000D+00  0.0000000000000D+00  0.0000000000000D+00
350  3.4900000000000D+00  0.0000000000000D+00  0.0000000000000D+00
351  3.5000000000000D+00  0.0000000000000D+00  0.0000000000000D+00
352  3.5100000000000D+00  0.0000000000000D+00  0.0000000000000D+00
353  3.5200000000000D+00  0.0000000000000D+00  0.0000000000000D+00
354  3.5300000000000D+00  0.0000000000000D+00  0.0000000000000D+00
355  3.5400000000000D+00  0.0000000000000D+00  0.0000000000000D+00
356  3.5500000000000D+00  0.0000000000000D+00  0.0000000000000D+00
357  3.5600000000000D+00  0.0000000000000D+00  0.0000000000000D+00
358  3.5700000000000D+00  0.0000000000000D+00  0.0000000000000D+00
359  3.5800000000000D+00  0.0000000000000D+00  0.0000000000000D+00
360  3.5900000000000D+00  0.0000000000000D+00  0.0000000000000D+00
361  3.6000000000000D+00  0.0000000000000D+00  0.0000000000000D+00
362  3.6100000000000D+00  0.0000000000000D+00  0.0000000000000D+00
363  3.6200000000000D+00  0.0000000000000D+00  0.0000000000000D+00
364  3.6300000000000D+00  0.0000000000000D+00  0.0000000000000D+00
365  3.6400000000000D+00  0.0000000000000D+00  0.0000000000000D+00
366  3.6500000000000D+00  0.0000000000000D+00  0.0000000000000D+00
367  3.6600000000000D+00  0.0000000000000D+00  0.0000000000000D+00
368  3.6700000000000D+00  0.0000000000000D+00  0.0000000000000D+00
369  3.6800000000000D+00  0.0000000000000D+00  0.0000000000000D+00
370  3.6900000000000D+00  0.0000000000000D+00  0.0000000000000D+00
371  3.7000000000000D+00  0.0000000000000D+00  0.0000000000000D+00
372  3.7100000000000D+00  0.0000000000000D+00  0.0000000000000D+00
373  3.7200000000000D+00  0.0000000000000D+00  0.0000000000000D+00
374  3.7300000000000D+00  0.0000000000000D+00  0.0000000000000D+00
375  3.7400000000000D+00  0.0000000000000D+00  0.0000000000000D+00
376  3.7500000000000D+00  0.0000000000000D+00  0.0000000000000D+00
377  3.7600000000000D+00  0.0000000000000D+00  0.0000000000000D+00
378  3.7700000000000D+00  0.0000000000000D+00  0.0000000000000D+00
379  3.7800000000000D+00  0.0000000000000D+00  0.0000000000000D+00
380  3.7900000000000D+00  0.0000000000000D+00  0.0000000000000D+00
381  3.8000000000000D+00  0.0000000000000D+00  0.0000000000000D+00
382  3.8100000000000D+00  0.0000000000000D+00  0.0000000000000D+00
383  3.8200000000000D+00  0.0000000000000D+00  0.0000000000000D+00
384  3.8300000000000D+00  0.0000000000000D+00  0.0000000000000D+00
385  3.8400000000000D+00  0.0000000000000D+00  0.0000000000000D+00
386  3.8500000000000D+00  0.0000000000000D+00  0.0000000000000D+00
387  3.8600000000000D+00  0.0000000000000D+00  0.0000000000000D+00
388  3.8700000000000D+00  0.0000000000000D+00  0.0000000000000D+00
389  3.8800000000000D+00  0.0000000000000D+00  0.0000000000000D+00
390  3.8900000000000D+00  0.0000000000000D+00  0.0000000000000D+00
391  3.9000000000000D+00  0.0000000000000D+00  0.0000000000000D+00
392  3.9100000000000D+00  0.0000000000000D+00  0.0000000000000D+00
393  3.9200000000000D+00  0.0000000000000D+00  0.0000000000000D+00
394  3.9300000000000D+00  0.0000000000000D+00  0.0000000000000D+00
395  3.9400000000000D+00  0.0000000000000D+00  0.0000000000000D+00
396  3.9500000000000D+00  0.0000000000000D+00  0.0000000000000D+00
397  3.9600000000000D+00  0.0000000000000D+00  0.0000000000000D+00
398  3.9700000000000D+00  0.0000000000000D+00  0.0000000000000D+00
399  3.9800000000000D+00  0.0000000000000D+00  0.0000000000000D+00
400  3.9900000000000D+00  0.0000000000000D+00  0.0000000000000D+00
401  4.0000000000000D+00  0.0000000000000D+00  0.0000000000000D+00
402  4.0100000000000D+00  0.0000000000000D+00  0.0000000000000D+00
403  4.0200000000000D+00  0.0000000000000D+00  0.0000000000000D+00
404  4.0300000000000D+00  0.0000000000000D+00  0.0000000000000D+00
405  4.0400000000000D+00  0.0000000000000D+00  0.0000000000000D+00
406  4.0500000000000D+00  0.0000000000000D+00  0.0000000000000D+00
407  4.0600000000000D+00  0.0000000000000D+00  0.0000000000000D+00
408  4.0700000000000D+00  0.0000000000000D+00  0.0000000000000D+00
409  4.0800000000000D+00  0.0000000000000D+00  0.0000000000000D+00
410  4.0900000000000D+00  0.0000000000000D+00  0.0000000000000D+00
411  4.1000000000000D+00  0.0000000000000D+00  0.0000000000000D+00
412  4.1100000000000D+00  0.0000000000000D+00  0.0000000000000D+00
413  4.1200000000000D+00  0.0000000000000D+00  0.0000000000000D+00
414  4.1300000000000D+00  0.0000000000000D+00  0.0000000000000D+00
415  4.1400000000000D+00  0.0000000000000D+00  0.0000000000000D+00
416  4.1500000000000D+00  0.0000000000000D+00  0.0000000000000D+00
417  4.1600000000000D+00  0.0000000000000D+00  0.0000000000000D+00
418  4.1700000000000D+00  0.0000000000000D+00  0.0000000000000D+00
419  4.1800000000000D+00  0.0000000000000D+00  0.0000000000000D+00
420  4.1900000000000D+00  0.0000000000000D+00  0.0000000000000D+00
421  4.2000000000000D+00  0.0000000000000D+00  0.0000000000000D+00
422  4.2100000000000D+00  0.0000000000000D+00  0.0000000000000D+00
423  4.2200000000000D+00  0.0000000000000D+00  0.0000000000000D+00
424  4.2300000000000D+00  0.0000000000000D+00  0.0000000000000D+00
425  4.2400000000000D+00  0.0000000000000D+00  0.0000000000000D+00
426  4.2500000000000D+00  0.0000000000000D+00  0.0000000000000D+00
427  4.2600000000000D+00  0.0000000000000D+00  0.0000000000000D+00
428  4.2700000000000D+00  0.0000000000000D+00  0.0000000000000D+00
429  4.2800000000000D+00  0.0000000000000D+00  0.0000000000000D+00
430  4.2900000000000D+00  0.0000000000000D+00  0.0000000000000D+00
431  4.3000000000000D+00  0.0000000000000D+00  0.0000000000000D+00
432  4.3100000000000D+00  0.0000000000000D+00  0.0000000000000D+00
433  4.3200000000000D+00  0.0000000000000D+00  0.0000000000000D+00
434  4.3300000000000D+00  0.0000000000000D+00  0.0000000000000D+00
435  4.3400000000000D+00  0.0000000000000D+00  0.0000000000000D+00
436  4.3500000000000D+00  0.0000000000000D+00  0.0000000000000D+00
437  4.3600000000000D+00  0.0000000000000D+00  0.0000000000000D+00
438  4.3700000000000D+00  0.0000000000000D+00  0.0000000000000D+00
439  4.3800000000000D+00  0.0000000000000D+00  0.0000000000000D+00
440  4.3900000000000D+00  0.0000000000000D+00  0.0000000000000D+00
441  4.4000000000000D+00  0.0000000000000D+00  0.0000000000000D+00
442  4.4100000000000D+00  0.0000000000000D+00  0.0000000000000D+00
443  4.4200000000000D+00  0.0000000000000D+00  0.0000000000000D+00
444  4.4300000000000D+00  0.0000000000000D+00  0.0000000000000D+00