Nb    ONCVPSP  r_core=  1.46  1.40  1.31
41.0000     13.0000      150116    zatom,zion,pspd
8    11     2     4   601     0    pspcod,pspxc,lmax,lloc,mmax,r2well
6.00000000  0.07000000  0.00000000    rchrg fchrg qchrg
2     2     2     0     0    nproj
0                 extension_switch
0                         1.3057469038038D+01  1.2549301894983D+00
1  0.0000000000000D+00 -0.0000000000000D+00 -0.0000000000000D+00
2  1.0000000000000D-02 -4.9954421931658D-02 -1.1896275978031D-02
3  2.0000000000000D-02 -9.9893554419864D-02 -2.3870453322664D-02
4  3.0000000000000D-02 -1.4980162085234D-01 -3.5998930510018D-02
5  4.0000000000000D-02 -1.9966187549101D-01 -4.8355115644451D-02
6  5.0000000000000D-02 -2.4945613189476D-01 -6.1007969663101D-02
7  6.0000000000000D-02 -2.9916430680237D-01 -7.4020595238045D-02
8  7.0000000000000D-02 -3.4876398442573D-01 -8.7448885994911D-02
9  8.0000000000000D-02 -3.9823000592987D-01 -1.0134025014190D-01
10  9.0000000000000D-02 -4.4753408866767D-01 -1.1573242197245D-01
11  1.0000000000000D-01 -4.9664447947377D-01 -1.3065237390947D-01
12  1.1000000000000D-01 -5.4552564605026D-01 -1.4611534093716D-01
13  1.2000000000000D-01 -5.9413801013381D-01 -1.6212396823027D-01
14  1.3000000000000D-01 -6.4243772579922D-01 -1.7866759178104D-01
15  1.4000000000000D-01 -6.9037650581563D-01 -1.9572166048936D-01
16  1.5000000000000D-01 -7.3790149866747D-01 -2.1324730728560D-01
17  1.6000000000000D-01 -7.8495521824663D-01 -2.3119107498395D-01
18  1.7000000000000D-01 -8.3147552797378D-01 -2.4948480188331D-01
19  1.8000000000000D-01 -8.7739568038836D-01 -2.6804566987067D-01
20  1.9000000000000D-01 -9.2264441299933D-01 -2.8677641708744D-01
21  2.0000000000000D-01 -9.6714610054366D-01 -3.0556571534852D-01
22  2.1000000000000D-01 -1.0108209633145D+00 -3.2428871083657D-01
23  2.2000000000000D-01 -1.0535853307081D+00 -3.4280772530070D-01
24  2.3000000000000D-01 -1.0953519588445D+00 -3.6097311383036D-01
25  2.4000000000000D-01 -1.1360304001846D+00 -3.7862427278247D-01
26  2.5000000000000D-01 -1.1755274226005D+00 -3.9559078988623D-01
27  2.6000000000000D-01 -1.2137474767804D+00 -4.1169373233028D-01
28  2.7000000000000D-01 -1.2505932059077D+00 -4.2674705521955D-01
29  2.8000000000000D-01 -1.2859659959945D+00 -4.4055912449915D-01
30  2.9000000000000D-01 -1.3197665628789D+00 -4.5293434211158D-01
31  3.0000000000000D-01 -1.3518955707476D+00 -4.6367485786758D-01
32  3.1000000000000D-01 -1.3822542777985D+00 -4.7258235448169D-01
33  3.2000000000000D-01 -1.4107452037008D+00 -4.7945988956032D-01
34  3.3000000000000D-01 -1.4372728069283D+00 -4.8411376023093D-01
35  3.4000000000000D-01 -1.4617441971668D+00 -4.8635545808359D-01
36  3.5000000000000D-01 -1.4840698102473D+00 -4.8600351358690D-01
37  3.6000000000000D-01 -1.5041641367148D+00 -4.8288547852418D-01
38  3.7000000000000D-01 -1.5219463869828D+00 -4.7683972396073D-01
39  3.8000000000000D-01 -1.5373411932505D+00 -4.6771732666634D-01
40  3.9000000000000D-01 -1.5502792683744D+00 -4.5538382400759D-01
41  4.0000000000000D-01 -1.5606980384715D+00 -4.3972088231212D-01
42  4.1000000000000D-01 -1.5685422562445D+00 -4.2062789622717D-01
43  4.2000000000000D-01 -1.5737645754251D+00 -3.9802346459498D-01
44  4.3000000000000D-01 -1.5763260844388D+00 -3.7184673677320D-01
45  4.4000000000000D-01 -1.5761967944360D+00 -3.4205861544227D-01
46  4.5000000000000D-01 -1.5733560770332D+00 -3.0864280267587D-01
47  4.6000000000000D-01 -1.5677930472785D+00 -2.7160667674110D-01
48  4.7000000000000D-01 -1.5595068875433D+00 -2.3098198791055D-01
49  4.8000000000000D-01 -1.5485071074920D+00 -1.8682536069967D-01
50  4.9000000000000D-01 -1.5348137230604D+00 -1.3921856216423D-01
51  5.0000000000000D-01 -1.5184574433200D+00 -8.8268749631302D-02
52  5.1000000000000D-01 -1.4994796720709D+00 -3.4108226611858D-02
53  5.2000000000000D-01 -1.4779324868027D+00  2.3105880433453D-02
54  5.3000000000000D-01 -1.4538786237222D+00  8.3191990817191D-02
55  5.4000000000000D-01 -1.4273912521276D+00  1.4594495954824D-01
56  5.5000000000000D-01 -1.3985537649216D+00  2.1113696101383D-01
57  5.6000000000000D-01 -1.3674595031250D+00  2.7851860779394D-01
58  5.7000000000000D-01 -1.3342113393503D+00  3.4782033448550D-01
59  5.8000000000000D-01 -1.2989212814041D+00  4.1875391613067D-01
60  5.9000000000000D-01 -1.2617099428485D+00  4.9101412602960D-01
61  6.0000000000000D-01 -1.2227059811492D+00  5.6428069514584D-01
62  6.1000000000000D-01 -1.1820454739583D+00  6.3822027710746D-01
63  6.2000000000000D-01 -1.1398712699857D+00  7.1248849042281D-01
64  6.3000000000000D-01 -1.0963321756606D+00  7.8673255839271D-01
65  6.4000000000000D-01 -1.0515822921803D+00  8.6059323156998D-01
66  6.5000000000000D-01 -1.0057801663851D+00  9.3370742303243D-01
67  6.6000000000000D-01 -9.5908784980081D-01  1.0057110636086D+00
68  6.7000000000000D-01 -9.1167015929840D-01  1.0762411983626D+00
69  6.8000000000000D-01 -8.6369383095120D-01  1.1449384496984D+00
70  6.9000000000000D-01 -8.1532638519377D-01  1.2114503549517D+00
71  7.0000000000000D-01 -7.6673537340300D-01  1.2754333994114D+00
72  7.1000000000000D-01 -7.1808747472426D-01  1.3365555131317D+00
73  7.2000000000000D-01 -6.6954756866192D-01  1.3944985956465D+00
74  7.3000000000000D-01 -6.2127794972677D-01  1.4489605651199D+00
75  7.4000000000000D-01 -5.7343713793104D-01  1.4996585621197D+00
76  7.5000000000000D-01 -5.2617930770396D-01  1.5463302454077D+00
77  7.6000000000000D-01 -4.7965342527971D-01  1.5887359266206D+00
78  7.7000000000000D-01 -4.3400245898159D-01  1.6266604323147D+00
79  7.8000000000000D-01 -3.8936264921397D-01  1.6599147387008D+00
80  7.9000000000000D-01 -3.4586282842193D-01  1.6883374093389D+00
81  8.0000000000000D-01 -3.0362379589927D-01  1.7117958226209D+00
82  8.1000000000000D-01 -2.6275775181230D-01  1.7301871777888D+00
83  8.2000000000000D-01 -2.2336779426509D-01  1.7434392702407D+00
84  8.3000000000000D-01 -1.8554748267035D-01  1.7515110289358D+00
85  8.4000000000000D-01 -1.4938047011480D-01  1.7543928108028D+00
86  8.5000000000000D-01 -1.1494020682425D-01  1.7521064491645D+00
87  8.6000000000000D-01 -8.2289716246144D-02  1.7447050553078D+00
88  8.7000000000000D-01 -5.1481444677556D-02  1.7322725744417D+00
89  8.8000000000000D-01 -2.2557184775903D-02  1.7149230993943D+00
90  8.9000000000000D-01  4.4519273031436D-03  1.6927999475103D+00
91  9.0000000000000D-01  2.9525341993011D-02  1.6660745083208D+00
92  9.1000000000000D-01  5.2652955084325D-02  1.6349448716776D+00
93  9.2000000000000D-01  7.3834897240568D-02  1.5996342481700D+00
94  9.3000000000000D-01  9.3081256948555D-02  1.5603891957692D+00
95  9.4000000000000D-01  1.1041174021835D-01  1.5174776687531D+00
96  9.5000000000000D-01  1.2585527097603D-01  1.4711869070212D+00
97  9.6000000000000D-01  1.3944953671233D-01  1.4218211858530D+00
98  9.7000000000000D-01  1.5124046130294D-01  1.3696995064008D+00
99  9.8000000000000D-01  1.6128169778360D-01  1.3151532841719D+00
100  9.9000000000000D-01  1.6963413172118D-01  1.2585232287999D+00
101  1.0000000000000D+00  1.7636505315626D-01  1.2001571113239D+00
102  1.0100000000000D+00  1.8154758448098D-01  1.1404070350398D+00
103  1.0200000000000D+00  1.8526000442720D-01  1.0796267862758D+00
104  1.0300000000000D+00  1.8758506141762D-01  1.0181692334802D+00
105  1.0400000000000D+00  1.8860946157962D-01  9.5638516372458D-01
106  1.0500000000000D+00  1.8842269103453D-01  8.9461649919296D-01
107  1.0600000000000D+00  1.8711661269043D-01  8.3319743976211D-01
108  1.0700000000000D+00  1.8478470473988D-01  7.7245109637471D-01
109  1.0800000000000D+00  1.8152144898373D-01  7.1268762676624D-01
110  1.0900000000000D+00  1.7742197236143D-01  6.5420353138528D-01
111  1.1000000000000D+00  1.7258010300136D-01  5.9727294038252D-01
112  1.1100000000000D+00  1.6708892709757D-01  5.4215247096902D-01
113  1.1200000000000D+00  1.6103989100587D-01  4.8907769614319D-01
114  1.1300000000000D+00  1.5452309087047D-01  4.3826526820295D-01
115  1.1400000000000D+00  1.4762420122383D-01  3.8990031638886D-01
116  1.1500000000000D+00  1.4042608144204D-01  3.4414516500161D-01
117  1.1600000000000D+00  1.3300812867070D-01  3.0113716205463D-01
118  1.1700000000000D+00  1.2544633788638D-01  2.6098941252019D-01
119  1.1800000000000D+00  1.1780988639293D-01  2.2377872417006D-01
120  1.1900000000000D+00  1.1016399253964D-01  1.8955792155236D-01
121  1.2000000000000D+00  1.0256975803131D-01  1.5835535263273D-01
122  1.2100000000000D+00  9.5081076717136D-02  1.3016474843288D-01
123  1.2200000000000D+00  8.7745749631466D-02  1.0495079612085D-01
124  1.2300000000000D+00  8.0606993404516D-02  8.2654576583791D-02
125  1.2400000000000D+00  7.3701397737314D-02  6.3187357827358D-02
126  1.2500000000000D+00  6.7057403760936D-02  4.6427701120004D-02
127  1.2600000000000D+00  6.0698961422029D-02  3.2233304685377D-02
128  1.2700000000000D+00  5.4643110811982D-02  2.0433047224923D-02
129  1.2800000000000D+00  4.8900071678977D-02  1.0836433946083D-02
130  1.2900000000000D+00  4.3477812980178D-02  3.2448787731456D-03
131  1.3000000000000D+00  3.8380687534771D-02 -2.5472221537393D-03
132  1.3100000000000D+00  3.3610020634992D-02 -6.7448513665476D-03
133  1.3200000000000D+00  2.9165952204748D-02 -9.5565461167810D-03
134  1.3300000000000D+00  2.5046312088692D-02 -1.1187228885963D-02
135  1.3400000000000D+00  2.1248115063951D-02 -1.1833562999325D-02
136  1.3500000000000D+00  1.7767640570945D-02 -1.1694351333865D-02
137  1.3600000000000D+00  1.4600949338905D-02 -1.0948401990646D-02
138  1.3700000000000D+00  1.1744512289835D-02 -9.7677849453099D-03
139  1.3800000000000D+00  9.1947872260461D-03 -8.3174379403075D-03
140  1.3900000000000D+00  6.9503190611414D-03 -6.7325429557201D-03
141  1.4000000000000D+00  5.0097270303761D-03 -5.1482644128200D-03
142  1.4100000000000D+00  3.3741863821005D-03 -3.6691697247837D-03
143  1.4200000000000D+00  2.0466712829127D-03 -2.3828618542137D-03
144  1.4300000000000D+00  1.0311005216366D-03 -1.3671799209175D-03
145  1.4400000000000D+00  3.4197950869793D-04 -6.6829682568090D-04
146  1.4500000000000D+00 -4.3002515481623D-06 -3.3812377785295D-04
147  1.4600000000000D+00 -9.7046547021261D-05 -1.5504336135053D-04
148  1.4700000000000D+00 -3.0995747167080D-05 -2.4663121587448D-05
149  1.4800000000000D+00  5.8701896793080D-06  1.5698960088654D-05
150  1.4900000000000D+00  7.9108681189031D-07  2.1156454842172D-06
151  1.5000000000000D+00  0.0000000000000D+00  0.0000000000000D+00
152  1.5100000000000D+00  0.0000000000000D+00  0.0000000000000D+00
153  1.5200000000000D+00  0.0000000000000D+00  0.0000000000000D+00
154  1.5300000000000D+00  0.0000000000000D+00  0.0000000000000D+00
155  1.5400000000000D+00  0.0000000000000D+00  0.0000000000000D+00
156  1.5500000000000D+00  0.0000000000000D+00  0.0000000000000D+00
157  1.5600000000000D+00  0.0000000000000D+00  0.0000000000000D+00
158  1.5700000000000D+00  0.0000000000000D+00  0.0000000000000D+00
159  1.5800000000000D+00  0.0000000000000D+00  0.0000000000000D+00
160  1.5900000000000D+00  0.0000000000000D+00  0.0000000000000D+00
161  1.6000000000000D+00  0.0000000000000D+00  0.0000000000000D+00
162  1.6100000000000D+00  0.0000000000000D+00  0.0000000000000D+00
163  1.6200000000000D+00  0.0000000000000D+00  0.0000000000000D+00
164  1.6300000000000D+00  0.0000000000000D+00  0.0000000000000D+00
165  1.6400000000000D+00  0.0000000000000D+00  0.0000000000000D+00
166  1.6500000000000D+00  0.0000000000000D+00  0.0000000000000D+00
167  1.6600000000000D+00  0.0000000000000D+00  0.0000000000000D+00
168  1.6700000000000D+00  0.0000000000000D+00  0.0000000000000D+00
169  1.6800000000000D+00  0.0000000000000D+00  0.0000000000000D+00
170  1.6900000000000D+00  0.0000000000000D+00  0.0000000000000D+00
171  1.7000000000000D+00  0.0000000000000D+00  0.0000000000000D+00
172  1.7100000000000D+00  0.0000000000000D+00  0.0000000000000D+00
173  1.7200000000000D+00  0.0000000000000D+00  0.0000000000000D+00
174  1.7300000000000D+00  0.0000000000000D+00  0.0000000000000D+00
175  1.7400000000000D+00  0.0000000000000D+00  0.0000000000000D+00
176  1.7500000000000D+00  0.0000000000000D+00  0.0000000000000D+00
177  1.7600000000000D+00  0.0000000000000D+00  0.0000000000000D+00
178  1.7700000000000D+00  0.0000000000000D+00  0.0000000000000D+00
179  1.7800000000000D+00  0.0000000000000D+00  0.0000000000000D+00
180  1.7900000000000D+00  0.0000000000000D+00  0.0000000000000D+00
181  1.8000000000000D+00  0.0000000000000D+00  0.0000000000000D+00
182  1.8100000000000D+00  0.0000000000000D+00  0.0000000000000D+00
183  1.8200000000000D+00  0.0000000000000D+00  0.0000000000000D+00
184  1.8300000000000D+00  0.0000000000000D+00  0.0000000000000D+00
185  1.8400000000000D+00  0.0000000000000D+00  0.0000000000000D+00
186  1.8500000000000D+00  0.0000000000000D+00  0.0000000000000D+00
187  1.8600000000000D+00  0.0000000000000D+00  0.0000000000000D+00
188  1.8700000000000D+00  0.0000000000000D+00  0.0000000000000D+00
189  1.8800000000000D+00  0.0000000000000D+00  0.0000000000000D+00
190  1.8900000000000D+00  0.0000000000000D+00  0.0000000000000D+00
191  1.9000000000000D+00  0.0000000000000D+00  0.0000000000000D+00
192  1.9100000000000D+00  0.0000000000000D+00  0.0000000000000D+00
193  1.9200000000000D+00  0.0000000000000D+00  0.0000000000000D+00
194  1.9300000000000D+00  0.0000000000000D+00  0.0000000000000D+00
195  1.9400000000000D+00  0.0000000000000D+00  0.0000000000000D+00
196  1.9500000000000D+00  0.0000000000000D+00  0.0000000000000D+00
197  1.9600000000000D+00  0.0000000000000D+00  0.0000000000000D+00
198  1.9700000000000D+00  0.0000000000000D+00  0.0000000000000D+00
199  1.9800000000000D+00  0.0000000000000D+00  0.0000000000000D+00
200  1.9900000000000D+00  0.0000000000000D+00  0.0000000000000D+00
201  2.0000000000000D+00  0.0000000000000D+00  0.0000000000000D+00
202  2.0100000000000D+00  0.0000000000000D+00  0.0000000000000D+00
203  2.0200000000000D+00  0.0000000000000D+00  0.0000000000000D+00
204  2.0300000000000D+00  0.0000000000000D+00  0.0000000000000D+00
205  2.0400000000000D+00  0.0000000000000D+00  0.0000000000000D+00
206  2.0500000000000D+00  0.0000000000000D+00  0.0000000000000D+00
207  2.0600000000000D+00  0.0000000000000D+00  0.0000000000000D+00
208  2.0700000000000D+00  0.0000000000000D+00  0.0000000000000D+00
209  2.0800000000000D+00  0.0000000000000D+00  0.0000000000000D+00
210  2.0900000000000D+00  0.0000000000000D+00  0.0000000000000D+00
211  2.1000000000000D+00  0.0000000000000D+00  0.0000000000000D+00
212  2.1100000000000D+00  0.0000000000000D+00  0.0000000000000D+00
213  2.1200000000000D+00  0.0000000000000D+00  0.0000000000000D+00
214  2.1300000000000D+00  0.0000000000000D+00  0.0000000000000D+00
215  2.1400000000000D+00  0.0000000000000D+00  0.0000000000000D+00
216  2.1500000000000D+00  0.0000000000000D+00  0.0000000000000D+00
217  2.1600000000000D+00  0.0000000000000D+00  0.0000000000000D+00
218  2.1700000000000D+00  0.0000000000000D+00  0.0000000000000D+00
219  2.1800000000000D+00  0.0000000000000D+00  0.0000000000000D+00
220  2.1900000000000D+00  0.0000000000000D+00  0.0000000000000D+00
221  2.2000000000000D+00  0.0000000000000D+00  0.0000000000000D+00
222  2.2100000000000D+00  0.0000000000000D+00  0.0000000000000D+00
223  2.2200000000000D+00  0.0000000000000D+00  0.0000000000000D+00
224  2.2300000000000D+00  0.0000000000000D+00  0.0000000000000D+00
225  2.2400000000000D+00  0.0000000000000D+00  0.0000000000000D+00
226  2.2500000000000D+00  0.0000000000000D+00  0.0000000000000D+00
227  2.2600000000000D+00  0.0000000000000D+00  0.0000000000000D+00
228  2.2700000000000D+00  0.0000000000000D+00  0.0000000000000D+00
229  2.2800000000000D+00  0.0000000000000D+00  0.0000000000000D+00
230  2.2900000000000D+00  0.0000000000000D+00  0.0000000000000D+00
231  2.3000000000000D+00  0.0000000000000D+00  0.0000000000000D+00
232  2.3100000000000D+00  0.0000000000000D+00  0.0000000000000D+00
233  2.3200000000000D+00  0.0000000000000D+00  0.0000000000000D+00
234  2.3300000000000D+00  0.0000000000000D+00  0.0000000000000D+00
235  2.3400000000000D+00  0.0000000000000D+00  0.0000000000000D+00
236  2.3500000000000D+00  0.0000000000000D+00  0.0000000000000D+00
237  2.3600000000000D+00  0.0000000000000D+00  0.0000000000000D+00
238  2.3700000000000D+00  0.0000000000000D+00  0.0000000000000D+00
239  2.3800000000000D+00  0.0000000000000D+00  0.0000000000000D+00
240  2.3900000000000D+00  0.0000000000000D+00  0.0000000000000D+00
241  2.4000000000000D+00  0.0000000000000D+00  0.0000000000000D+00
242  2.4100000000000D+00  0.0000000000000D+00  0.0000000000000D+00
243  2.4200000000000D+00  0.0000000000000D+00  0.0000000000000D+00
244  2.4300000000000D+00  0.0000000000000D+00  0.0000000000000D+00
245  2.4400000000000D+00  0.0000000000000D+00  0.0000000000000D+00
246  2.4500000000000D+00  0.0000000000000D+00  0.0000000000000D+00
247  2.4600000000000D+00  0.0000000000000D+00  0.0000000000000D+00
248  2.4700000000000D+00  0.0000000000000D+00  0.0000000000000D+00
249  2.4800000000000D+00  0.0000000000000D+00  0.0000000000000D+00
250  2.4900000000000D+00  0.0000000000000D+00  0.0000000000000D+00
251  2.5000000000000D+00  0.0000000000000D+00  0.0000000000000D+00
252  2.5100000000000D+00  0.0000000000000D+00  0.0000000000000D+00
253  2.5200000000000D+00  0.0000000000000D+00  0.0000000000000D+00
254  2.5300000000000D+00  0.0000000000000D+00  0.0000000000000D+00
255  2.5400000000000D+00  0.0000000000000D+00  0.0000000000000D+00
256  2.5500000000000D+00  0.0000000000000D+00  0.0000000000000D+00
257  2.5600000000000D+00  0.0000000000000D+00  0.0000000000000D+00
258  2.5700000000000D+00  0.0000000000000D+00  0.0000000000000D+00
259  2.5800000000000D+00  0.0000000000000D+00  0.0000000000000D+00
260  2.5900000000000D+00  0.0000000000000D+00  0.0000000000000D+00
261  2.6000000000000D+00  0.0000000000000D+00  0.0000000000000D+00
262  2.6100000000000D+00  0.0000000000000D+00  0.0000000000000D+00
263  2.6200000000000D+00  0.0000000000000D+00  0.0000000000000D+00
264  2.6300000000000D+00  0.0000000000000D+00  0.0000000000000D+00
265  2.6400000000000D+00  0.0000000000000D+00  0.0000000000000D+00
266  2.6500000000000D+00  0.0000000000000D+00  0.0000000000000D+00
267  2.6600000000000D+00  0.0000000000000D+00  0.0000000000000D+00
268  2.6700000000000D+00  0.0000000000000D+00  0.0000000000000D+00
269  2.6800000000000D+00  0.0000000000000D+00  0.0000000000000D+00
270  2.6900000000000D+00  0.0000000000000D+00  0.0000000000000D+00
271  2.7000000000000D+00  0.0000000000000D+00  0.0000000000000D+00
272  2.7100000000000D+00  0.0000000000000D+00  0.0000000000000D+00
273  2.7200000000000D+00  0.0000000000000D+00  0.0000000000000D+00
274  2.7300000000000D+00  0.0000000000000D+00  0.0000000000000D+00
275  2.7400000000000D+00  0.0000000000000D+00  0.0000000000000D+00
276  2.7500000000000D+00  0.0000000000000D+00  0.0000000000000D+00
277  2.7600000000000D+00  0.0000000000000D+00  0.0000000000000D+00
278  2.7700000000000D+00  0.0000000000000D+00  0.0000000000000D+00
279  2.7800000000000D+00  0.0000000000000D+00  0.0000000000000D+00
280  2.7900000000000D+00  0.0000000000000D+00  0.0000000000000D+00
281  2.8000000000000D+00  0.0000000000000D+00  0.0000000000000D+00
282  2.8100000000000D+00  0.0000000000000D+00  0.0000000000000D+00
283  2.8200000000000D+00  0.0000000000000D+00  0.0000000000000D+00
284  2.8300000000000D+00  0.0000000000000D+00  0.0000000000000D+00
285  2.8400000000000D+00  0.0000000000000D+00  0.0000000000000D+00
286  2.8500000000000D+00  0.0000000000000D+00  0.0000000000000D+00
287  2.8600000000000D+00  0.0000000000000D+00  0.0000000000000D+00
288  2.8700000000000D+00  0.0000000000000D+00  0.0000000000000D+00
289  2.8800000000000D+00  0.0000000000000D+00  0.0000000000000D+00
290  2.8900000000000D+00  0.0000000000000D+00  0.0000000000000D+00
291  2.9000000000000D+00  0.0000000000000D+00  0.0000000000000D+00
292  2.9100000000000D+00  0.0000000000000D+00  0.0000000000000D+00
293  2.9200000000000D+00  0.0000000000000D+00  0.0000000000000D+00
294  2.9300000000000D+00  0.0000000000000D+00  0.0000000000000D+00
295  2.9400000000000D+00  0.0000000000000D+00  0.0000000000000D+00
296  2.9500000000000D+00  0.0000000000000D+00  0.0000000000000D+00
297  2.9600000000000D+00  0.0000000000000D+00  0.0000000000000D+00
298  2.9700000000000D+00  0.0000000000000D+00  0.0000000000000D+00
299  2.9800000000000D+00  0.0000000000000D+00  0.0000000000000D+00
300  2.9900000000000D+00  0.0000000000000D+00  0.0000000000000D+00
301  3.0000000000000D+00  0.0000000000000D+00  0.0000000000000D+00
302  3.0100000000000D+00  0.0000000000000D+00  0.0000000000000D+00
303  3.0200000000000D+00  0.0000000000000D+00  0.0000000000000D+00
304  3.0300000000000D+00  0.0000000000000D+00  0.0000000000000D+00
305  3.0400000000000D+00  0.0000000000000D+00  0.0000000000000D+00
306  3.0500000000000D+00  0.0000000000000D+00  0.0000000000000D+00
307  3.0600000000000D+00  0.0000000000000D+00  0.0000000000000D+00
308  3.0700000000000D+00  0.0000000000000D+00  0.0000000000000D+00
309  3.0800000000000D+00  0.0000000000000D+00  0.0000000000000D+00
310  3.0900000000000D+00  0.0000000000000D+00  0.0000000000000D+00
311  3.1000000000000D+00  0.0000000000000D+00  0.0000000000000D+00
312  3.1100000000000D+00  0.0000000000000D+00  0.0000000000000D+00
313  3.1200000000000D+00  0.0000000000000D+00  0.0000000000000D+00
314  3.1300000000000D+00  0.0000000000000D+00  0.0000000000000D+00
315  3.1400000000000D+00  0.0000000000000D+00  0.0000000000000D+00
316  3.1500000000000D+00  0.0000000000000D+00  0.0000000000000D+00
317  3.1600000000000D+00  0.0000000000000D+00  0.0000000000000D+00
318  3.1700000000000D+00  0.0000000000000D+00  0.0000000000000D+00
319  3.1800000000000D+00  0.0000000000000D+00  0.0000000000000D+00
320  3.1900000000000D+00  0.0000000000000D+00  0.0000000000000D+00
321  3.2000000000000D+00  0.0000000000000D+00  0.0000000000000D+00
322  3.2100000000000D+00  0.0000000000000D+00  0.0000000000000D+00
323  3.2200000000000D+00  0.0000000000000D+00  0.0000000000000D+00
324  3.2300000000000D+00  0.0000000000000D+00  0.0000000000000D+00
325  3.2400000000000D+00  0.0000000000000D+00  0.0000000000000D+00
326  3.2500000000000D+00  0.0000000000000D+00  0.0000000000000D+00
327  3.2600000000000D+00  0.0000000000000D+00  0.0000000000000D+00
328  3.2700000000000D+00  0.0000000000000D+00  0.0000000000000D+00
329  3.2800000000000D+00  0.0000000000000D+00  0.0000000000000D+00
330  3.2900000000000D+00  0.0000000000000D+00  0.0000000000000D+00
331  3.3000000000000D+00  0.0000000000000D+00  0.0000000000000D+00
332  3.3100000000000D+00  0.0000000000000D+00  0.0000000000000D+00
333  3.3200000000000D+00  0.0000000000000D+00  0.0000000000000D+00
334  3.3300000000000D+00  0.0000000000000D+00  0.0000000000000D+00
335  3.3400000000000D+00  0.0000000000000D+00  0.0000000000000D+00
336  3.3500000000000D+00  0.0000000000000D+00  0.0000000000000D+00
337  3.3600000000000D+00  0.0000000000000D+00  0.0000000000000D+00
338  3.3700000000000D+00  0.0000000000000D+00  0.0000000000000D+00
339  3.3800000000000D+00  0.0000000000000D+00  0.0000000000000D+00
340  3.3900000000000D+00  0.0000000000000D+00  0.0000000000000D+00
341  3.4000000000000D+00  0.0000000000000D+00  0.0000000000000D+00
342  3.4100000000000D+00  0.0000000000000D+00  0.0000000000000D+00
343  3.4200000000000D+00  0.0000000000000D+00  0.0000000000000D+00
344  3.4300000000000D+00  0.0000000000000D+00  0.0000000000000D+00
345  3.4400000000000D+00  0.0000000000000D+00  0.0000000000000D+00
346  3.4500000000000D+00  0.0000000000000D+00  0.0000000000000D+00
347  3.4600000000000D+00  0.0000000000000D+00  0.0000000000000D+00
348  3.4700000000000D+00  0.0000000000000D+00  0.0000000000000D+00
349  3.4800000000000D+00  0.0000000000000D+00  0.0000000000000D+00
350  3.4900000000000D+00  0.0000000000000D+00  0.0000000000000D+00
351  3.5000000000000D+00  0.0000000000000D+00  0.0000000000000D+00
352  3.5100000000000D+00  0.0000000000000D+00  0.0000000000000D+00
353  3.5200000000000D+00  0.0000000000000D+00  0.0000000000000D+00
354  3.5300000000000D+00  0.0000000000000D+00  0.0000000000000D+00
355  3.5400000000000D+00  0.0000000000000D+00  0.0000000000000D+00
356  3.5500000000000D+00  0.0000000000000D+00  0.0000000000000D+00
357  3.5600000000000D+00  0.0000000000000D+00  0.0000000000000D+00
358  3.5700000000000D+00  0.0000000000000D+00  0.0000000000000D+00
359  3.5800000000000D+00  0.0000000000000D+00  0.0000000000000D+00
360  3.5900000000000D+00  0.0000000000000D+00  0.0000000000000D+00
361  3.6000000000000D+00  0.0000000000000D+00  0.0000000000000D+00
362  3.6100000000000D+00  0.0000000000000D+00  0.0000000000000D+00
363  3.6200000000000D+00  0.0000000000000D+00  0.0000000000000D+00
364  3.6300000000000D+00  0.0000000000000D+00  0.0000000000000D+00
365  3.6400000000000D+00  0.0000000000000D+00  0.0000000000000D+00
366  3.6500000000000D+00  0.0000000000000D+00  0.0000000000000D+00
367  3.6600000000000D+00  0.0000000000000D+00  0.0000000000000D+00
368  3.6700000000000D+00  0.0000000000000D+00  0.0000000000000D+00
369  3.6800000000000D+00  0.0000000000000D+00  0.0000000000000D+00
370  3.6900000000000D+00  0.0000000000000D+00  0.0000000000000D+00
371  3.7000000000000D+00  0.0000000000000D+00  0.0000000000000D+00
372  3.7100000000000D+00  0.0000000000000D+00  0.0000000000000D+00
373  3.7200000000000D+00  0.0000000000000D+00  0.0000000000000D+00
374  3.7300000000000D+00  0.0000000000000D+00  0.0000000000000D+00
375  3.7400000000000D+00  0.0000000000000D+00  0.0000000000000D+00
376  3.7500000000000D+00  0.0000000000000D+00  0.0000000000000D+00
377  3.7600000000000D+00  0.0000000000000D+00  0.0000000000000D+00
378  3.7700000000000D+00  0.0000000000000D+00  0.0000000000000D+00
379  3.7800000000000D+00  0.0000000000000D+00  0.0000000000000D+00
380  3.7900000000000D+00  0.0000000000000D+00  0.0000000000000D+00
381  3.8000000000000D+00  0.0000000000000D+00  0.0000000000000D+00
382  3.8100000000000D+00  0.0000000000000D+00  0.0000000000000D+00
383  3.8200000000000D+00  0.0000000000000D+00  0.0000000000000D+00
384  3.8300000000000D+00  0.0000000000000D+00  0.0000000000000D+00
385  3.8400000000000D+00  0.0000000000000D+00  0.0000000000000D+00
386  3.8500000000000D+00  0.0000000000000D+00  0.0000000000000D+00
387  3.8600000000000D+00  0.0000000000000D+00  0.0000000000000D+00
388  3.8700000000000D+00  0.0000000000000D+00  0.0000000000000D+00
389  3.8800000000000D+00  0.0000000000000D+00  0.0000000000000D+00
390  3.8900000000000D+00  0.0000000000000D+00  0.0000000000000D+00
391  3.9000000000000D+00  0.0000000000000D+00  0.0000000000000D+00
392  3.9100000000000D+00  0.0000000000000D+00  0.0000000000000D+00
393  3.9200000000000D+00  0.0000000000000D+00  0.0000000000000D+00
394  3.9300000000000D+00  0.0000000000000D+00  0.0000000000000D+00
395  3.9400000000000D+00  0.0000000000000D+00  0.0000000000000D+00
396  3.9500000000000D+00  0.0000000000000D+00  0.0000000000000D+00
397  3.9600000000000D+00  0.0000000000000D+00  0.0000000000000D+00
398  3.9700000000000D+00  0.0000000000000D+00  0.0000000000000D+00
399  3.9800000000000D+00  0.0000000000000D+00  0.0000000000000D+00
400  3.9900000000000D+00  0.0000000000000D+00  0.0000000000000D+00
401  4.0000000000000D+00  0.0000000000000D+00  0.0000000000000D+00
402  4.0100000000000D+00  0.0000000000000D+00  0.0000000000000D+00
403  4.0200000000000D+00  0.0000000000000D+00  0.0000000000000D+00
404  4.0300000000000D+00  0.0000000000000D+00  0.0000000000000D+00
405  4.0400000000000D+00  0.0000000000000D+00  0.0000000000000D+00
406  4.0500000000000D+00  0.0000000000000D+00  0.0000000000000D+00
407  4.0600000000000D+00  0.0000000000000D+00  0.0000000000000D+00
408  4.0700000000000D+00  0.0000000000000D+00  0.0000000000000D+00
409  4.0800000000000D+00  0.0000000000000D+00  0.0000000000000D+00
410  4.0900000000000D+00  0.0000000000000D+00  0.0000000000000D+00
411  4.1000000000000D+00  0.0000000000000D+00  0.0000000000000D+00
412  4.1100000000000D+00  0.0000000000000D+00  0.0000000000000D+00
413  4.1200000000000D+00  0.0000000000000D+00  0.0000000000000D+00
414  4.1300000000000D+00  0.0000000000000D+00  0.0000000000000D+00
415  4.1400000000000D+00  0.0000000000000D+00  0.0000000000000D+00
416  4.1500000000000D+00  0.0000000000000D+00  0.0000000000000D+00
417  4.1600000000000D+00  0.0000000000000D+00  0.0000000000000D+00
418  4.1700000000000D+00  0.0000000000000D+00  0.0000000000000D+00
419  4.1800000000000D+00  0.0000000000000D+00  0.0000000000000D+00
420  4.1900000000000D+00  0.0000000000000D+00  0.0000000000000D+00
421  4.2000000000000D+00  0.0000000000000D+00  0.0000000000000D+00
422  4.2100000000000D+00  0.0000000000000D+00  0.0000000000000D+00
423  4.2200000000000D+00  0.0000000000000D+00  0.0000000000000D+00
424  4.2300000000000D+00  0.0000000000000D+00  0.0000000000000D+00
425  4.2400000000000D+00  0.0000000000000D+00  0.0000000000000D+00
426  4.2500000000000D+00  0.0000000000000D+00  0.0000000000000D+00
427  4.2600000000000D+00  0.0000000000000D+00  0.0000000000000D+00
428  4.2700000000000D+00  0.0000000000000D+00  0.0000000000000D+00
429  4.2800000000000D+00  0.0000000000000D+00  0.0000000000000D+00
430  4.2900000000000D+00  0.0000000000000D+00  0.0000000000000D+00
431  4.3000000000000D+00  0.0000000000000D+00  0.0000000000000D+00
432  4.3100000000000D+00  0.0000000000000D+00  0.0000000000000D+00
433  4.3200000000000D+00  0.0000000000000D+00  0.0000000000000D+00
434  4.3300000000000D+00  0.0000000000000D+00  0.0000000000000D+00
435  4.3400000000000D+00  0.0000000000000D+00  0.0000000000000D+00
436  4.3500000000000D+00  0.0000000000000D+00  0.0000000000000D+00
437  4.3600000000000D+00  0.0000000000000D+00  0.0000000000000D+00
438  4.3700000000000D+00  0.0000000000000D+00  0.0000000000000D+00
439  4.3800000000000D+00  0.0000000000000D+00  0.0000000000000D+00
440  4.3900000000000D+00  0.0000000000000D+00  0.0000000000000D+00
441  4.4000000000000D+00  0.0000000000000D+00  0.0000000000000D+00
442  4.4100000000000D+00  0.0000000000000D+00  0.0000000000000D+00
443  4.4200000000000D+00  0.0000000000000D+00  0.0000000000000D+00
444  4.4300000000000D+00  0.0000000000000D+00  0.0000000000000D+00