Nb    ONCVPSP  r_core=  1.56  1.66  1.60
41.0000     13.0000      140910    zatom,zion,pspd
8    11     2     4   601     0    pspcod,pspxc,lmax,lloc,mmax,r2well
6.00000000  0.25000000  0.00000000    rchrg fchrg qchrg
2     2     2     0     0    nproj
0                 extension_switch
0                         1.1894145512935D+01  1.1112887854748D+00
1  0.0000000000000D+00 -0.0000000000000D+00  0.0000000000000D+00
2  1.0000000000000D-02 -6.0049957871172D-02  1.7168572741916D-02
3  2.0000000000000D-02 -1.2002661687270D-01  3.4334197577510D-02
4  3.0000000000000D-02 -1.7985655209730D-01  5.1493186641485D-02
5  4.0000000000000D-02 -2.3946608922098D-01  6.8640380744410D-02
6  5.0000000000000D-02 -2.9878118641625D-01  8.5768435119545D-02
7  6.0000000000000D-02 -3.5772732414135D-01  1.0286713064869D-01
8  7.0000000000000D-02 -4.1622940531552D-01  1.1992271870991D-01
9  8.0000000000000D-02 -4.7421166829181D-01  1.3691730749099D-01
10  9.0000000000000D-02 -5.3159761491910D-01  1.5382829725173D-01
11  1.0000000000000D-01 -5.8830995583975D-01  1.7062787156834D-01
12  1.1000000000000D-01 -6.4427057500881D-01  1.8728255112037D-01
13  1.2000000000000D-01 -6.9940051523363D-01  2.0375281599661D-01
14  1.3000000000000D-01 -7.5361998633285D-01  2.1999280191406D-01
15  1.4000000000000D-01 -8.0684839729531D-01  2.3595007500940D-01
16  1.5000000000000D-01 -8.5900441358324D-01  2.5156548930277D-01
17  1.6000000000000D-01 -9.1000604049297D-01  2.6677312995941D-01
18  1.7000000000000D-01 -9.5977073318043D-01  2.8150034495777D-01
19  1.8000000000000D-01 -1.0082155337691D+00  2.9566786666155D-01
20  1.9000000000000D-01 -1.0552572356767D+00  3.0919002428995D-01
21  2.0000000000000D-01 -1.1008125748391D+00  3.2197504714088D-01
22  2.1000000000000D-01 -1.1447984475862D+00  3.3392545776500D-01
23  2.2000000000000D-01 -1.1871321542143D+00  3.4493855321193D-01
24  2.3000000000000D-01 -1.2277316675533D+00  3.5490697216272D-01
25  2.4000000000000D-01 -1.2665159248744D+00  3.6371934399415D-01
26  2.5000000000000D-01 -1.3034051415234D+00  3.7126101518226D-01
27  2.6000000000000D-01 -1.3383211458125D+00  3.7741485093233D-01
28  2.7000000000000D-01 -1.3711877306683D+00  3.8206210117629D-01
29  2.8000000000000D-01 -1.4019310216224D+00  3.8508332813296D-01
30  2.9000000000000D-01 -1.4304798585446D+00  3.8635938829635D-01
31  3.0000000000000D-01 -1.4567661878517D+00  3.8577245980702D-01
32  3.1000000000000D-01 -1.4807254626191D+00  3.8320710752291D-01
33  3.2000000000000D-01 -1.5022970473680D+00  3.7855137647270D-01
34  3.3000000000000D-01 -1.5214246202068D+00  3.7169789353801D-01
35  3.4000000000000D-01 -1.5380565887605D+00  3.6254501872418D-01
36  3.5000000000000D-01 -1.5521464736222D+00  3.5099792528505D-01
37  3.6000000000000D-01 -1.5636533177162D+00  3.3696975902880D-01
38  3.7000000000000D-01 -1.5725420482429D+00  3.2038268354305D-01
39  3.8000000000000D-01 -1.5787838536170D+00  3.0116897517933D-01
40  3.9000000000000D-01 -1.5823565263668D+00  2.7927203662142D-01
41  4.0000000000000D-01 -1.5832447830279D+00  2.5464735651869D-01
42  4.1000000000000D-01 -1.5814405649461D+00  2.2726342557331D-01
43  4.2000000000000D-01 -1.5769433085257D+00  1.9710257696040D-01
44  4.3000000000000D-01 -1.5697601839866D+00  1.6416174760385D-01
45  4.4000000000000D-01 -1.5599062999128D+00  1.2845315207149D-01
46  4.5000000000000D-01 -1.5474048709942D+00  9.0004861214981D-02
47  4.6000000000000D-01 -1.5322873464749D+00  4.8861278017782D-02
48  4.7000000000000D-01 -1.5145934969786D+00  5.0835035333675D-03
49  4.8000000000000D-01 -1.4943714572729D+00 -4.1250414704352D-02
50  4.9000000000000D-01 -1.4716777181996D+00 -9.0045374628325D-02
51  5.0000000000000D-01 -1.4465771037247D+00 -1.4118913363252D-01
52  5.1000000000000D-01 -1.4191426504600D+00 -1.9455251004244D-01
53  5.2000000000000D-01 -1.3894554662323D+00 -2.4998963701781D-01
54  5.3000000000000D-01 -1.3576045616397D+00 -3.0733826069607D-01
55  5.4000000000000D-01 -1.3236865873462D+00 -3.6642033686164D-01
56  5.5000000000000D-01 -1.2878055605143D+00 -4.2704263758492D-01
57  5.6000000000000D-01 -1.2500725239658D+00 -4.8899751757611D-01
58  5.7000000000000D-01 -1.2106051811160D+00 -5.5206381305144D-01
59  5.8000000000000D-01 -1.1695274432939D+00 -6.1600788061570D-01
60  5.9000000000000D-01 -1.1269690078504D+00 -6.8058466731631D-01
61  6.0000000000000D-01 -1.0830648027897D+00 -7.4553903311245D-01
62  6.1000000000000D-01 -1.0379544708368D+00 -8.1060704338342D-01
63  6.2000000000000D-01 -9.9178182674623D-01 -8.7551732296868D-01
64  6.3000000000000D-01 -9.4469412726490D-01 -9.3999283803490D-01
65  6.4000000000000D-01 -8.9684158131458D-01 -1.0037521629244D+00
66  6.5000000000000D-01 -8.4837662796545D-01 -1.0665112653808D+00
67  6.6000000000000D-01 -7.9945315549409D-01 -1.1279854474863D+00
68  6.7000000000000D-01 -7.5022594251392D-01 -1.1878907695009D+00
69  6.8000000000000D-01 -7.0084997917056D-01 -1.2459457447483D+00
70  6.9000000000000D-01 -6.5147952914979D-01 -1.3018736564461D+00
71  7.0000000000000D-01 -6.0226756186318D-01 -1.3554039867496D+00
72  7.1000000000000D-01 -5.5336503718996D-01 -1.4062741869345D+00
73  7.2000000000000D-01 -5.0492016984739D-01 -1.4542314877845D+00
74  7.3000000000000D-01 -4.5707781861660D-01 -1.4990343971157D+00
75  7.4000000000000D-01 -4.0997852232332D-01 -1.5404550378798D+00
76  7.5000000000000D-01 -3.6375807463025D-01 -1.5782801666950D+00
77  7.6000000000000D-01 -3.1854683769684D-01 -1.6123128061233D+00
78  7.7000000000000D-01 -2.7446911634913D-01 -1.6423737109524D+00
79  7.8000000000000D-01 -2.3164257942458D-01 -1.6683026989061D+00
80  7.9000000000000D-01 -1.9017771916248D-01 -1.6899598662710D+00
81  8.0000000000000D-01 -1.5017735244138D-01 -1.7072266778323D+00
82  8.1000000000000D-01 -1.1173616736360D-01 -1.7200069214433D+00
83  8.2000000000000D-01 -7.4940318361905D-02 -1.7282275185452D+00
84  8.3000000000000D-01 -3.9867072661043D-02 -1.7318391830109D+00
85  8.4000000000000D-01 -6.5845105687661D-03 -1.7308169217854D+00
86  8.5000000000000D-01  2.4848718298942D-02 -1.7251603719339D+00
87  8.6000000000000D-01  5.4383581133914D-02 -1.7148939698856D+00
88  8.7000000000000D-01  8.1980789059148D-02 -1.7000669498632D+00
89  8.8000000000000D-01  1.0761086432646D-01 -1.6807531697348D+00
90  8.9000000000000D-01  1.3125414706905D-01 -1.6570507638018D+00
91  9.0000000000000D-01  1.5290074151942D-01 -1.6290816233718D+00
92  9.1000000000000D-01  1.7255040205148D-01 -1.5969907073517D+00
93  9.2000000000000D-01  1.9021235987843D-01 -1.5609451865573D+00
94  9.3000000000000D-01  2.0590509173591D-01 -1.5211334269642D+00
95  9.4000000000000D-01  2.1965603240678D-01 -1.4777638187346D+00
96  9.5000000000000D-01  2.3150123349673D-01 -1.4310634595290D+00
97  9.6000000000000D-01  2.4148497144470D-01 -1.3812767023287D+00
98  9.7000000000000D-01  2.4965928970590D-01 -1.3286635893448D+00
99  9.8000000000000D-01  2.5608355278583D-01 -1.2734982794885D+00
100  9.9000000000000D-01  2.6082399253112D-01 -1.2160670483130D+00
101  1.0000000000000D+00  2.6395298134303D-01 -1.1566664171326D+00
102  1.0100000000000D+00  2.6554850525153D-01 -1.0956012202308D+00
103  1.0200000000000D+00  2.6569354339297D-01 -1.0331825901666D+00
104  1.0300000000000D+00  2.6447543136305D-01 -9.6972592609731D-01
105  1.0400000000000D+00  2.6198539544122D-01 -9.0554976725177D-01
106  1.0500000000000D+00  2.5831739980557D-01 -8.4097100736029D-01
107  1.0600000000000D+00  2.5356779295228D-01 -7.7630499690728D-01
108  1.0700000000000D+00  2.4783455955471D-01 -7.1186290177571D-01
109  1.0800000000000D+00  2.4121672336384D-01 -6.4794997909571D-01
110  1.0900000000000D+00  2.3381399771630D-01 -5.8486474536769D-01
111  1.1000000000000D+00  2.2572484487987D-01 -5.2289205596297D-01
112  1.1100000000000D+00  2.1704702611465D-01 -4.6230613696778D-01
113  1.1200000000000D+00  2.0787669536848D-01 -4.0336757066714D-01
114  1.1300000000000D+00  1.9830868488683D-01 -3.4632468707710D-01
115  1.1400000000000D+00  1.8843340492454D-01 -2.9140301072182D-01
116  1.1500000000000D+00  1.7833844511762D-01 -2.3881165051828D-01
117  1.1600000000000D+00  1.6810792046211D-01 -1.8874128160279D-01
118  1.1700000000000D+00  1.5782252684026D-01 -1.4136454801752D-01
119  1.1800000000000D+00  1.4755610032272D-01 -9.6825188558726D-02
120  1.1900000000000D+00  1.3737851993992D-01 -5.5248172117691D-02
121  1.2000000000000D+00  1.2735555439211D-01 -1.6739240663167D-02
122  1.2100000000000D+00  1.1754579701287D-01  1.8624445532673D-02
123  1.2200000000000D+00  1.0800187910330D-01  5.0789759525989D-02
124  1.2300000000000D+00  9.8772003033797D-02  7.9722709480457D-02
125  1.2400000000000D+00  8.9897973028018D-02  1.0541422484105D-01
126  1.2500000000000D+00  8.1414001323235D-02  1.2788280628770D-01
127  1.2600000000000D+00  7.3350206454833D-02  1.4716400884809D-01
128  1.2700000000000D+00  6.5730753435462D-02  1.6331572913662D-01
129  1.2800000000000D+00  5.8572030759245D-02  1.7642207831348D-01
130  1.2900000000000D+00  5.1887002733708D-02  1.8658130514414D-01
131  1.3000000000000D+00  4.5682742525437D-02  1.9391222244927D-01
132  1.3100000000000D+00  3.9959817122733D-02  1.9855406778280D-01
133  1.3200000000000D+00  3.4716114342901D-02  2.0065739730825D-01
134  1.3300000000000D+00  2.9943645475574D-02  2.0039070886454D-01
135  1.3400000000000D+00  2.5630244518142D-02  1.9793464261270D-01
136  1.3500000000000D+00  2.1761544466837D-02  1.9347952356552D-01
137  1.3600000000000D+00  1.8318024403583D-02  1.8722715281435D-01
138  1.3700000000000D+00  1.5278542651120D-02  1.7938483781319D-01
139  1.3800000000000D+00  1.2619415537850D-02  1.7016788989601D-01
140  1.3900000000000D+00  1.0314689617849D-02  1.5979199699914D-01
141  1.4000000000000D+00  8.3373819221414D-03  1.4847862198987D-01
142  1.4100000000000D+00  6.6592092213764D-03  1.3644642717640D-01
143  1.4200000000000D+00  5.2517902848241D-03  1.2391163234809D-01
144  1.4300000000000D+00  4.0857745431418D-03  1.1109310472194D-01
145  1.4400000000000D+00  3.1335180756744D-03  9.8193543795116D-02
146  1.4500000000000D+00  2.3663383185683D-03  8.5422245550799D-02
147  1.4600000000000D+00  1.7582509892915D-03  7.2968188710747D-02
148  1.4700000000000D+00  1.2837008352404D-03  6.1017998864389D-02
149  1.4800000000000D+00  9.1861059942368D-04  4.9748073646675D-02
150  1.4900000000000D+00  6.4223877321521D-04  3.9314840179905D-02
151  1.5000000000000D+00  4.3302572447904D-04  2.9879250049644D-02
152  1.5100000000000D+00  2.7563230433066D-04  2.1565803654861D-02
153  1.5200000000000D+00  1.5252106265400D-04  1.4511398001020D-02
154  1.5300000000000D+00  5.5741812098963D-05  8.8027807067522D-03
155  1.5400000000000D+00 -2.2450591765136D-05  4.5271241785069D-03
156  1.5500000000000D+00 -8.0764668956468D-05  1.8349335218996D-03
157  1.5600000000000D+00 -1.1238828201578D-04  5.5287776259646D-04
158  1.5700000000000D+00 -8.1502357194094D-05  4.7300361450795D-05
159  1.5800000000000D+00 -1.5291668083439D-05 -2.1515098816943D-05
160  1.5900000000000D+00  7.5716370302822D-06 -2.0653659774549D-05
161  1.6000000000000D+00  1.5867194536266D-06 -4.3282005756214D-06
162  1.6100000000000D+00  0.0000000000000D+00  0.0000000000000D+00
163  1.6200000000000D+00  0.0000000000000D+00  0.0000000000000D+00
164  1.6300000000000D+00  0.0000000000000D+00  0.0000000000000D+00
165  1.6400000000000D+00  0.0000000000000D+00  0.0000000000000D+00
166  1.6500000000000D+00  0.0000000000000D+00  0.0000000000000D+00
167  1.6600000000000D+00  0.0000000000000D+00  0.0000000000000D+00
168  1.6700000000000D+00  0.0000000000000D+00  0.0000000000000D+00
169  1.6800000000000D+00  0.0000000000000D+00  0.0000000000000D+00
170  1.6900000000000D+00  0.0000000000000D+00  0.0000000000000D+00
171  1.7000000000000D+00  0.0000000000000D+00  0.0000000000000D+00
172  1.7100000000000D+00  0.0000000000000D+00  0.0000000000000D+00
173  1.7200000000000D+00  0.0000000000000D+00  0.0000000000000D+00
174  1.7300000000000D+00  0.0000000000000D+00  0.0000000000000D+00
175  1.7400000000000D+00  0.0000000000000D+00  0.0000000000000D+00
176  1.7500000000000D+00  0.0000000000000D+00  0.0000000000000D+00
177  1.7600000000000D+00  0.0000000000000D+00  0.0000000000000D+00
178  1.7700000000000D+00  0.0000000000000D+00  0.0000000000000D+00
179  1.7800000000000D+00  0.0000000000000D+00  0.0000000000000D+00
180  1.7900000000000D+00  0.0000000000000D+00  0.0000000000000D+00
181  1.8000000000000D+00  0.0000000000000D+00  0.0000000000000D+00
182  1.8100000000000D+00  0.0000000000000D+00  0.0000000000000D+00
183  1.8200000000000D+00  0.0000000000000D+00  0.0000000000000D+00
184  1.8300000000000D+00  0.0000000000000D+00  0.0000000000000D+00
185  1.8400000000000D+00  0.0000000000000D+00  0.0000000000000D+00
186  1.8500000000000D+00  0.0000000000000D+00  0.0000000000000D+00
187  1.8600000000000D+00  0.0000000000000D+00  0.0000000000000D+00
188  1.8700000000000D+00  0.0000000000000D+00  0.0000000000000D+00
189  1.8800000000000D+00  0.0000000000000D+00  0.0000000000000D+00
190  1.8900000000000D+00  0.0000000000000D+00  0.0000000000000D+00
191  1.9000000000000D+00  0.0000000000000D+00  0.0000000000000D+00
192  1.9100000000000D+00  0.0000000000000D+00  0.0000000000000D+00
193  1.9200000000000D+00  0.0000000000000D+00  0.0000000000000D+00
194  1.9300000000000D+00  0.0000000000000D+00  0.0000000000000D+00
195  1.9400000000000D+00  0.0000000000000D+00  0.0000000000000D+00
196  1.9500000000000D+00  0.0000000000000D+00  0.0000000000000D+00
197  1.9600000000000D+00  0.0000000000000D+00  0.0000000000000D+00
198  1.9700000000000D+00  0.0000000000000D+00  0.0000000000000D+00
199  1.9800000000000D+00  0.0000000000000D+00  0.0000000000000D+00
200  1.9900000000000D+00  0.0000000000000D+00  0.0000000000000D+00
201  2.0000000000000D+00  0.0000000000000D+00  0.0000000000000D+00
202  2.0100000000000D+00  0.0000000000000D+00  0.0000000000000D+00
203  2.0200000000000D+00  0.0000000000000D+00  0.0000000000000D+00
204  2.0300000000000D+00  0.0000000000000D+00  0.0000000000000D+00
205  2.0400000000000D+00  0.0000000000000D+00  0.0000000000000D+00
206  2.0500000000000D+00  0.0000000000000D+00  0.0000000000000D+00
207  2.0600000000000D+00  0.0000000000000D+00  0.0000000000000D+00
208  2.0700000000000D+00  0.0000000000000D+00  0.0000000000000D+00
209  2.0800000000000D+00  0.0000000000000D+00  0.0000000000000D+00
210  2.0900000000000D+00  0.0000000000000D+00  0.0000000000000D+00
211  2.1000000000000D+00  0.0000000000000D+00  0.0000000000000D+00
212  2.1100000000000D+00  0.0000000000000D+00  0.0000000000000D+00
213  2.1200000000000D+00  0.0000000000000D+00  0.0000000000000D+00
214  2.1300000000000D+00  0.0000000000000D+00  0.0000000000000D+00
215  2.1400000000000D+00  0.0000000000000D+00  0.0000000000000D+00
216  2.1500000000000D+00  0.0000000000000D+00  0.0000000000000D+00
217  2.1600000000000D+00  0.0000000000000D+00  0.0000000000000D+00
218  2.1700000000000D+00  0.0000000000000D+00  0.0000000000000D+00
219  2.1800000000000D+00  0.0000000000000D+00  0.0000000000000D+00
220  2.1900000000000D+00  0.0000000000000D+00  0.0000000000000D+00
221  2.2000000000000D+00  0.0000000000000D+00  0.0000000000000D+00
222  2.2100000000000D+00  0.0000000000000D+00  0.0000000000000D+00
223  2.2200000000000D+00  0.0000000000000D+00  0.0000000000000D+00
224  2.2300000000000D+00  0.0000000000000D+00  0.0000000000000D+00
225  2.2400000000000D+00  0.0000000000000D+00  0.0000000000000D+00
226  2.2500000000000D+00  0.0000000000000D+00  0.0000000000000D+00
227  2.2600000000000D+00  0.0000000000000D+00  0.0000000000000D+00
228  2.2700000000000D+00  0.0000000000000D+00  0.0000000000000D+00
229  2.2800000000000D+00  0.0000000000000D+00  0.0000000000000D+00
230  2.2900000000000D+00  0.0000000000000D+00  0.0000000000000D+00
231  2.3000000000000D+00  0.0000000000000D+00  0.0000000000000D+00
232  2.3100000000000D+00  0.0000000000000D+00  0.0000000000000D+00
233  2.3200000000000D+00  0.0000000000000D+00  0.0000000000000D+00
234  2.3300000000000D+00  0.0000000000000D+00  0.0000000000000D+00
235  2.3400000000000D+00  0.0000000000000D+00  0.0000000000000D+00
236  2.3500000000000D+00  0.0000000000000D+00  0.0000000000000D+00
237  2.3600000000000D+00  0.0000000000000D+00  0.0000000000000D+00
238  2.3700000000000D+00  0.0000000000000D+00  0.0000000000000D+00
239  2.3800000000000D+00  0.0000000000000D+00  0.0000000000000D+00
240  2.3900000000000D+00  0.0000000000000D+00  0.0000000000000D+00
241  2.4000000000000D+00  0.0000000000000D+00  0.0000000000000D+00
242  2.4100000000000D+00  0.0000000000000D+00  0.0000000000000D+00
243  2.4200000000000D+00  0.0000000000000D+00  0.0000000000000D+00
244  2.4300000000000D+00  0.0000000000000D+00  0.0000000000000D+00
245  2.4400000000000D+00  0.0000000000000D+00  0.0000000000000D+00
246  2.4500000000000D+00  0.0000000000000D+00  0.0000000000000D+00
247  2.4600000000000D+00  0.0000000000000D+00  0.0000000000000D+00
248  2.4700000000000D+00  0.0000000000000D+00  0.0000000000000D+00
249  2.4800000000000D+00  0.0000000000000D+00  0.0000000000000D+00
250  2.4900000000000D+00  0.0000000000000D+00  0.0000000000000D+00
251  2.5000000000000D+00  0.0000000000000D+00  0.0000000000000D+00
252  2.5100000000000D+00  0.0000000000000D+00  0.0000000000000D+00
253  2.5200000000000D+00  0.0000000000000D+00  0.0000000000000D+00
254  2.5300000000000D+00  0.0000000000000D+00  0.0000000000000D+00
255  2.5400000000000D+00  0.0000000000000D+00  0.0000000000000D+00
256  2.5500000000000D+00  0.0000000000000D+00  0.0000000000000D+00
257  2.5600000000000D+00  0.0000000000000D+00  0.0000000000000D+00
258  2.5700000000000D+00  0.0000000000000D+00  0.0000000000000D+00
259  2.5800000000000D+00  0.0000000000000D+00  0.0000000000000D+00
260  2.5900000000000D+00  0.0000000000000D+00  0.0000000000000D+00
261  2.6000000000000D+00  0.0000000000000D+00  0.0000000000000D+00
262  2.6100000000000D+00  0.0000000000000D+00  0.0000000000000D+00
263  2.6200000000000D+00  0.0000000000000D+00  0.0000000000000D+00
264  2.6300000000000D+00  0.0000000000000D+00  0.0000000000000D+00
265  2.6400000000000D+00  0.0000000000000D+00  0.0000000000000D+00
266  2.6500000000000D+00  0.0000000000000D+00  0.0000000000000D+00
267  2.6600000000000D+00  0.0000000000000D+00  0.0000000000000D+00
268  2.6700000000000D+00  0.0000000000000D+00  0.0000000000000D+00
269  2.6800000000000D+00  0.0000000000000D+00  0.0000000000000D+00
270  2.6900000000000D+00  0.0000000000000D+00  0.0000000000000D+00
271  2.7000000000000D+00  0.0000000000000D+00  0.0000000000000D+00
272  2.7100000000000D+00  0.0000000000000D+00  0.0000000000000D+00
273  2.7200000000000D+00  0.0000000000000D+00  0.0000000000000D+00
274  2.7300000000000D+00  0.0000000000000D+00  0.0000000000000D+00
275  2.7400000000000D+00  0.0000000000000D+00  0.0000000000000D+00
276  2.7500000000000D+00  0.0000000000000D+00  0.0000000000000D+00
277  2.7600000000000D+00  0.0000000000000D+00  0.0000000000000D+00
278  2.7700000000000D+00  0.0000000000000D+00  0.0000000000000D+00
279  2.7800000000000D+00  0.0000000000000D+00  0.0000000000000D+00
280  2.7900000000000D+00  0.0000000000000D+00  0.0000000000000D+00
281  2.8000000000000D+00  0.0000000000000D+00  0.0000000000000D+00
282  2.8100000000000D+00  0.0000000000000D+00  0.0000000000000D+00
283  2.8200000000000D+00  0.0000000000000D+00  0.0000000000000D+00
284  2.8300000000000D+00  0.0000000000000D+00  0.0000000000000D+00
285  2.8400000000000D+00  0.0000000000000D+00  0.0000000000000D+00
286  2.8500000000000D+00  0.0000000000000D+00  0.0000000000000D+00
287  2.8600000000000D+00  0.0000000000000D+00  0.0000000000000D+00
288  2.8700000000000D+00  0.0000000000000D+00  0.0000000000000D+00
289  2.8800000000000D+00  0.0000000000000D+00  0.0000000000000D+00
290  2.8900000000000D+00  0.0000000000000D+00  0.0000000000000D+00
291  2.9000000000000D+00  0.0000000000000D+00  0.0000000000000D+00
292  2.9100000000000D+00  0.0000000000000D+00  0.0000000000000D+00
293  2.9200000000000D+00  0.0000000000000D+00  0.0000000000000D+00
294  2.9300000000000D+00  0.0000000000000D+00  0.0000000000000D+00
295  2.9400000000000D+00  0.0000000000000D+00  0.0000000000000D+00
296  2.9500000000000D+00  0.0000000000000D+00  0.0000000000000D+00
297  2.9600000000000D+00  0.0000000000000D+00  0.0000000000000D+00
298  2.9700000000000D+00  0.0000000000000D+00  0.0000000000000D+00
299  2.9800000000000D+00  0.0000000000000D+00  0.0000000000000D+00
300  2.9900000000000D+00  0.0000000000000D+00  0.0000000000000D+00
301  3.0000000000000D+00  0.0000000000000D+00  0.0000000000000D+00
302  3.0100000000000D+00  0.0000000000000D+00  0.0000000000000D+00
303  3.0200000000000D+00  0.0000000000000D+00  0.0000000000000D+00
304  3.0300000000000D+00  0.0000000000000D+00  0.0000000000000D+00
305  3.0400000000000D+00  0.0000000000000D+00  0.0000000000000D+00
306  3.0500000000000D+00  0.0000000000000D+00  0.0000000000000D+00
307  3.0600000000000D+00  0.0000000000000D+00  0.0000000000000D+00
308  3.0700000000000D+00  0.0000000000000D+00  0.0000000000000D+00
309  3.0800000000000D+00  0.0000000000000D+00  0.0000000000000D+00
310  3.0900000000000D+00  0.0000000000000D+00  0.0000000000000D+00
311  3.1000000000000D+00  0.0000000000000D+00  0.0000000000000D+00
312  3.1100000000000D+00  0.0000000000000D+00  0.0000000000000D+00
313  3.1200000000000D+00  0.0000000000000D+00  0.0000000000000D+00
314  3.1300000000000D+00  0.0000000000000D+00  0.0000000000000D+00
315  3.1400000000000D+00  0.0000000000000D+00  0.0000000000000D+00
316  3.1500000000000D+00  0.0000000000000D+00  0.0000000000000D+00
317  3.1600000000000D+00  0.0000000000000D+00  0.0000000000000D+00
318  3.1700000000000D+00  0.0000000000000D+00  0.0000000000000D+00
319  3.1800000000000D+00  0.0000000000000D+00  0.0000000000000D+00
320  3.1900000000000D+00  0.0000000000000D+00  0.0000000000000D+00
321  3.2000000000000D+00  0.0000000000000D+00  0.0000000000000D+00
322  3.2100000000000D+00  0.0000000000000D+00  0.0000000000000D+00
323  3.2200000000000D+00  0.0000000000000D+00  0.0000000000000D+00
324  3.2300000000000D+00  0.0000000000000D+00  0.0000000000000D+00
325  3.2400000000000D+00  0.0000000000000D+00  0.0000000000000D+00
326  3.2500000000000D+00  0.0000000000000D+00  0.0000000000000D+00
327  3.2600000000000D+00  0.0000000000000D+00  0.0000000000000D+00
328  3.2700000000000D+00  0.0000000000000D+00  0.0000000000000D+00
329  3.2800000000000D+00  0.0000000000000D+00  0.0000000000000D+00
330  3.2900000000000D+00  0.0000000000000D+00  0.0000000000000D+00
331  3.3000000000000D+00  0.0000000000000D+00  0.0000000000000D+00
332  3.3100000000000D+00  0.0000000000000D+00  0.0000000000000D+00
333  3.3200000000000D+00  0.0000000000000D+00  0.0000000000000D+00
334  3.3300000000000D+00  0.0000000000000D+00  0.0000000000000D+00
335  3.3400000000000D+00  0.0000000000000D+00  0.0000000000000D+00
336  3.3500000000000D+00  0.0000000000000D+00  0.0000000000000D+00
337  3.3600000000000D+00  0.0000000000000D+00  0.0000000000000D+00
338  3.3700000000000D+00  0.0000000000000D+00  0.0000000000000D+00
339  3.3800000000000D+00  0.0000000000000D+00  0.0000000000000D+00
340  3.3900000000000D+00  0.0000000000000D+00  0.0000000000000D+00
341  3.4000000000000D+00  0.0000000000000D+00  0.0000000000000D+00
342  3.4100000000000D+00  0.0000000000000D+00  0.0000000000000D+00
343  3.4200000000000D+00  0.0000000000000D+00  0.0000000000000D+00
344  3.4300000000000D+00  0.0000000000000D+00  0.0000000000000D+00
345  3.4400000000000D+00  0.0000000000000D+00  0.0000000000000D+00
346  3.4500000000000D+00  0.0000000000000D+00  0.0000000000000D+00
347  3.4600000000000D+00  0.0000000000000D+00  0.0000000000000D+00
348  3.4700000000000D+00  0.0000000000000D+00  0.0000000000000D+00
349  3.4800000000000D+00  0.0000000000000D+00  0.0000000000000D+00
350  3.4900000000000D+00  0.0000000000000D+00  0.0000000000000D+00
351  3.5000000000000D+00  0.0000000000000D+00  0.0000000000000D+00
352  3.5100000000000D+00  0.0000000000000D+00  0.0000000000000D+00
353  3.5200000000000D+00  0.0000000000000D+00  0.0000000000000D+00
354  3.5300000000000D+00  0.0000000000000D+00  0.0000000000000D+00
355  3.5400000000000D+00  0.0000000000000D+00  0.0000000000000D+00
356  3.5500000000000D+00  0.0000000000000D+00  0.0000000000000D+00
357  3.5600000000000D+00  0.0000000000000D+00  0.0000000000000D+00
358  3.5700000000000D+00  0.0000000000000D+00  0.0000000000000D+00
359  3.5800000000000D+00  0.0000000000000D+00  0.0000000000000D+00
360  3.5900000000000D+00  0.0000000000000D+00  0.0000000000000D+00
361  3.6000000000000D+00  0.0000000000000D+00  0.0000000000000D+00
362  3.6100000000000D+00  0.0000000000000D+00  0.0000000000000D+00
363  3.6200000000000D+00  0.0000000000000D+00  0.0000000000000D+00
364  3.6300000000000D+00  0.0000000000000D+00  0.0000000000000D+00
365  3.6400000000000D+00  0.0000000000000D+00  0.0000000000000D+00
366  3.6500000000000D+00  0.0000000000000D+00  0.0000000000000D+00
367  3.6600000000000D+00  0.0000000000000D+00  0.0000000000000D+00
368  3.6700000000000D+00  0.0000000000000D+00  0.0000000000000D+00
369  3.6800000000000D+00  0.0000000000000D+00  0.0000000000000D+00
370  3.6900000000000D+00  0.0000000000000D+00  0.0000000000000D+00
371  3.7000000000000D+00  0.0000000000000D+00  0.0000000000000D+00
372  3.7100000000000D+00  0.0000000000000D+00  0.0000000000000D+00
373  3.7200000000000D+00  0.0000000000000D+00  0.0000000000000D+00
374  3.7300000000000D+00  0.0000000000000D+00  0.0000000000000D+00
375  3.7400000000000D+00  0.0000000000000D+00  0.0000000000000D+00
376  3.7500000000000D+00  0.0000000000000D+00  0.0000000000000D+00
377  3.7600000000000D+00  0.0000000000000D+00  0.0000000000000D+00
378  3.7700000000000D+00  0.0000000000000D+00  0.0000000000000D+00
379  3.7800000000000D+00  0.0000000000000D+00  0.0000000000000D+00
380  3.7900000000000D+00  0.0000000000000D+00  0.0000000000000D+00
381  3.8000000000000D+00  0.0000000000000D+00  0.0000000000000D+00
382  3.8100000000000D+00  0.0000000000000D+00  0.0000000000000D+00
383  3.8200000000000D+00  0.0000000000000D+00  0.0000000000000D+00
384  3.8300000000000D+00  0.0000000000000D+00  0.0000000000000D+00
385  3.8400000000000D+00  0.0000000000000D+00  0.0000000000000D+00
386  3.8500000000000D+00  0.0000000000000D+00  0.0000000000000D+00
387  3.8600000000000D+00  0.0000000000000D+00  0.0000000000000D+00
388  3.8700000000000D+00  0.0000000000000D+00  0.0000000000000D+00
389  3.8800000000000D+00  0.0000000000000D+00  0.0000000000000D+00
390  3.8900000000000D+00  0.0000000000000D+00  0.0000000000000D+00
391  3.9000000000000D+00  0.0000000000000D+00  0.0000000000000D+00
392  3.9100000000000D+00  0.0000000000000D+00  0.0000000000000D+00
393  3.9200000000000D+00  0.0000000000000D+00  0.0000000000000D+00
394  3.9300000000000D+00  0.0000000000000D+00  0.0000000000000D+00
395  3.9400000000000D+00  0.0000000000000D+00  0.0000000000000D+00
396  3.9500000000000D+00  0.0000000000000D+00  0.0000000000000D+00
397  3.9600000000000D+00  0.0000000000000D+00  0.0000000000000D+00
398  3.9700000000000D+00  0.0000000000000D+00  0.0000000000000D+00
399  3.9800000000000D+00  0.0000000000000D+00  0.0000000000000D+00
400  3.9900000000000D+00  0.0000000000000D+00  0.0000000000000D+00
401  4.0000000000000D+00  0.0000000000000D+00  0.0000000000000D+00
402  4.0100000000000D+00  0.0000000000000D+00  0.0000000000000D+00
403  4.0200000000000D+00  0.0000000000000D+00  0.0000000000000D+00
404  4.0300000000000D+00  0.0000000000000D+00  0.0000000000000D+00
405  4.0400000000000D+00  0.0000000000000D+00  0.0000000000000D+00
406  4.0500000000000D+00  0.0000000000000D+00  0.0000000000000D+00
407  4.0600000000000D+00  0.0000000000000D+00  0.0000000000000D+00
408  4.0700000000000D+00  0.0000000000000D+00  0.0000000000000D+00
409  4.0800000000000D+00  0.0000000000000D+00  0.0000000000000D+00
410  4.0900000000000D+00  0.0000000000000D+00  0.0000000000000D+00
411  4.1000000000000D+00  0.0000000000000D+00  0.0000000000000D+00
412  4.1100000000000D+00  0.0000000000000D+00  0.0000000000000D+00
413  4.1200000000000D+00  0.0000000000000D+00  0.0000000000000D+00
414  4.1300000000000D+00  0.0000000000000D+00  0.0000000000000D+00
415  4.1400000000000D+00  0.0000000000000D+00  0.0000000000000D+00
416  4.1500000000000D+00  0.0000000000000D+00  0.0000000000000D+00
417  4.1600000000000D+00  0.0000000000000D+00  0.0000000000000D+00
418  4.1700000000000D+00  0.0000000000000D+00  0.0000000000000D+00
419  4.1800000000000D+00  0.0000000000000D+00  0.0000000000000D+00
420  4.1900000000000D+00  0.0000000000000D+00  0.0000000000000D+00
421  4.2000000000000D+00  0.0000000000000D+00  0.0000000000000D+00
422  4.2100000000000D+00  0.0000000000000D+00  0.0000000000000D+00
423  4.2200000000000D+00  0.0000000000000D+00  0.0000000000000D+00
424  4.2300000000000D+00  0.0000000000000D+00  0.0000000000000D+00
425  4.2400000000000D+00  0.0000000000000D+00  0.0000000000000D+00
426  4.2500000000000D+00  0.0000000000000D+00  0.0000000000000D+00
427  4.2600000000000D+00  0.0000000000000D+00  0.0000000000000D+00
428  4.2700000000000D+00  0.0000000000000D+00  0.0000000000000D+00
429  4.2800000000000D+00  0.0000000000000D+00  0.0000000000000D+00
430  4.2900000000000D+00  0.0000000000000D+00  0.0000000000000D+00
431  4.3000000000000D+00  0.0000000000000D+00  0.0000000000000D+00
432  4.3100000000000D+00  0.0000000000000D+00  0.0000000000000D+00
433  4.3200000000000D+00  0.0000000000000D+00  0.0000000000000D+00
434  4.3300000000000D+00  0.0000000000000D+00  0.0000000000000D+00
435  4.3400000000000D+00  0.0000000000000D+00  0.0000000000000D+00
436  4.3500000000000D+00  0.0000000000000D+00  0.0000000000000D+00
437  4.3600000000000D+00  0.0000000000000D+00  0.0000000000000D+00
438  4.3700000000000D+00  0.0000000000000D+00  0.0000000000000D+00
439  4.3800000000000D+00  0.0000000000000D+00  0.0000000000000D+00
440  4.3900000000000D+00  0.0000000000000D+00  0.0000000000000D+00
441  4.4000000000000D+00  0.0000000000000D+00  0.0000000000000D+00
442  4.4100000000000D+00  0.0000000000000D+00  0.0000000000000D+00
443  4.4200000000000D+00  0.0000000000000D+00  0.0000000000000D+00
444  4.4300000000000D+00  0.0000000000000D+00  0.0000000000000D+00