Hf    ONCVPSP-3.2.3  r_core=   1.71613   1.71613   1.71613   2.42541
72.0000     12.0000      170222    zatom,zion,pspd
8      11   3     4   600     0    pspcod,pspxc,lmax,lloc,mmax,r2well
5.99000000  5.40000000  0.00000000    rchrg fchrg qchrg
2     4     4     4    nproj
3     1           extension_switch
4     4     4    nprojso
0                        -5.2972739757936D-01  5.8128870299412D+00
1  0.0000000000000D+00  1.5624197491348D-09  7.1857297889721D-11
2  1.0000000000000D-02 -5.6604706833807D-02  5.1177716764059D-02
3  2.0000000000000D-02 -1.1281245082320D-01  1.0229894682498D-01
4  3.0000000000000D-02 -1.6822996518535D-01  1.5330715297088D-01
5  4.0000000000000D-02 -2.2247133686012D-01  2.0414569858414D-01
6  5.0000000000000D-02 -2.7516158777088D-01  2.5475780194928D-01
7  6.0000000000000D-02 -3.2594014248269D-01  3.0508649532245D-01
8  7.0000000000000D-02 -3.7446414624162D-01  3.5507459026445D-01
9  8.0000000000000D-02 -4.2041159894135D-01  4.0466465066758D-01
10  9.0000000000000D-02 -4.6348427248609D-01  4.5379897481789D-01
11  1.0000000000000D-01 -5.0341038128323D-01  5.0241958773060D-01
12  1.1000000000000D-01 -5.3994697818063D-01  5.5046824487735D-01
13  1.2000000000000D-01 -5.7288205103684D-01  5.9788644829211D-01
14  1.3000000000000D-01 -6.0203629824828D-01  6.4461547589796D-01
15  1.4000000000000D-01 -6.2726456492259D-01  6.9059642474252D-01
16  1.5000000000000D-01 -6.4845692494861D-01  7.3577026866565D-01
17  1.6000000000000D-01 -6.6553939793380D-01  7.8007793075197D-01
18  1.7000000000000D-01 -6.7847429382047D-01  8.2346037074414D-01
19  1.8000000000000D-01 -6.8726018191475D-01  8.6585868741225D-01
20  1.9000000000000D-01 -6.9193148502548D-01  9.0721423569223D-01
21  2.0000000000000D-01 -6.9255770337279D-01  9.4746875822412D-01
22  2.1000000000000D-01 -6.8924227684830D-01  9.8656453074030D-01
23  2.2000000000000D-01 -6.8212109804868D-01  1.0244445205775D+00
24  2.3000000000000D-01 -6.7136069222193D-01  1.0610525574147D+00
25  2.4000000000000D-01 -6.5715608382329D-01  1.0963335151771D+00
26  2.5000000000000D-01 -6.3972837273559D-01  1.1302335038897D+00
27  2.6000000000000D-01 -6.1932204633465D-01  1.1627000701221D+00
28  2.7000000000000D-01 -5.9620205643745D-01  1.1936824045357D+00
29  2.8000000000000D-01 -5.7065069273182D-01  1.2231315549249D+00
30  2.9000000000000D-01 -5.4296428652100D-01  1.2510006430437D+00
31  3.0000000000000D-01 -5.1344978050201D-01  1.2772450834230D+00
32  3.1000000000000D-01 -4.8242120181136D-01  1.3018228023144D+00
33  3.2000000000000D-01 -4.5019607669840D-01  1.3246944548472D+00
34  3.3000000000000D-01 -4.1709182591231D-01  1.3458236384527D+00
35  3.4000000000000D-01 -3.8342218020326D-01  1.3651771005975D+00
36  3.5000000000000D-01 -3.4949365523809D-01  1.3827249388760D+00
37  3.6000000000000D-01 -3.1560212471342D-01  1.3984407915367D+00
38  3.7000000000000D-01 -2.8202952951872D-01  1.4123020165655D+00
39  3.8000000000000D-01 -2.4904075946668D-01  1.4242898575131D+00
40  3.9000000000000D-01 -2.1688074237854D-01  1.4343895943379D+00
41  4.0000000000000D-01 -1.8577177320600D-01  1.4425906776391D+00
42  4.1000000000000D-01 -1.5591111340695D-01  1.4488868447720D+00
43  4.2000000000000D-01 -1.2746888799470D-01  1.4532762164741D+00
44  4.3000000000000D-01 -1.0058630457691D-01  1.4557613727811D+00
45  4.4000000000000D-01 -7.5374215320243D-02  1.4563494071736D+00
46  4.5000000000000D-01 -5.1912039156217D-02  1.4550519580739D+00
47  4.6000000000000D-01 -3.0247057717041D-02  1.4518852169941D+00
48  4.7000000000000D-01 -1.0394094497030D-02  1.4468699128355D+00
49  4.8000000000000D-01  7.6644173833697D-03  1.4400312720377D+00
50  4.9000000000000D-01  2.3977977635855D-02  1.4313989544819D+00
51  5.0000000000000D-01  3.8627174552171D-02  1.4210069652624D+00
52  5.1000000000000D-01  5.1722461345900D-02  1.4088935426500D+00
53  5.2000000000000D-01  6.3402564580811D-02  1.3951010227767D+00
54  5.3000000000000D-01  7.3832540275180D-02  1.3796756817798D+00
55  5.4000000000000D-01  8.3201497228589D-02  1.3626675563385D+00
56  5.5000000000000D-01  9.1720010896407D-02  1.3441302437309D+00
57  5.6000000000000D-01  9.9617254699183D-02  1.3241206827217D+00
58  5.7000000000000D-01  1.0713787894711D-01  1.3026989167599D+00
59  5.8000000000000D-01  1.1453867057065D-01  1.2799278411276D+00
60  5.9000000000000D-01  1.2208502951275D-01  1.2558729358231D+00
61  6.0000000000000D-01  1.3004729995858D-01  1.2306019860885D+00
62  6.1000000000000D-01  1.3869699649530D-01  1.2041847926057D+00
63  6.2000000000000D-01  1.4830296681429D-01  1.1766928734728D+00
64  6.3000000000000D-01  1.5912753364446D-01  1.1481991601491D+00
65  6.4000000000000D-01  1.7142265924689D-01  1.1187776896053D+00
66  6.5000000000000D-01  1.8542617597774D-01  1.0885032949499D+00
67  6.6000000000000D-01  2.0135812614847D-01  1.0574512968109D+00
68  6.7000000000000D-01  2.1941725366655D-01  1.0256971977397D+00
69  6.8000000000000D-01  2.3977768873393D-01  9.9331638187216D-01
70  6.9000000000000D-01  2.6258586523271D-01  9.6038382202686D-01
71  7.0000000000000D-01  2.8795770833165D-01  9.2697379634374D-01
72  7.1000000000000D-01  3.1597612733675D-01  8.9315961647337D-01
73  7.2000000000000D-01  3.4668884590454D-01  8.5901336921025D-01
74  7.3000000000000D-01  3.8010659845277D-01  8.2460567333133D-01
75  7.4000000000000D-01  4.1620171800498D-01  7.9000545325171D-01
76  7.5000000000000D-01  4.5490713676175D-01  7.5527973094300D-01
77  7.6000000000000D-01  4.9611581652365D-01  7.2049343738166D-01
78  7.7000000000000D-01  5.3968062167462D-01  6.8570924460286D-01
79  7.8000000000000D-01  5.8541464284532D-01  6.5098741923428D-01
80  7.9000000000000D-01  6.3309197465281D-01  6.1638569817444D-01
81  8.0000000000000D-01  6.8244894610401D-01  5.8195918686444D-01
82  8.1000000000000D-01  7.3318579740339D-01  5.4776028038238D-01
83  8.2000000000000D-01  7.8496879207695D-01  5.1383860736831D-01
84  8.3000000000000D-01  8.3743274856218D-01  4.8024099656679D-01
85  8.4000000000000D-01  8.9018397075453D-01  4.4701146555583D-01
86  8.5000000000000D-01  9.4280355252778D-01  4.1419123101815D-01
87  8.6000000000000D-01  9.9485102696956D-01  3.8181873970474D-01
88  8.7000000000000D-01  1.0458683270678D+00  3.4992971904434D-01
89  8.8000000000000D-01  1.0953840208780D+00  3.1855724616697D-01
90  8.9000000000000D-01  1.1429177808490D+00  2.8773183393829D-01
91  9.0000000000000D-01  1.1879850440057D+00  2.5748153244424D-01
92  9.1000000000000D-01  1.2301018171535D+00  2.2783204422630D-01
93  9.2000000000000D-01  1.2687895791533D+00  1.9880685144510D-01
94  9.3000000000000D-01  1.3035802307038D+00  1.7042735304846D-01
95  9.4000000000000D-01  1.3340210409465D+00  1.4271300993849D-01
96  9.5000000000000D-01  1.3596795396012D+00  1.1568149607214D-01
97  9.6000000000000D-01  1.3801483032607D+00  8.9348853392307D-02
98  9.7000000000000D-01  1.3950495849315D+00  6.3729648471097D-02
99  9.8000000000000D-01  1.4040397368929D+00  3.8837128755168D-02
100  9.9000000000000D-01  1.4068133784569D+00  1.4683376333151D-02
101  1.0000000000000D+00  1.4031072623030D+00 -8.7205427994921D-03
102  1.0100000000000D+00  1.3927037954821D+00 -3.1364435931355D-02
103  1.0200000000000D+00  1.3754341743196D+00 -5.3238849134513D-02
104  1.0300000000000D+00  1.3511810958697D+00 -7.4334942809626D-02
105  1.0400000000000D+00  1.3198810124674D+00 -9.4644378877828D-02
106  1.0500000000000D+00  1.2815259001698D+00 -1.1415922106778D-01
107  1.0600000000000D+00  1.2361645167592D+00 -1.3287184956648D-01
108  1.0700000000000D+00  1.1839031292976D+00 -1.5077489114096D-01
109  1.0800000000000D+00  1.1249056971393D+00 -1.6786116561317D-01
110  1.0900000000000D+00  1.0593935011909D+00 -1.8412364938164D-01
111  1.1000000000000D+00  9.8764421593519D-01 -1.9955545646043D-01
112  1.1100000000000D+00  9.0999042645871D-01 -2.1414983727997D-01
113  1.1200000000000D+00  8.2681759772690D-01 -2.2790019529591D-01
114  1.1300000000000D+00  7.3856151001618D-01 -2.4080012118422D-01
115  1.1400000000000D+00  6.4570517913181D-01 -2.5284344420964D-01
116  1.1500000000000D+00  5.4877528610875D-01 -2.6402430010586D-01
117  1.1600000000000D+00  4.4833814506450D-01 -2.7433721464384D-01
118  1.1700000000000D+00  3.4499524455558D-01 -2.8377720178610D-01
119  1.1800000000000D+00  2.3937840131917D-01 -2.9233987517628D-01
120  1.1900000000000D+00  1.3214456967608D-01 -3.0002157152674D-01
121  1.2000000000000D+00  2.3970353738755D-02 -3.0681948430281D-01
122  1.2100000000000D+00 -8.4453726379722D-02 -3.1273180592448D-01
123  1.2200000000000D+00 -1.9242916070817D-01 -3.1775787659553D-01
124  1.2300000000000D+00 -2.9925551245508D-01 -3.2189833779124D-01
125  1.2400000000000D+00 -4.0423655902293D-01 -3.2515528827345D-01
126  1.2500000000000D+00 -5.0668645220459D-01 -3.2753244049635D-01
127  1.2600000000000D+00 -6.0593583758861D-01 -3.2903527521093D-01
128  1.2700000000000D+00 -7.0133787251979D-01 -3.2967119202662D-01
129  1.2800000000000D+00 -7.9227408377043D-01 -3.2944965374711D-01
130  1.2900000000000D+00 -8.7816000577263D-01 -3.2838232228119D-01
131  1.3000000000000D+00 -9.5845054225563D-01 -3.2648318398593D-01
132  1.3100000000000D+00 -1.0326449985820D+00 -3.2376866246462D-01
133  1.3200000000000D+00 -1.1002917307181D+00 -3.2025771678798D-01
134  1.3300000000000D+00 -1.1609923633758D+00 -3.1597192334535D-01
135  1.3400000000000D+00 -1.2144055361190D+00 -3.1093553977552D-01
136  1.3500000000000D+00 -1.2602501311695D+00 -3.0517554922840D-01
137  1.3600000000000D+00 -1.2983079539014D+00 -2.9872168386755D-01
138  1.3700000000000D+00 -1.3284258348502D+00 -2.9160642644632D-01
139  1.3800000000000D+00 -1.3505171243029D+00 -2.8386498886993D-01
140  1.3900000000000D+00 -1.3645625700170D+00 -2.7553526741874D-01
141  1.4000000000000D+00 -1.3706105568601D+00 -2.6665777384815D-01
142  1.4100000000000D+00 -1.3687767066288D+00 -2.5727554234110D-01
143  1.4200000000000D+00 -1.3592428421479D+00 -2.4743401252565D-01
144  1.4300000000000D+00 -1.3422553107350D+00 -2.3718088840794D-01
145  1.4400000000000D+00 -1.3181226958198D+00 -2.2656597440984D-01
146  1.4500000000000D+00 -1.2872129216548D+00 -2.1564098875325D-01
147  1.4600000000000D+00 -1.2499497852420D+00 -2.0445935559217D-01
148  1.4700000000000D+00 -1.2068089466469D+00 -1.9307597717986D-01
149  1.4800000000000D+00 -1.1583134060823D+00 -1.8154698724343D-01
150  1.4900000000000D+00 -1.1050285258494D+00 -1.6992948792878D-01
151  1.5000000000000D+00 -1.0475566246877D+00 -1.5828127145509D-01
152  1.5100000000000D+00 -9.8653121502345D-01 -1.4666052933899D-01
153  1.5200000000000D+00 -9.2261092418428D-01 -1.3512555086898D-01
154  1.5300000000000D+00 -8.5647316744608D-01 -1.2373441358585D-01
155  1.5400000000000D+00 -7.8880763055833D-01 -1.1254466811375D-01
156  1.5500000000000D+00 -7.2030962681832D-01 -1.0161301998685D-01
157  1.5600000000000D+00 -6.5167339454196D-01 -9.0995011142594D-02
158  1.5700000000000D+00 -5.8358540218777D-01 -8.0744703816892D-02
159  1.5800000000000D+00 -5.1671772466204D-01 -7.0914369413039D-02
160  1.5900000000000D+00 -4.5172156470241D-01 -6.1554185350254D-02
161  1.6000000000000D+00 -3.8922097356427D-01 -5.2711942082189D-02
162  1.6100000000000D+00 -3.2980684941902D-01 -4.4432763473264D-02
163  1.6200000000000D+00 -2.7403125830542D-01 -3.6758842340577D-02
164  1.6300000000000D+00 -2.2240215409384D-01 -2.9729194267049D-02
165  1.6400000000000D+00 -1.7537853456102D-01 -2.3379431177834D-02
166  1.6500000000000D+00 -1.3336610201831D-01 -1.7741557456384D-02
167  1.6600000000000D+00 -9.6729482746281D-02 -1.2845914367038D-02
168  1.6700000000000D+00 -6.5732477329447D-02 -8.7135301159668D-03
169  1.6800000000000D+00 -4.0478471281759D-02 -5.3488243030340D-03
170  1.6900000000000D+00 -2.1322746938281D-02 -2.7930592952519D-03
171  1.7000000000000D+00 -8.8076990671103D-03 -1.1145310578601D-03
172  1.7100000000000D+00 -2.3379405484856D-03 -2.4260172343002D-04
173  1.7200000000000D+00  2.2314420895218D-05  5.9341985302520D-05
174  1.7300000000000D+00  2.5995796118768D-04  5.6213874377718D-05
175  1.7400000000000D+00 -7.5867599512001D-05 -1.4660782241938D-05
176  1.7500000000000D+00 -1.1979206277744D-04 -2.1923466133708D-05
177  1.7600000000000D+00  8.9602244931824D-06  1.8874065476410D-06
178  1.7700000000000D+00  2.1485851513140D-05  4.3575841908763D-06
179  1.7800000000000D+00  3.6192604307443D-07  4.8810151456603D-09
180  1.7900000000000D+00  1.5391175863302D-06  2.0756882223821D-08
181  1.8000000000000D+00  5.1186890326002D-10  6.9031779204982D-12
182  1.8100000000000D+00  0.0000000000000D+00  0.0000000000000D+00
183  1.8200000000000D+00  0.0000000000000D+00  0.0000000000000D+00
184  1.8300000000000D+00  0.0000000000000D+00  0.0000000000000D+00
185  1.8400000000000D+00  0.0000000000000D+00  0.0000000000000D+00
186  1.8500000000000D+00  0.0000000000000D+00  0.0000000000000D+00
187  1.8600000000000D+00  0.0000000000000D+00  0.0000000000000D+00
188  1.8700000000000D+00  0.0000000000000D+00  0.0000000000000D+00
189  1.8800000000000D+00  0.0000000000000D+00  0.0000000000000D+00
190  1.8900000000000D+00  0.0000000000000D+00  0.0000000000000D+00
191  1.9000000000000D+00  0.0000000000000D+00  0.0000000000000D+00
192  1.9100000000000D+00  0.0000000000000D+00  0.0000000000000D+00
193  1.9200000000000D+00  0.0000000000000D+00  0.0000000000000D+00
194  1.9300000000000D+00  0.0000000000000D+00  0.0000000000000D+00
195  1.9400000000000D+00  0.0000000000000D+00  0.0000000000000D+00
196  1.9500000000000D+00  0.0000000000000D+00  0.0000000000000D+00
197  1.9600000000000D+00  0.0000000000000D+00  0.0000000000000D+00
198  1.9700000000000D+00  0.0000000000000D+00  0.0000000000000D+00
199  1.9800000000000D+00  0.0000000000000D+00  0.0000000000000D+00
200  1.9900000000000D+00  0.0000000000000D+00  0.0000000000000D+00
201  2.0000000000000D+00  0.0000000000000D+00  0.0000000000000D+00
202  2.0100000000000D+00  0.0000000000000D+00  0.0000000000000D+00
203  2.0200000000000D+00  0.0000000000000D+00  0.0000000000000D+00
204  2.0300000000000D+00  0.0000000000000D+00  0.0000000000000D+00
205  2.0400000000000D+00  0.0000000000000D+00  0.0000000000000D+00
206  2.0500000000000D+00  0.0000000000000D+00  0.0000000000000D+00
207  2.0600000000000D+00  0.0000000000000D+00  0.0000000000000D+00
208  2.0700000000000D+00  0.0000000000000D+00  0.0000000000000D+00
209  2.0800000000000D+00  0.0000000000000D+00  0.0000000000000D+00
210  2.0900000000000D+00  0.0000000000000D+00  0.0000000000000D+00
211  2.1000000000000D+00  0.0000000000000D+00  0.0000000000000D+00
212  2.1100000000000D+00  0.0000000000000D+00  0.0000000000000D+00
213  2.1200000000000D+00  0.0000000000000D+00  0.0000000000000D+00
214  2.1300000000000D+00  0.0000000000000D+00  0.0000000000000D+00
215  2.1400000000000D+00  0.0000000000000D+00  0.0000000000000D+00
216  2.1500000000000D+00  0.0000000000000D+00  0.0000000000000D+00
217  2.1600000000000D+00  0.0000000000000D+00  0.0000000000000D+00
218  2.1700000000000D+00  0.0000000000000D+00  0.0000000000000D+00
219  2.1800000000000D+00  0.0000000000000D+00  0.0000000000000D+00
220  2.1900000000000D+00  0.0000000000000D+00  0.0000000000000D+00
221  2.2000000000000D+00  0.0000000000000D+00  0.0000000000000D+00
222  2.2100000000000D+00  0.0000000000000D+00  0.0000000000000D+00
223  2.2200000000000D+00  0.0000000000000D+00  0.0000000000000D+00
224  2.2300000000000D+00  0.0000000000000D+00  0.0000000000000D+00
225  2.2400000000000D+00  0.0000000000000D+00  0.0000000000000D+00
226  2.2500000000000D+00  0.0000000000000D+00  0.0000000000000D+00
227  2.2600000000000D+00  0.0000000000000D+00  0.0000000000000D+00
228  2.2700000000000D+00  0.0000000000000D+00  0.0000000000000D+00
229  2.2800000000000D+00  0.0000000000000D+00  0.0000000000000D+00
230  2.2900000000000D+00  0.0000000000000D+00  0.0000000000000D+00
231  2.3000000000000D+00  0.0000000000000D+00  0.0000000000000D+00
232  2.3100000000000D+00  0.0000000000000D+00  0.0000000000000D+00
233  2.3200000000000D+00  0.0000000000000D+00  0.0000000000000D+00
234  2.3300000000000D+00  0.0000000000000D+00  0.0000000000000D+00
235  2.3400000000000D+00  0.0000000000000D+00  0.0000000000000D+00
236  2.3500000000000D+00  0.0000000000000D+00  0.0000000000000D+00
237  2.3600000000000D+00  0.0000000000000D+00  0.0000000000000D+00
238  2.3700000000000D+00  0.0000000000000D+00  0.0000000000000D+00
239  2.3800000000000D+00  0.0000000000000D+00  0.0000000000000D+00
240  2.3900000000000D+00  0.0000000000000D+00  0.0000000000000D+00
241  2.4000000000000D+00  0.0000000000000D+00  0.0000000000000D+00
242  2.4100000000000D+00  0.0000000000000D+00  0.0000000000000D+00
243  2.4200000000000D+00  0.0000000000000D+00  0.0000000000000D+00
244  2.4300000000000D+00  0.0000000000000D+00  0.0000000000000D+00
245  2.4400000000000D+00  0.0000000000000D+00  0.0000000000000D+00
246  2.4500000000000D+00  0.0000000000000D+00  0.0000000000000D+00
247  2.4600000000000D+00  0.0000000000000D+00  0.0000000000000D+00
248  2.4700000000000D+00  0.0000000000000D+00  0.0000000000000D+00
249  2.4800000000000D+00  0.0000000000000D+00  0.0000000000000D+00
250  2.4900000000000D+00  0.0000000000000D+00  0.0000000000000D+00
251  2.5000000000000D+00  0.0000000000000D+00  0.0000000000000D+00
252  2.5100000000000D+00  0.0000000000000D+00  0.0000000000000D+00
253  2.5200000000000D+00  0.0000000000000D+00  0.0000000000000D+00
254  2.5300000000000D+00  0.0000000000000D+00  0.0000000000000D+00
255  2.5400000000000D+00  0.0000000000000D+00  0.0000000000000D+00
256  2.5500000000000D+00  0.0000000000000D+00  0.0000000000000D+00
257  2.5600000000000D+00  0.0000000000000D+00  0.0000000000000D+00
258  2.5700000000000D+00  0.0000000000000D+00  0.0000000000000D+00
259  2.5800000000000D+00  0.0000000000000D+00  0.0000000000000D+00
260  2.5900000000000D+00  0.0000000000000D+00  0.0000000000000D+00
261  2.6000000000000D+00  0.0000000000000D+00  0.0000000000000D+00
262  2.6100000000000D+00  0.0000000000000D+00  0.0000000000000D+00
263  2.6200000000000D+00  0.0000000000000D+00  0.0000000000000D+00
264  2.6300000000000D+00  0.0000000000000D+00  0.0000000000000D+00
265  2.6400000000000D+00  0.0000000000000D+00  0.0000000000000D+00
266  2.6500000000000D+00  0.0000000000000D+00  0.0000000000000D+00
267  2.6600000000000D+00  0.0000000000000D+00  0.0000000000000D+00
268  2.6700000000000D+00  0.0000000000000D+00  0.0000000000000D+00
269  2.6800000000000D+00  0.0000000000000D+00  0.0000000000000D+00
270  2.6900000000000D+00  0.0000000000000D+00  0.0000000000000D+00
271  2.7000000000000D+00  0.0000000000000D+00  0.0000000000000D+00
272  2.7100000000000D+00  0.0000000000000D+00  0.0000000000000D+00
273  2.7200000000000D+00  0.0000000000000D+00  0.0000000000000D+00
274  2.7300000000000D+00  0.0000000000000D+00  0.0000000000000D+00
275  2.7400000000000D+00  0.0000000000000D+00  0.0000000000000D+00
276  2.7500000000000D+00  0.0000000000000D+00  0.0000000000000D+00
277  2.7600000000000D+00  0.0000000000000D+00  0.0000000000000D+00
278  2.7700000000000D+00  0.0000000000000D+00  0.0000000000000D+00
279  2.7800000000000D+00  0.0000000000000D+00  0.0000000000000D+00
280  2.7900000000000D+00  0.0000000000000D+00  0.0000000000000D+00
281  2.8000000000000D+00  0.0000000000000D+00  0.0000000000000D+00
282  2.8100000000000D+00  0.0000000000000D+00  0.0000000000000D+00
283  2.8200000000000D+00  0.0000000000000D+00  0.0000000000000D+00
284  2.8300000000000D+00  0.0000000000000D+00  0.0000000000000D+00
285  2.8400000000000D+00  0.0000000000000D+00  0.0000000000000D+00
286  2.8500000000000D+00  0.0000000000000D+00  0.0000000000000D+00
287  2.8600000000000D+00  0.0000000000000D+00  0.0000000000000D+00
288  2.8700000000000D+00  0.0000000000000D+00  0.0000000000000D+00
289  2.8800000000000D+00  0.0000000000000D+00  0.0000000000000D+00
290  2.8900000000000D+00  0.0000000000000D+00  0.0000000000000D+00
291  2.9000000000000D+00  0.0000000000000D+00  0.0000000000000D+00
292  2.9100000000000D+00  0.0000000000000D+00  0.0000000000000D+00
293  2.9200000000000D+00  0.0000000000000D+00  0.0000000000000D+00
294  2.9300000000000D+00  0.0000000000000D+00  0.0000000000000D+00
295  2.9400000000000D+00  0.0000000000000D+00  0.0000000000000D+00
296  2.9500000000000D+00  0.0000000000000D+00  0.0000000000000D+00
297  2.9600000000000D+00  0.0000000000000D+00  0.0000000000000D+00
298  2.9700000000000D+00  0.0000000000000D+00  0.0000000000000D+00
299  2.9800000000000D+00  0.0000000000000D+00  0.0000000000000D+00
300  2.9900000000000D+00  0.0000000000000D+00  0.0000000000000D+00
301  3.0000000000000D+00  0.0000000000000D+00  0.0000000000000D+00
302  3.0100000000000D+00  0.0000000000000D+00  0.0000000000000D+00
303  3.0200000000000D+00  0.0000000000000D+00  0.0000000000000D+00
304  3.0300000000000D+00  0.0000000000000D+00  0.0000000000000D+00
305  3.0400000000000D+00  0.0000000000000D+00  0.0000000000000D+00
306  3.0500000000000D+00  0.0000000000000D+00  0.0000000000000D+00
307  3.0600000000000D+00  0.0000000000000D+00  0.0000000000000D+00
308  3.0700000000000D+00  0.0000000000000D+00  0.0000000000000D+00
309  3.0800000000000D+00  0.0000000000000D+00  0.0000000000000D+00
310  3.0900000000000D+00  0.0000000000000D+00  0.0000000000000D+00
311  3.1000000000000D+00  0.0000000000000D+00  0.0000000000000D+00
312  3.1100000000000D+00  0.0000000000000D+00  0.0000000000000D+00
313  3.1200000000000D+00  0.0000000000000D+00  0.0000000000000D+00
314  3.1300000000000D+00  0.0000000000000D+00  0.0000000000000D+00
315  3.1400000000000D+00  0.0000000000000D+00  0.0000000000000D+00
316  3.1500000000000D+00  0.0000000000000D+00  0.0000000000000D+00
317  3.1600000000000D+00  0.0000000000000D+00  0.0000000000000D+00
318  3.1700000000000D+00  0.0000000000000D+00  0.0000000000000D+00
319  3.1800000000000D+00  0.0000000000000D+00  0.0000000000000D+00
320  3.1900000000000D+00  0.0000000000000D+00  0.0000000000000D+00
321  3.2000000000000D+00  0.0000000000000D+00  0.0000000000000D+00
322  3.2100000000000D+00  0.0000000000000D+00  0.0000000000000D+00
323  3.2200000000000D+00  0.0000000000000D+00  0.0000000000000D+00
324  3.2300000000000D+00  0.0000000000000D+00  0.0000000000000D+00
325  3.2400000000000D+00  0.0000000000000D+00  0.0000000000000D+00
326  3.2500000000000D+00  0.0000000000000D+00  0.0000000000000D+00
327  3.2600000000000D+00  0.0000000000000D+00  0.0000000000000D+00
328  3.2700000000000D+00  0.0000000000000D+00  0.0000000000000D+00
329  3.2800000000000D+00  0.0000000000000D+00  0.0000000000000D+00
330  3.2900000000000D+00  0.0000000000000D+00  0.0000000000000D+00
331  3.3000000000000D+00  0.0000000000000D+00  0.0000000000000D+00
332  3.3100000000000D+00  0.0000000000000D+00  0.0000000000000D+00
333  3.3200000000000D+00  0.0000000000000D+00  0.0000000000000D+00
334  3.3300000000000D+00  0.0000000000000D+00  0.0000000000000D+00
335  3.3400000000000D+00  0.0000000000000D+00  0.0000000000000D+00
336  3.3500000000000D+00  0.0000000000000D+00  0.0000000000000D+00
337  3.3600000000000D+00  0.0000000000000D+00  0.0000000000000D+00
338  3.3700000000000D+00  0.0000000000000D+00  0.0000000000000D+00
339  3.3800000000000D+00  0.0000000000000D+00  0.0000000000000D+00
340  3.3900000000000D+00  0.0000000000000D+00  0.0000000000000D+00
341  3.4000000000000D+00  0.0000000000000D+00  0.0000000000000D+00
342  3.4100000000000D+00  0.0000000000000D+00  0.0000000000000D+00
343  3.4200000000000D+00  0.0000000000000D+00  0.0000000000000D+00
344  3.4300000000000D+00  0.0000000000000D+00  0.0000000000000D+00
345  3.4400000000000D+00  0.0000000000000D+00  0.0000000000000D+00
346  3.4500000000000D+00  0.0000000000000D+00  0.0000000000000D+00
347  3.4600000000000D+00  0.0000000000000D+00  0.0000000000000D+00
348  3.4700000000000D+00  0.0000000000000D+00  0.0000000000000D+00
349  3.4800000000000D+00  0.0000000000000D+00  0.0000000000000D+00
350  3.4900000000000D+00  0.0000000000000D+00  0.0000000000000D+00
351  3.5000000000000D+00  0.0000000000000D+00  0.0000000000000D+00
352  3.5100000000000D+00  0.0000000000000D+00  0.0000000000000D+00
353  3.5200000000000D+00  0.0000000000000D+00  0.0000000000000D+00
354  3.5300000000000D+00  0.0000000000000D+00  0.0000000000000D+00
355  3.5400000000000D+00  0.0000000000000D+00  0.0000000000000D+00
356  3.5500000000000D+00  0.0000000000000D+00  0.0000000000000D+00
357  3.5600000000000D+00  0.0000000000000D+00  0.0000000000000D+00
358  3.5700000000000D+00  0.0000000000000D+00  0.0000000000000D+00
359  3.5800000000000D+00  0.0000000000000D+00  0.0000000000000D+00
360  3.5900000000000D+00  0.0000000000000D+00  0.0000000000000D+00
361  3.6000000000000D+00  0.0000000000000D+00  0.0000000000000D+00
362  3.6100000000000D+00  0.0000000000000D+00  0.0000000000000D+00
363  3.6200000000000D+00  0.0000000000000D+00  0.0000000000000D+00
364  3.6300000000000D+00  0.0000000000000D+00  0.0000000000000D+00
365  3.6400000000000D+00  0.0000000000000D+00  0.0000000000000D+00
366  3.6500000000000D+00  0.0000000000000D+00  0.0000000000000D+00
367  3.6600000000000D+00  0.0000000000000D+00  0.0000000000000D+00
368  3.6700000000000D+00  0.0000000000000D+00  0.0000000000000D+00
369  3.6800000000000D+00  0.0000000000000D+00  0.0000000000000D+00
370  3.6900000000000D+00  0.0000000000000D+00  0.0000000000000D+00
371  3.7000000000000D+00  0.0000000000000D+00  0.0000000000000D+00
372  3.7100000000000D+00  0.0000000000000D+00  0.0000000000000D+00
373  3.7200000000000D+00  0.0000000000000D+00  0.0000000000000D+00
374  3.7300000000000D+00  0.0000000000000D+00  0.0000000000000D+00
375  3.7400000000000D+00  0.0000000000000D+00  0.0000000000000D+00
376  3.7500000000000D+00  0.0000000000000D+00  0.0000000000000D+00
377  3.7600000000000D+00  0.0000000000000D+00  0.0000000000000D+00
378  3.7700000000000D+00  0.0000000000000D+00  0.0000000000000D+00
379  3.7800000000000D+00  0.0000000000000D+00  0.0000000000000D+00
380  3.7900000000000D+00  0.0000000000000D+00  0.0000000000000D+00
381  3.8000000000000D+00  0.0000000000000D+00  0.0000000000000D+00
382  3.8100000000000D+00  0.0000000000000D+00  0.0000000000000D+00
383  3.8200000000000D+00  0.0000000000000D+00  0.0000000000000D+00
384  3.8300000000000D+00  0.0000000000000D+00  0.0000000000000D+00
385  3.8400000000000D+00  0.0000000000000D+00  0.0000000000000D+00
386  3.8500000000000D+00  0.0000000000000D+00  0.0000000000000D+00
387  3.8600000000000D+00  0.0000000000000D+00  0.0000000000000D+00
388  3.8700000000000D+00  0.0000000000000D+00  0.0000000000000D+00
389  3.8800000000000D+00  0.0000000000000D+00  0.0000000000000D+00
390  3.8900000000000D+00  0.0000000000000D+00  0.0000000000000D+00
391  3.9000000000000D+00  0.0000000000000D+00  0.0000000000000D+00
392  3.9100000000000D+00  0.0000000000000D+00  0.0000000000000D+00
393  3.9200000000000D+00  0.0000000000000D+00  0.0000000000000D+00
394  3.9300000000000D+00  0.0000000000000D+00  0.0000000000000D+00
395  3.9400000000000D+00  0.0000000000000D+00  0.0000000000000D+00
396  3.9500000000000D+00  0.0000000000000D+00  0.0000000000000D+00
397  3.9600000000000D+00  0.0000000000000D+00  0.0000000000000D+00
398  3.9700000000000D+00  0.0000000000000D+00  0.0000000000000D+00
399  3.9800000000000D+00  0.0000000000000D+00  0.0000000000000D+00
400  3.9900000000000D+00  0.0000000000000D+00  0.0000000000000D+00
401  4.0000000000000D+00  0.0000000000000D+00  0.0000000000000D+00
402  4.0100000000000D+00  0.0000000000000D+00  0.0000000000000D+00
403  4.0200000000000D+00  0.0000000000000D+00  0.0000000000000D+00
404  4.0300000000000D+00  0.0000000000000D+00  0.0000000000000D+00
405  4.0400000000000D+00  0.0000000000000D+00  0.0000000000000D+00
406  4.0500000000000D+00  0.0000000000000D+00  0.0000000000000D+00
407  4.0600000000000D+00  0.0000000000000D+00  0.0000000000000D+00
408  4.0700000000000D+00  0.0000000000000D+00  0.0000000000000D+00
409  4.0800000000000D+00  0.0000000000000D+00  0.0000000000000D+00
410  4.0900000000000D+00  0.0000000000000D+00  0.0000000000000D+00
411  4.1000000000000D+00  0.0000000000000D+00  0.0000000000000D+00
412  4.1100000000000D+00  0.0000000000000D+00  0.0000000000000D+00
413  4.1200000000000D+00  0.0000000000000D+00  0.0000000000000D+00
414  4.1300000000000D+00  0.0000000000000D+00  0.0000000000000D+00
415  4.1400000000000D+00  0.0000000000000D+00  0.0000000000000D+00
416  4.1500000000000D+00  0.0000000000000D+00  0.0000000000000D+00
417  4.1600000000000D+00  0.0000000000000D+00  0.0000000000000D+00
418  4.1700000000000D+00  0.0000000000000D+00  0.0000000000000D+00
419  4.1800000000000D+00  0.0000000000000D+00  0.0000000000000D+00
420  4.1900000000000D+00  0.0000000000000D+00  0.0000000000000D+00
421  4.2000000000000D+00  0.0000000000000D+00  0.0000000000000D+00
422  4.2100000000000D+00  0.0000000000000D+00  0.0000000000000D+00
423  4.2200000000000D+00  0.0000000000000D+00  0.0000000000000D+00
424  4.2300000000000D+00  0.0000000000000D+00  0.0000000000000D+00
425  4.2400000000000D+00  0.0000000000000D+00  0.0000000000000D+00
426  4.2500000000000D+00  0.0000000000000D+00  0.0000000000000D+00
427  4.2600000000000D+00  0.0000000000000D+00  0.0000000000000D+00
428  4.2700000000000D+00  0.0000000000000D+00  0.0000000000000D+00
429  4.2800000000000D+00  0.0000000000000D+00  0.0000000000000D+00
430  4.2900000000000D+00  0.0000000000000D+00  0.0000000000000D+00
431  4.3000000000000D+00  0.0000000000000D+00  0.0000000000000D+00
432  4.3100000000000D+00  0.0000000000000D+00  0.0000000000000D+00
433  4.3200000000000D+00  0.0000000000000D+00  0.0000000000000D+00
434  4.3300000000000D+00  0.0000000000000D+00  0.0000000000000D+00
435  4.3400000000000D+00  0.0000000000000D+00  0.0000000000000D+00
436  4.3500000000000D+00  0.0000000000000D+00  0.0000000000000D+00
437  4.3600000000000D+00  0.0000000000000D+00  0.0000000000000D+00
438  4.3700000000000D+00  0.0000000000000D+00  0.0000000000000D+00
439  4.3800000000000D+00  0.0000000000000D+00  0.0000000000000D+00
440  4.3900000000000D+00  0.0000000000000D+00  0.0000000000000D+00
441  4.4000000000000D+00  0.0000000000000D+00  0.0000000000000D+00
442  4.4100000000000D+00  0.0000000000000D+00  0.0000000000000D+00
443  4.4200000000000D+00  0.0000000000000D+00  0.0000000000000D+00