Li    ONCVPSP  r_core=  1.21  1.01
3.0000      3.0000      150123    zatom,zion,pspd
8      11   1     4   400     0    pspcod,pspxc,lmax,lloc,mmax,r2well
3.99000000  0.00000000  0.00000000    rchrg fchrg qchrg
2     2     0     0     0    nproj
0                 extension_switch
0                        -5.7718044933286D+00 -2.0030526892134D+00
1  0.0000000000000D+00  0.0000000000000D+00 -0.0000000000000D+00
2  1.0000000000000D-02  1.1708199714053D-01 -2.9341804234709D-02
3  2.0000000000000D-02  2.3376144837885D-01 -5.8461556763577D-02
4  3.0000000000000D-02  3.4963592823996D-01 -8.7135656660735D-02
5  4.0000000000000D-02  4.6430329062914D-01 -1.1513747897088D-01
6  5.0000000000000D-02  5.7736190383857D-01 -1.4223604695972D-01
7  6.0000000000000D-02  6.8841099715823D-01 -1.6819492058868D-01
8  7.0000000000000D-02  7.9705115173252D-01 -1.9277136523544D-01
9  8.0000000000000D-02  9.0288496451358D-01 -2.1571585800478D-01
10  9.0000000000000D-02  1.0055179095887D+00 -2.3677198087023D-01
11  1.0000000000000D-01  1.1045594158780D+00 -2.5567674056530D-01
12  1.1000000000000D-01  1.1996241743262D+00 -2.7216134474930D-01
13  1.2000000000000D-01  1.2903336814196D+00 -2.8595245277590D-01
14  1.3000000000000D-01  1.3763180192260D+00 -2.9677390762907D-01
15  1.4000000000000D-01  1.4572178651056D+00 -3.0434894320510D-01
16  1.5000000000000D-01  1.5326867180410D+00 -3.0840284952343D-01
17  1.6000000000000D-01  1.6023933204677D+00 -3.0866606503240D-01
18  1.7000000000000D-01  1.6660242500885D+00 -3.0487765575591D-01
19  1.8000000000000D-01  1.7232866471700D+00 -2.9678912673181D-01
20  1.9000000000000D-01  1.7739110417229D+00 -2.8416850661635D-01
21  2.0000000000000D-01  1.8176542312459D+00 -2.6680462561484D-01
22  2.1000000000000D-01  1.8543021737167D+00 -2.4451152413738D-01
23  2.2000000000000D-01  1.8836728288466D+00 -2.1713288391981D-01
24  2.3000000000000D-01  1.9056189100639D+00 -1.8454641322268D-01
25  2.4000000000000D-01  1.9200304799192D+00 -1.4666807420518D-01
26  2.5000000000000D-01  1.9268373566601D+00 -1.0345609257960D-01
27  2.6000000000000D-01  1.9260112375686D+00 -5.4914593431922D-02
28  2.7000000000000D-01  1.9175675485461D+00 -1.0968685190316D-03
29  2.8000000000000D-01  1.9015669056459D+00  5.7891913892697D-02
30  2.9000000000000D-01  1.8781161967326D+00  1.2189255224036D-01
31  3.0000000000000D-01  1.8473692195490D+00  1.9069031700228D-01
32  3.1000000000000D-01  1.8095268481334D+00  2.6401417070595D-01
33  3.2000000000000D-01  1.7648366984779D+00  3.4153675838091D-01
34  3.3000000000000D-01  1.7135922943487D+00  4.2287516679764D-01
35  3.4000000000000D-01  1.6561316871014D+00  5.0759254087257D-01
36  3.5000000000000D-01  1.5928355626390D+00  5.9520051019700D-01
37  3.6000000000000D-01  1.5241248198032D+00  6.8516243741150D-01
38  3.7000000000000D-01  1.4504576424620D+00  7.7689748399132D-01
39  3.8000000000000D-01  1.3723261181313D+00  8.6978540166103D-01
40  3.9000000000000D-01  1.2902523402759D+00  9.6317212306693D-01
41  4.0000000000000D-01  1.2047841658894D+00  1.0563759335364D+00
42  4.1000000000000D-01  1.1164905898415D+00  1.1486942437811D+00
43  4.2000000000000D-01  1.0259568043641D+00  1.2394108658112D+00
44  4.3000000000000D-01  9.3377901307273D-01  1.3278036817757D+00
45  4.4000000000000D-01  8.4055906126439D-01  1.4131526037598D+00
46  4.5000000000000D-01  7.4689895111318D-01  1.4947477121672D+00
47  4.6000000000000D-01  6.5339531418893D-01  1.5718974538723D+00
48  4.7000000000000D-01  5.6063391752952D-01  1.6439367751114D+00
49  4.8000000000000D-01  4.6918443900622D-01  1.7102348322908D+00
50  4.9000000000000D-01  3.7959480632128D-01  1.7702032907175D+00
51  5.0000000000000D-01  2.9238658052456D-01  1.8233030470296D+00
52  5.1000000000000D-01  2.0805039320919D-01  1.8690507996744D+00
53  5.2000000000000D-01  1.2704145142231D-01  1.9070254362152D+00
54  5.3000000000000D-01  4.9775382683887D-02  1.9368738176550D+00
55  5.4000000000000D-01 -2.3374097298558D-02  1.9583138374358D+00
56  5.5000000000000D-01 -9.2079493022228D-02  1.9711401772238D+00
57  5.6000000000000D-01 -1.5606038249681D-01  1.9752249954487D+00
58  5.7000000000000D-01 -2.1508621998375D-01  1.9705212369267D+00
59  5.8000000000000D-01 -2.6897652803949D-01  1.9570621090805D+00
60  5.9000000000000D-01 -3.1760231523149D-01  1.9349620766844D+00
61  6.0000000000000D-01 -3.6088464976053D-01  1.9044138398200D+00
62  6.1000000000000D-01 -3.9879558937930D-01  1.8656881740336D+00
63  6.2000000000000D-01 -4.3135511316757D-01  1.8191284681479D+00
64  6.3000000000000D-01 -4.5863049911847D-01  1.7651480563579D+00
65  6.4000000000000D-01 -4.8073346998116D-01  1.7042245843017D+00
66  6.5000000000000D-01 -4.9781702050205D-01  1.6368940096331D+00
67  6.6000000000000D-01 -5.1007265854354D-01  1.5637444991087D+00
68  6.7000000000000D-01 -5.1772642423965D-01  1.4854089973871D+00
69  6.8000000000000D-01 -5.2103487730497D-01  1.4025577503939D+00
70  6.9000000000000D-01 -5.2028110311385D-01  1.3158908395939D+00
71  7.0000000000000D-01 -5.1577002638864D-01  1.2261289007447D+00
72  7.1000000000000D-01 -5.0782402468135D-01  1.1340055239120D+00
73  7.2000000000000D-01 -4.9677841957015D-01  1.0402588876947D+00
74  7.3000000000000D-01 -4.8297695144980D-01  9.4562348395022D-01
75  7.4000000000000D-01 -4.6676750674124D-01  8.5082243845847D-01
76  7.5000000000000D-01 -4.4849760985303D-01  7.5655929878474D-01
77  7.6000000000000D-01 -4.2851013588307D-01  6.6351034832219D-01
78  7.7000000000000D-01 -4.0714002085189D-01  5.7231897723881D-01
79  7.8000000000000D-01 -3.8471060165429D-01  4.8358918415337D-01
80  7.9000000000000D-01 -3.6153049609594D-01  3.9788018012898D-01
81  8.0000000000000D-01 -3.3789087153572D-01  3.1570174428706D-01
82  8.1000000000000D-01 -3.1406312876943D-01  2.3751037975532D-01
83  8.2000000000000D-01 -2.9029701989014D-01  1.6370630488463D-01
84  8.3000000000000D-01 -2.6681921095492D-01  9.4631300820165D-02
85  8.4000000000000D-01 -2.4383229253369D-01  3.0567422860995D-02
86  8.5000000000000D-01 -2.2151423375236D-01 -2.8263430177350D-02
87  8.6000000000000D-01 -2.0001826838574D-01 -8.1699106971716D-02
88  8.7000000000000D-01 -1.7947319500093D-01 -1.2963598524477D-01
89  8.8000000000000D-01 -1.5998406717568D-01 -1.7202698491672D-01
90  8.9000000000000D-01 -1.4163324448071D-01 -2.0887886376899D-01
91  9.0000000000000D-01 -1.2448178096299D-01 -2.4024882636614D-01
92  9.1000000000000D-01 -1.0857112363222D-01 -2.6624049085384D-01
93  9.2000000000000D-01 -9.3924258105001D-02 -2.8700148565022D-01
94  9.3000000000000D-01 -8.0546154668505D-02 -3.0272289523704D-01
95  9.4000000000000D-01 -6.8424703550879D-02 -3.1363723309081D-01
96  9.5000000000000D-01 -5.7532656412324D-02 -3.2001364253782D-01
97  9.6000000000000D-01 -4.7829792570486D-02 -3.2215288108484D-01
98  9.7000000000000D-01 -3.9264286119347D-02 -3.2038289401271D-01
99  9.8000000000000D-01 -3.1775511435093D-02 -3.1505277068118D-01
100  9.9000000000000D-01 -2.5295712025814D-02 -3.0652814980023D-01
101  1.0000000000000D+00 -1.9751865701788D-02 -2.9518635543874D-01
102  1.0100000000000D+00 -1.5067432997668D-02 -2.8141172401381D-01
103  1.0200000000000D+00 -1.1163894895422D-02 -2.6559149297719D-01
104  1.0300000000000D+00 -7.9620744616178D-03 -2.4811210413359D-01
105  1.0400000000000D+00 -5.3842052262311D-03 -2.2935215118719D-01
106  1.0500000000000D+00 -3.3543922279618D-03 -2.0968182783054D-01
107  1.0600000000000D+00 -1.7996989421056D-03 -1.8945890423343D-01
108  1.0700000000000D+00 -6.5080357046271D-04 -1.6902630743183D-01
109  1.0800000000000D+00  1.5776688102070D-04 -1.4871123319789D-01
110  1.0900000000000D+00  6.8537617960348D-04 -1.2881531824806D-01
111  1.1000000000000D+00  9.8688669206079D-04 -1.0962054923913D-01
112  1.1100000000000D+00  1.1119769409087D-03 -9.1385573118471D-02
113  1.1200000000000D+00  1.1057603536280D-03 -7.4347805338656D-02
114  1.1300000000000D+00  1.0067356448793D-03 -5.8712539182648D-02
115  1.1400000000000D+00  8.4863288088648D-04 -4.4659735284568D-02
116  1.1500000000000D+00  6.6052574002670D-04 -3.2343490816630D-02
117  1.1600000000000D+00  4.6755382271864D-04 -2.1895185759359D-02
118  1.1700000000000D+00  2.8870800249771D-04 -1.3409032213462D-02
119  1.1800000000000D+00  1.3952803935656D-04 -6.9555173343429D-03
120  1.1900000000000D+00  3.1993825782592D-05 -2.5804973988060D-03
121  1.2000000000000D+00 -2.4650175216097D-05 -4.2823250081387D-04
122  1.2100000000000D+00 -2.9613842568077D-05  1.7832071509289D-04
123  1.2200000000000D+00 -1.1838445345812D-06  1.2694120422627D-05
124  1.2300000000000D+00  1.8982628449590D-06 -3.6383530215606D-06
125  1.2400000000000D+00  0.0000000000000D+00  0.0000000000000D+00
126  1.2500000000000D+00  0.0000000000000D+00  0.0000000000000D+00
127  1.2600000000000D+00  0.0000000000000D+00  0.0000000000000D+00
128  1.2700000000000D+00  0.0000000000000D+00  0.0000000000000D+00
129  1.2800000000000D+00  0.0000000000000D+00  0.0000000000000D+00
130  1.2900000000000D+00  0.0000000000000D+00  0.0000000000000D+00
131  1.3000000000000D+00  0.0000000000000D+00  0.0000000000000D+00
132  1.3100000000000D+00  0.0000000000000D+00  0.0000000000000D+00
133  1.3200000000000D+00  0.0000000000000D+00  0.0000000000000D+00
134  1.3300000000000D+00  0.0000000000000D+00  0.0000000000000D+00
135  1.3400000000000D+00  0.0000000000000D+00  0.0000000000000D+00
136  1.3500000000000D+00  0.0000000000000D+00  0.0000000000000D+00
137  1.3600000000000D+00  0.0000000000000D+00  0.0000000000000D+00
138  1.3700000000000D+00  0.0000000000000D+00  0.0000000000000D+00
139  1.3800000000000D+00  0.0000000000000D+00  0.0000000000000D+00
140  1.3900000000000D+00  0.0000000000000D+00  0.0000000000000D+00
141  1.4000000000000D+00  0.0000000000000D+00  0.0000000000000D+00
142  1.4100000000000D+00  0.0000000000000D+00  0.0000000000000D+00
143  1.4200000000000D+00  0.0000000000000D+00  0.0000000000000D+00
144  1.4300000000000D+00  0.0000000000000D+00  0.0000000000000D+00
145  1.4400000000000D+00  0.0000000000000D+00  0.0000000000000D+00
146  1.4500000000000D+00  0.0000000000000D+00  0.0000000000000D+00
147  1.4600000000000D+00  0.0000000000000D+00  0.0000000000000D+00
148  1.4700000000000D+00  0.0000000000000D+00  0.0000000000000D+00
149  1.4800000000000D+00  0.0000000000000D+00  0.0000000000000D+00
150  1.4900000000000D+00  0.0000000000000D+00  0.0000000000000D+00
151  1.5000000000000D+00  0.0000000000000D+00  0.0000000000000D+00
152  1.5100000000000D+00  0.0000000000000D+00  0.0000000000000D+00
153  1.5200000000000D+00  0.0000000000000D+00  0.0000000000000D+00
154  1.5300000000000D+00  0.0000000000000D+00  0.0000000000000D+00
155  1.5400000000000D+00  0.0000000000000D+00  0.0000000000000D+00
156  1.5500000000000D+00  0.0000000000000D+00  0.0000000000000D+00
157  1.5600000000000D+00  0.0000000000000D+00  0.0000000000000D+00
158  1.5700000000000D+00  0.0000000000000D+00  0.0000000000000D+00
159  1.5800000000000D+00  0.0000000000000D+00  0.0000000000000D+00
160  1.5900000000000D+00  0.0000000000000D+00  0.0000000000000D+00
161  1.6000000000000D+00  0.0000000000000D+00  0.0000000000000D+00
162  1.6100000000000D+00  0.0000000000000D+00  0.0000000000000D+00
163  1.6200000000000D+00  0.0000000000000D+00  0.0000000000000D+00
164  1.6300000000000D+00  0.0000000000000D+00  0.0000000000000D+00
165  1.6400000000000D+00  0.0000000000000D+00  0.0000000000000D+00
166  1.6500000000000D+00  0.0000000000000D+00  0.0000000000000D+00
167  1.6600000000000D+00  0.0000000000000D+00  0.0000000000000D+00
168  1.6700000000000D+00  0.0000000000000D+00  0.0000000000000D+00
169  1.6800000000000D+00  0.0000000000000D+00  0.0000000000000D+00
170  1.6900000000000D+00  0.0000000000000D+00  0.0000000000000D+00
171  1.7000000000000D+00  0.0000000000000D+00  0.0000000000000D+00
172  1.7100000000000D+00  0.0000000000000D+00  0.0000000000000D+00
173  1.7200000000000D+00  0.0000000000000D+00  0.0000000000000D+00
174  1.7300000000000D+00  0.0000000000000D+00  0.0000000000000D+00
175  1.7400000000000D+00  0.0000000000000D+00  0.0000000000000D+00
176  1.7500000000000D+00  0.0000000000000D+00  0.0000000000000D+00
177  1.7600000000000D+00  0.0000000000000D+00  0.0000000000000D+00
178  1.7700000000000D+00  0.0000000000000D+00  0.0000000000000D+00
179  1.7800000000000D+00  0.0000000000000D+00  0.0000000000000D+00
180  1.7900000000000D+00  0.0000000000000D+00  0.0000000000000D+00
181  1.8000000000000D+00  0.0000000000000D+00  0.0000000000000D+00
182  1.8100000000000D+00  0.0000000000000D+00  0.0000000000000D+00
183  1.8200000000000D+00  0.0000000000000D+00  0.0000000000000D+00
184  1.8300000000000D+00  0.0000000000000D+00  0.0000000000000D+00
185  1.8400000000000D+00  0.0000000000000D+00  0.0000000000000D+00
186  1.8500000000000D+00  0.0000000000000D+00  0.0000000000000D+00
187  1.8600000000000D+00  0.0000000000000D+00  0.0000000000000D+00
188  1.8700000000000D+00  0.0000000000000D+00  0.0000000000000D+00
189  1.8800000000000D+00  0.0000000000000D+00  0.0000000000000D+00
190  1.8900000000000D+00  0.0000000000000D+00  0.0000000000000D+00
191  1.9000000000000D+00  0.0000000000000D+00  0.0000000000000D+00
192  1.9100000000000D+00  0.0000000000000D+00  0.0000000000000D+00
193  1.9200000000000D+00  0.0000000000000D+00  0.0000000000000D+00
194  1.9300000000000D+00  0.0000000000000D+00  0.0000000000000D+00
195  1.9400000000000D+00  0.0000000000000D+00  0.0000000000000D+00
196  1.9500000000000D+00  0.0000000000000D+00  0.0000000000000D+00
197  1.9600000000000D+00  0.0000000000000D+00  0.0000000000000D+00
198  1.9700000000000D+00  0.0000000000000D+00  0.0000000000000D+00
199  1.9800000000000D+00  0.0000000000000D+00  0.0000000000000D+00
200  1.9900000000000D+00  0.0000000000000D+00  0.0000000000000D+00
201  2.0000000000000D+00  0.0000000000000D+00  0.0000000000000D+00
202  2.0100000000000D+00  0.0000000000000D+00  0.0000000000000D+00
203  2.0200000000000D+00  0.0000000000000D+00  0.0000000000000D+00
204  2.0300000000000D+00  0.0000000000000D+00  0.0000000000000D+00
205  2.0400000000000D+00  0.0000000000000D+00  0.0000000000000D+00
206  2.0500000000000D+00  0.0000000000000D+00  0.0000000000000D+00
207  2.0600000000000D+00  0.0000000000000D+00  0.0000000000000D+00
208  2.0700000000000D+00  0.0000000000000D+00  0.0000000000000D+00
209  2.0800000000000D+00  0.0000000000000D+00  0.0000000000000D+00
210  2.0900000000000D+00  0.0000000000000D+00  0.0000000000000D+00
211  2.1000000000000D+00  0.0000000000000D+00  0.0000000000000D+00
212  2.1100000000000D+00  0.0000000000000D+00  0.0000000000000D+00
213  2.1200000000000D+00  0.0000000000000D+00  0.0000000000000D+00
214  2.1300000000000D+00  0.0000000000000D+00  0.0000000000000D+00
215  2.1400000000000D+00  0.0000000000000D+00  0.0000000000000D+00
216  2.1500000000000D+00  0.0000000000000D+00  0.0000000000000D+00
217  2.1600000000000D+00  0.0000000000000D+00  0.0000000000000D+00
218  2.1700000000000D+00  0.0000000000000D+00  0.0000000000000D+00
219  2.1800000000000D+00  0.0000000000000D+00  0.0000000000000D+00
220  2.1900000000000D+00  0.0000000000000D+00  0.0000000000000D+00
221  2.2000000000000D+00  0.0000000000000D+00  0.0000000000000D+00
222  2.2100000000000D+00  0.0000000000000D+00  0.0000000000000D+00
223  2.2200000000000D+00  0.0000000000000D+00  0.0000000000000D+00
224  2.2300000000000D+00  0.0000000000000D+00  0.0000000000000D+00
225  2.2400000000000D+00  0.0000000000000D+00  0.0000000000000D+00
226  2.2500000000000D+00  0.0000000000000D+00  0.0000000000000D+00
227  2.2600000000000D+00  0.0000000000000D+00  0.0000000000000D+00
228  2.2700000000000D+00  0.0000000000000D+00  0.0000000000000D+00
229  2.2800000000000D+00  0.0000000000000D+00  0.0000000000000D+00
230  2.2900000000000D+00  0.0000000000000D+00  0.0000000000000D+00
231  2.3000000000000D+00  0.0000000000000D+00  0.0000000000000D+00
232  2.3100000000000D+00  0.0000000000000D+00  0.0000000000000D+00
233  2.3200000000000D+00  0.0000000000000D+00  0.0000000000000D+00
234  2.3300000000000D+00  0.0000000000000D+00  0.0000000000000D+00
235  2.3400000000000D+00  0.0000000000000D+00  0.0000000000000D+00
236  2.3500000000000D+00  0.0000000000000D+00  0.0000000000000D+00
237  2.3600000000000D+00  0.0000000000000D+00  0.0000000000000D+00
238  2.3700000000000D+00  0.0000000000000D+00  0.0000000000000D+00
239  2.3800000000000D+00  0.0000000000000D+00  0.0000000000000D+00
240  2.3900000000000D+00  0.0000000000000D+00  0.0000000000000D+00
241  2.4000000000000D+00  0.0000000000000D+00  0.0000000000000D+00
242  2.4100000000000D+00  0.0000000000000D+00  0.0000000000000D+00
243  2.4200000000000D+00  0.0000000000000D+00  0.0000000000000D+00
244  2.4300000000000D+00  0.0000000000000D+00  0.0000000000000D+00
245  2.4400000000000D+00  0.0000000000000D+00  0.0000000000000D+00
246  2.4500000000000D+00  0.0000000000000D+00  0.0000000000000D+00
247  2.4600000000000D+00  0.0000000000000D+00  0.0000000000000D+00
248  2.4700000000000D+00  0.0000000000000D+00  0.0000000000000D+00
249  2.4800000000000D+00  0.0000000000000D+00  0.0000000000000D+00
250  2.4900000000000D+00  0.0000000000000D+00  0.0000000000000D+00
251  2.5000000000000D+00  0.0000000000000D+00  0.0000000000000D+00
252  2.5100000000000D+00  0.0000000000000D+00  0.0000000000000D+00
253  2.5200000000000D+00  0.0000000000000D+00  0.0000000000000D+00
254  2.5300000000000D+00  0.0000000000000D+00  0.0000000000000D+00
255  2.5400000000000D+00  0.0000000000000D+00  0.0000000000000D+00
256  2.5500000000000D+00  0.0000000000000D+00  0.0000000000000D+00
257  2.5600000000000D+00  0.0000000000000D+00  0.0000000000000D+00
258  2.5700000000000D+00  0.0000000000000D+00  0.0000000000000D+00
259  2.5800000000000D+00  0.0000000000000D+00  0.0000000000000D+00
260  2.5900000000000D+00  0.0000000000000D+00  0.0000000000000D+00
261  2.6000000000000D+00  0.0000000000000D+00  0.0000000000000D+00
262  2.6100000000000D+00  0.0000000000000D+00  0.0000000000000D+00
263  2.6200000000000D+00  0.0000000000000D+00  0.0000000000000D+00
264  2.6300000000000D+00  0.0000000000000D+00  0.0000000000000D+00
265  2.6400000000000D+00  0.0000000000000D+00  0.0000000000000D+00
266  2.6500000000000D+00  0.0000000000000D+00  0.0000000000000D+00
267  2.6600000000000D+00  0.0000000000000D+00  0.0000000000000D+00
268  2.6700000000000D+00  0.0000000000000D+00  0.0000000000000D+00
269  2.6800000000000D+00  0.0000000000000D+00  0.0000000000000D+00
270  2.6900000000000D+00  0.0000000000000D+00  0.0000000000000D+00
271  2.7000000000000D+00  0.0000000000000D+00  0.0000000000000D+00
272  2.7100000000000D+00  0.0000000000000D+00  0.0000000000000D+00
273  2.7200000000000D+00  0.0000000000000D+00  0.0000000000000D+00
274  2.7300000000000D+00  0.0000000000000D+00  0.0000000000000D+00
275  2.7400000000000D+00  0.0000000000000D+00  0.0000000000000D+00
276  2.7500000000000D+00  0.0000000000000D+00  0.0000000000000D+00
277  2.7600000000000D+00  0.0000000000000D+00  0.0000000000000D+00
278  2.7700000000000D+00  0.0000000000000D+00  0.0000000000000D+00
279  2.7800000000000D+00  0.0000000000000D+00  0.0000000000000D+00
280  2.7900000000000D+00  0.0000000000000D+00  0.0000000000000D+00
281  2.8000000000000D+00  0.0000000000000D+00  0.0000000000000D+00
282  2.8100000000000D+00  0.0000000000000D+00  0.0000000000000D+00
283  2.8200000000000D+00  0.0000000000000D+00  0.0000000000000D+00
284  2.8300000000000D+00  0.0000000000000D+00  0.0000000000000D+00
285  2.8400000000000D+00  0.0000000000000D+00  0.0000000000000D+00
286  2.8500000000000D+00  0.0000000000000D+00  0.0000000000000D+00
287  2.8600000000000D+00  0.0000000000000D+00  0.0000000000000D+00
288  2.8700000000000D+00  0.0000000000000D+00  0.0000000000000D+00
289  2.8800000000000D+00  0.0000000000000D+00  0.0000000000000D+00
290  2.8900000000000D+00  0.0000000000000D+00  0.0000000000000D+00
291  2.9000000000000D+00  0.0000000000000D+00  0.0000000000000D+00
292  2.9100000000000D+00  0.0000000000000D+00  0.0000000000000D+00
293  2.9200000000000D+00  0.0000000000000D+00  0.0000000000000D+00
294  2.9300000000000D+00  0.0000000000000D+00  0.0000000000000D+00
295  2.9400000000000D+00  0.0000000000000D+00  0.0000000000000D+00
296  2.9500000000000D+00  0.0000000000000D+00  0.0000000000000D+00
297  2.9600000000000D+00  0.0000000000000D+00  0.0000000000000D+00
298  2.9700000000000D+00  0.0000000000000D+00  0.0000000000000D+00
299  2.9800000000000D+00  0.0000000000000D+00  0.0000000000000D+00
300  2.9900000000000D+00  0.0000000000000D+00  0.0000000000000D+00
301  3.0000000000000D+00  0.0000000000000D+00  0.0000000000000D+00
302  3.0100000000000D+00  0.0000000000000D+00  0.0000000000000D+00
303  3.0200000000000D+00  0.0000000000000D+00  0.0000000000000D+00
304  3.0300000000000D+00  0.0000000000000D+00  0.0000000000000D+00
305  3.0400000000000D+00  0.0000000000000D+00  0.0000000000000D+00
306  3.0500000000000D+00  0.0000000000000D+00  0.0000000000000D+00
307  3.0600000000000D+00  0.0000000000000D+00  0.0000000000000D+00
308  3.0700000000000D+00  0.0000000000000D+00  0.0000000000000D+00
309  3.0800000000000D+00  0.0000000000000D+00  0.0000000000000D+00
310  3.0900000000000D+00  0.0000000000000D+00  0.0000000000000D+00
311  3.1000000000000D+00  0.0000000000000D+00  0.0000000000000D+00
312  3.1100000000000D+00  0.0000000000000D+00  0.0000000000000D+00
313  3.1200000000000D+00  0.0000000000000D+00  0.0000000000000D+00
314  3.1300000000000D+00  0.0000000000000D+00  0.0000000000000D+00
315  3.1400000000000D+00  0.0000000000000D+00  0.0000000000000D+00
316  3.1500000000000D+00  0.0000000000000D+00  0.0000000000000D+00
317  3.1600000000000D+00  0.0000000000000D+00  0.0000000000000D+00
318  3.1700000000000D+00  0.0000000000000D+00  0.0000000000000D+00
319  3.1800000000000D+00  0.0000000000000D+00  0.0000000000000D+00
320  3.1900000000000D+00  0.0000000000000D+00  0.0000000000000D+00
321  3.2000000000000D+00  0.0000000000000D+00  0.0000000000000D+00
322  3.2100000000000D+00  0.0000000000000D+00  0.0000000000000D+00
323  3.2200000000000D+00  0.0000000000000D+00  0.0000000000000D+00
324  3.2300000000000D+00  0.0000000000000D+00  0.0000000000000D+00
325  3.2400000000000D+00  0.0000000000000D+00  0.0000000000000D+00
326  3.2500000000000D+00  0.0000000000000D+00  0.0000000000000D+00
327  3.2600000000000D+00  0.0000000000000D+00  0.0000000000000D+00
328  3.2700000000000D+00  0.0000000000000D+00  0.0000000000000D+00
329  3.2800000000000D+00  0.0000000000000D+00  0.0000000000000D+00
330  3.2900000000000D+00  0.0000000000000D+00  0.0000000000000D+00
331  3.3000000000000D+00  0.0000000000000D+00  0.0000000000000D+00
332  3.3100000000000D+00  0.0000000000000D+00  0.0000000000000D+00
333  3.3200000000000D+00  0.0000000000000D+00  0.0000000000000D+00
334  3.3300000000000D+00  0.0000000000000D+00  0.0000000000000D+00
335  3.3400000000000D+00  0.0000000000000D+00  0.0000000000000D+00
336  3.3500000000000D+00  0.0000000000000D+00  0.0000000000000D+00
337  3.3600000000000D+00  0.0000000000000D+00  0.0000000000000D+00
338  3.3700000000000D+00  0.0000000000000D+00  0.0000000000000D+00
339  3.3800000000000D+00  0.0000000000000D+00  0.0000000000000D+00
340  3.3900000000000D+00  0.0000000000000D+00  0.0000000000000D+00
341  3.4000000000000D+00  0.0000000000000D+00  0.0000000000000D+00
342  3.4100000000000D+00  0.0000000000000D+00  0.0000000000000D+00
343  3.4200000000000D+00  0.0000000000000D+00  0.0000000000000D+00
344  3.4300000000000D+00  0.0000000000000D+00  0.0000000000000D+00
345  3.4400000000000D+00  0.0000000000000D+00  0.0000000000000D+00
346  3.4500000000000D+00  0.0000000000000D+00  0.0000000000000D+00
347  3.4600000000000D+00  0.0000000000000D+00  0.0000000000000D+00
348  3.4700000000000D+00  0.0000000000000D+00  0.0000000000000D+00
349  3.4800000000000D+00  0.0000000000000D+00  0.0000000000000D+00
350  3.4900000000000D+00  0.0000000000000D+00  0.0000000000000D+00
351  3.5000000000000D+00  0.0000000000000D+00  0.0000000000000D+00
352  3.5100000000000D+00  0.0000000000000D+00  0.0000000000000D+00
353  3.5200000000000D+00  0.0000000000000D+00  0.0000000000000D+00
354  3.5300000000000D+00  0.0000000000000D+00  0.0000000000000D+00
355  3.5400000000000D+00  0.0000000000000D+00  0.0000000000000D+00
356  3.5500000000000D+00  0.0000000000000D+00  0.0000000000000D+00
357  3.5600000000000D+00  0.0000000000000D+00  0.0000000000000D+00
358  3.5700000000000D+00  0.0000000000000D+00  0.0000000000000D+00
359  3.5800000000000D+00  0.0000000000000D+00  0.0000000000000D+00
360  3.5900000000000D+00  0.0000000000000D+00  0.0000000000000D+00
361  3.6000000000000D+00  0.0000000000000D+00  0.0000000000000D+00
362  3.6100000000000D+00  0.0000000000000D+00  0.0000000000000D+00
363  3.6200000000000D+00  0.0000000000000D+00  0.0000000000000D+00
364  3.6300000000000D+00  0.0000000000000D+00  0.0000000000000D+00
365  3.6400000000000D+00  0.0000000000000D+00  0.0000000000000D+00
366  3.6500000000000D+00  0.0000000000000D+00  0.0000000000000D+00
367  3.6600000000000D+00  0.0000000000000D+00  0.0000000000000D+00
368  3.6700000000000D+00  0.0000000000000D+00  0.0000000000000D+00
369  3.6800000000000D+00  0.0000000000000D+00  0.0000000000000D+00
370  3.6900000000000D+00  0.0000000000000D+00  0.0000000000000D+00
371  3.7000000000000D+00  0.0000000000000D+00  0.0000000000000D+00
372  3.7100000000000D+00  0.0000000000000D+00  0.0000000000000D+00
373  3.7200000000000D+00  0.0000000000000D+00  0.0000000000000D+00
374  3.7300000000000D+00  0.0000000000000D+00  0.0000000000000D+00
375  3.7400000000000D+00  0.0000000000000D+00  0.0000000000000D+00
376  3.7500000000000D+00  0.0000000000000D+00  0.0000000000000D+00
377  3.7600000000000D+00  0.0000000000000D+00  0.0000000000000D+00
378  3.7700000000000D+00  0.0000000000000D+00  0.0000000000000D+00
379  3.7800000000000D+00  0.0000000000000D+00  0.0000000000000D+00
380  3.7900000000000D+00  0.0000000000000D+00  0.0000000000000D+00
381  3.8000000000000D+00  0.0000000000000D+00  0.0000000000000D+00
382  3.8100000000000D+00  0.0000000000000D+00  0.0000000000000D+00
383  3.8200000000000D+00  0.0000000000000D+00  0.0000000000000D+00
384  3.8300000000000D+00  0.0000000000000D+00  0.0000000000000D+00
385  3.8400000000000D+00  0.0000000000000D+00  0.0000000000000D+00
386  3.8500000000000D+00  0.0000000000000D+00  0.0000000000000D+00
387  3.8600000000000D+00  0.0000000000000D+00  0.0000000000000D+00
388  3.8700000000000D+00  0.0000000000000D+00  0.0000000000000D+00
389  3.8800000000000D+00  0.0000000000000D+00  0.0000000000000D+00
390  3.8900000000000D+00  0.0000000000000D+00  0.0000000000000D+00
391  3.9000000000000D+00  0.0000000000000D+00  0.0000000000000D+00
392  3.9100000000000D+00  0.0000000000000D+00  0.0000000000000D+00
393  3.9200000000000D+00  0.0000000000000D+00  0.0000000000000D+00
394  3.9300000000000D+00  0.0000000000000D+00  0.0000000000000D+00
395  3.9400000000000D+00  0.0000000000000D+00  0.0000000000000D+00
396  3.9500000000000D+00  0.0000000000000D+00  0.0000000000000D+00
397  3.9600000000000D+00  0.0000000000000D+00  0.0000000000000D+00
398  3.9700000000000D+00  0.0000000000000D+00  0.0000000000000D+00
399  3.9800000000000D+00  0.0000000000000D+00  0.0000000000000D+00
400  3.9900000000000D+00  0.0000000000000D+00  0.0000000000000D+00
1                        -2.6638443001684D+01 -1.1523041629583D+00
1  0.0000000000000D+00 -0.0000000000000D+00  0.0000000000000D+00
2  1.0000000000000D-02 -5.2396194083224D-03  3.8670137150519D-03
3  2.0000000000000D-02 -2.0613510306045D-02  1.5377804950119D-02
4  3.0000000000000D-02 -4.5100673313299D-02  3.4264709361029D-02
5  4.0000000000000D-02 -7.7045284413554D-02  6.0091796244334D-02
6  5.0000000000000D-02 -1.1422372338412D-01  9.2269758773889D-02
7  6.0000000000000D-02 -1.5393500750802D-01  1.3007602446472D-01
8  7.0000000000000D-02 -1.9311136686974D-01  1.7267938052706D-01
9  8.0000000000000D-02 -2.2844496271472D-01  2.1916824963230D-01
10  9.0000000000000D-02 -2.5652615490229D-01  2.6858162237108D-01
11  1.0000000000000D-01 -2.7398828842204D-01  3.1994155763937D-01
12  1.1000000000000D-01 -2.7765370837400D-01  3.7228610481577D-01
13  1.2000000000000D-01 -2.6467563706926D-01  4.2470148392389D-01
14  1.3000000000000D-01 -2.3267065773831D-01  4.7635238239782D-01
15  1.4000000000000D-01 -1.7983684633656D-01  5.2650928949815D-01
16  1.5000000000000D-01 -1.0505305997122D-01  5.7457188862622D-01
17  1.6000000000000D-01 -7.9555277995499D-03  6.2008766336433D-01
18  1.7000000000000D-01  1.1101136175490D-01  6.6276503315138D-01
19  1.8000000000000D-01  2.5057227161701D-01  7.0248052928395D-01
20  1.9000000000000D-01  4.0862743239192D-01  7.3927971244602D-01
21  2.0000000000000D-01  5.8228857574483D-01  7.7337178890633D-01
22  2.1000000000000D-01  7.6794380159544D-01  8.0511801223469D-01
23  2.2000000000000D-01  9.6134919326128D-01  8.3501432097902D-01
24  2.3000000000000D-01  1.1577448443717D+00  8.6366869888644D-01
25  2.4000000000000D-01  1.3519913255837D+00  8.9177409460846D-01
26  2.5000000000000D-01  1.5387230036059D+00  9.2007765873098D-01
27  2.6000000000000D-01  1.7125118360544D+00  9.4934765468376D-01
28  2.7000000000000D-01  1.8680384608187D+00  9.8033871891530D-01
29  2.8000000000000D-01  2.0002625248553D+00  1.0137571922034D+00
30  2.9000000000000D-01  2.1045885034869D+00  1.0502273235173D+00
31  3.0000000000000D-01  2.1770205237288D+00  1.0902597372306D+00
32  3.1000000000000D-01  2.2143011058464D+00  1.1342232567316D+00
33  3.2000000000000D-01  2.2140288989953D+00  1.1823211465792D+00
34  3.3000000000000D-01  2.1747522299661D+00  1.2345724563824D+00
35  3.4000000000000D-01  2.0960335188365D+00  1.2907995417341D+00
36  3.5000000000000D-01  1.9784836486570D+00  1.3506219671071D+00
37  3.6000000000000D-01  1.8237641936334D+00  1.4134572355685D+00
38  3.7000000000000D-01  1.6345570520694D+00  1.4785284728484D+00
39  3.8000000000000D-01  1.4145035169266D+00  1.5448786299609D+00
40  3.9000000000000D-01  1.1681110124190D+00  1.6113915693965D+00
41  4.0000000000000D-01  9.0063486628929D-01  1.6768185005664D+00
42  4.1000000000000D-01  6.1793575121204D-01  1.7398095985294D+00
43  4.2000000000000D-01  3.2631763090702D-01  1.7989497767249D+00