Li    ONCVPSP  r_core=  1.41  1.11
3.0000      3.0000      150111    zatom,zion,pspd
8    11     1     4   401     0    pspcod,pspxc,lmax,lloc,mmax,r2well
4.00000000  0.00000000  0.00000000    rchrg fchrg qchrg
2     2     0     0     0    nproj
0                 extension_switch
0                        -5.1853465439907D+00 -1.8784949124727D+00
1  0.0000000000000D+00  0.0000000000000D+00  0.0000000000000D+00
2  1.0000000000000D-02  9.6694113030394D-02  3.1814146121202D-02
3  2.0000000000000D-02  1.9310844080233D-01  6.3413791083037D-02
4  3.0000000000000D-02  2.8896383034986D-01  9.4584742518553D-02
5  4.0000000000000D-02  3.8398239773860D-01  1.2511343710581D-01
6  5.0000000000000D-02  4.7788817357103D-01  1.5478728348810D-01
7  6.0000000000000D-02  5.7040776132583D-01  1.8339503856716D-01
8  7.0000000000000D-02  6.6127101222961D-01  2.1072722713436D-01
9  8.0000000000000D-02  7.5021171986808D-01  2.3657661383077D-01
10  9.0000000000000D-02  8.3696833715998D-01  2.6073873524923D-01
11  1.0000000000000D-01  9.2128471762259D-01  2.8301249861132D-01
12  1.1000000000000D-01  1.0029108820834D+00  3.0320085190180D-01
13  1.2000000000000D-01  1.0816038111665D+00  3.2111152866567D-01
14  1.3000000000000D-01  1.1571282629847D+00  3.3655786886971D-01
15  1.4000000000000D-01  1.2292576144268D+00  3.4935971523089D-01
16  1.5000000000000D-01  1.2977747237744D+00  3.5934438277408D-01
17  1.6000000000000D-01  1.3624728108203D+00  3.6634769680138D-01
18  1.7000000000000D-01  1.4231563505924D+00  3.7021509343771D-01
19  1.8000000000000D-01  1.4796419746734D+00  3.7080277370814D-01
20  1.9000000000000D-01  1.5317593748939D+00  3.6797890220406D-01
21  2.0000000000000D-01  1.5793522002263D+00  3.6162483584039D-01
22  2.1000000000000D-01  1.6222789431258D+00  3.5163637440503D-01
23  2.2000000000000D-01  1.6604138013100D+00  3.3792501094105D-01
24  2.3000000000000D-01  1.6936475110356D+00  3.2041917242214D-01
25  2.4000000000000D-01  1.7218881380428D+00  2.9906542776407D-01
26  2.5000000000000D-01  1.7450618233428D+00  2.7382965514493D-01
27  2.6000000000000D-01  1.7631134608361D+00  2.4469813151394D-01
28  2.7000000000000D-01  1.7760073160218D+00  2.1167855359421D-01
29  2.8000000000000D-01  1.7837275548560D+00  1.7480094098335D-01
30  2.9000000000000D-01  1.7862786897323D+00  1.3411842753766D-01
31  3.0000000000000D-01  1.7836859255369D+00  8.9707911912653D-02
32  3.1000000000000D-01  1.7759953987032D+00  4.1670552805718D-02
33  3.2000000000000D-01  1.7632742995579D+00 -9.8679098138850D-03
34  3.3000000000000D-01  1.7456108796571D+00 -6.4757006647814D-02
35  3.4000000000000D-01  1.7231143239838D+00 -1.2282159982407D-01
36  3.5000000000000D-01  1.6959144929435D+00 -1.8386214784867D-01
37  3.6000000000000D-01  1.6641615325880D+00 -2.4765517572740D-01
38  3.7000000000000D-01  1.6280253399621D+00 -3.1395397836065D-01
39  3.8000000000000D-01  1.5876948956505D+00 -3.8248953799439D-01
40  3.9000000000000D-01  1.5433774507335D+00 -4.5297167118868D-01
41  4.0000000000000D-01  1.4952975815159D+00 -5.2509039659925D-01
42  4.1000000000000D-01  1.4436961110798D+00 -5.9851751702312D-01
43  4.2000000000000D-01  1.3888289009534D+00 -6.7290841325587D-01
44  4.3000000000000D-01  1.3309655211644D+00 -7.4790403699116D-01
45  4.4000000000000D-01  1.2703878063244D+00 -8.2313308992445D-01
46  4.5000000000000D-01  1.2073883070436D+00 -8.9821437349171D-01
47  4.6000000000000D-01  1.1422686475389D+00 -9.7275929088050D-01
48  4.7000000000000D-01  1.0753378022077D+00 -1.0463744796400D+00
49  4.8000000000000D-01  1.0069103514396D+00 -1.1186644817068D+00
50  4.9000000000000D-01  9.3730451162821D-01 -1.1892347537667D+00
51  5.0000000000000D-01  8.6684034019357D-01 -1.2576944171950D+00
52  5.1000000000000D-01  7.9583785962214D-01 -1.3236591224910D+00
53  5.2000000000000D-01  7.2461507863003D-01 -1.3867540605387D+00
54  5.3000000000000D-01  6.5348596134539D-01 -1.4466170404404D+00
55  5.4000000000000D-01  5.8275890757149D-01 -1.5029007810694D+00
56  5.5000000000000D-01  5.1273437484116D-01 -1.5552764735972D+00
57  5.6000000000000D-01  4.4370361463088D-01 -1.6034356433485D+00
58  5.7000000000000D-01  3.7594652440360D-01 -1.6470933121112D+00
59  5.8000000000000D-01  3.0973038527267D-01 -1.6859897992227D+00
60  5.9000000000000D-01  2.4530789686442D-01 -1.7198935355405D+00
61  6.0000000000000D-01  1.8291642204481D-01 -1.7486020415715D+00
62  6.1000000000000D-01  1.2277576060185D-01 -1.7719450290034D+00
63  6.2000000000000D-01  6.5088056935857D-02 -1.7897843245865D+00
64  6.3000000000000D-01  1.0035979357805D-02 -1.8020162633470D+00
65  6.4000000000000D-01 -4.2217865682411D-02 -1.8085722254624D+00
66  6.5000000000000D-01 -9.1531215001360D-02 -1.8094187081095D+00
67  6.6000000000000D-01 -1.3778329531388D-01 -1.8045585349149D+00
68  6.7000000000000D-01 -1.8087490541594D-01 -1.7940305032463D+00
69  6.8000000000000D-01 -2.2072840356931D-01 -1.7779088581156D+00
70  6.9000000000000D-01 -2.5728764707467D-01 -1.7563026619712D+00
71  7.0000000000000D-01 -2.9051838157157D-01 -1.7293555918030D+00
72  7.1000000000000D-01 -3.2040736338741D-01 -1.6972440841335D+00
73  7.2000000000000D-01 -3.4696195526947D-01 -1.6601760108073D+00
74  7.3000000000000D-01 -3.7020949740563D-01 -1.6183889936134D+00
75  7.4000000000000D-01 -3.9019646892880D-01 -1.5721484214114D+00
76  7.5000000000000D-01 -4.0698762408347D-01 -1.5217453112380D+00
77  7.6000000000000D-01 -4.2066490753780D-01 -1.4674938300299D+00
78  7.7000000000000D-01 -4.3132617079964D-01 -1.4097286752005D+00
79  7.8000000000000D-01 -4.3908394150418D-01 -1.3488023647394D+00
80  7.9000000000000D-01 -4.4406405399072D-01 -1.2850823665303D+00
81  8.0000000000000D-01 -4.4640420885500D-01 -1.2189481288559D+00
82  8.1000000000000D-01 -4.4625247706564D-01 -1.1507880420786D+00
83  8.2000000000000D-01 -4.4376576446513D-01 -1.0809963618305D+00
84  8.3000000000000D-01 -4.3910825251659D-01 -1.0099701240277D+00
85  8.4000000000000D-01 -4.3244983102045D-01 -9.3810608167516D-01
86  8.5000000000000D-01 -4.2396453822138D-01 -8.6579769276626D-01
87  8.6000000000000D-01 -4.1382902327159D-01 -7.9343218763360D-01
88  8.7000000000000D-01 -4.0222104542290D-01 -7.2138774289909D-01
89  8.8000000000000D-01 -3.8931802360005D-01 -6.5003078771572D-01
90  8.9000000000000D-01 -3.7529564916739D-01 -5.7971346630859D-01
91  9.0000000000000D-01 -3.6032657374723D-01 -5.1077127891015D-01
92  9.1000000000000D-01 -3.4457918287986D-01 -4.4352092104499D-01
93  9.2000000000000D-01 -3.2821646513159D-01 -3.7825833874462D-01
94  9.3000000000000D-01 -3.1139498495428D-01 -3.1525701465172D-01
95  9.4000000000000D-01 -2.9426396617425D-01 -2.5476649709796D-01
96  9.5000000000000D-01 -2.7696449144012D-01 -1.9701118110620D-01
97  9.6000000000000D-01 -2.5962930519045D-01 -1.4219031736000D-01
98  9.7000000000000D-01 -2.4238081093056D-01 -9.0474379160548D-02
99  9.8000000000000D-01 -2.2533197516676D-01 -4.2007384290071D-02
100  9.9000000000000D-01 -2.0858560399952D-01  3.0941330435109D-03
101  1.0000000000000D+00 -1.9223414743551D-01  4.4741050477480D-02
102  1.0100000000000D+00 -1.7635962356734D-01  8.2871335413666D-02
103  1.0200000000000D+00 -1.6103381349587D-01  1.1744920855258D-01
104  1.0300000000000D+00 -1.4631842212662D-01  1.4846439587108D-01
105  1.0400000000000D+00 -1.3226405685271D-01  1.7593331090549D-01
106  1.0500000000000D+00 -1.1891218435833D-01  1.9989495346695D-01
107  1.0600000000000D+00 -1.0629500151717D-01  2.2041056426887D-01
108  1.0700000000000D+00 -9.4436013749834D-02  2.3756201113007D-01
109  1.0800000000000D+00 -8.3350783249280D-02  2.5145004350080D-01
110  1.0900000000000D+00 -7.3046069069460D-02  2.6219436937188D-01
111  1.1000000000000D+00 -6.3522355378005D-02  2.6992911266104D-01
112  1.1100000000000D+00 -5.4773910184440D-02  2.7480190292907D-01
113  1.1200000000000D+00 -4.6789706933353D-02  2.7697218106094D-01
114  1.1300000000000D+00 -3.9552486826917D-02  2.7661127058492D-01
115  1.1400000000000D+00 -3.3040001813926D-02  2.7390089612182D-01
116  1.1500000000000D+00 -2.7225520265665D-02  2.6903167183716D-01
117  1.1600000000000D+00 -2.2078369307028D-02  2.6220243368447D-01
118  1.1700000000000D+00 -1.7563949892664D-02  2.5361654681753D-01
119  1.1800000000000D+00 -1.3645284508932D-02  2.4348094885527D-01
120  1.1900000000000D+00 -1.0283157852428D-02  2.3200548548345D-01
121  1.2000000000000D+00 -7.4365375735794D-03  2.1940060420238D-01
122  1.2100000000000D+00 -5.0636411132560D-03  2.0587332525749D-01
123  1.2200000000000D+00 -3.1220430624735D-03  1.9162928641509D-01
124  1.2300000000000D+00 -1.5686605791944D-03  1.7687275674357D-01
125  1.2400000000000D+00 -3.6175211331556D-04  1.6179689328644D-01
126  1.2500000000000D+00  5.4002707670150D-04  1.4659063052889D-01
127  1.2600000000000D+00  1.1779172127030D-03  1.3143974343849D-01
128  1.2700000000000D+00  1.5899923765029D-03  1.1651274417684D-01
129  1.2800000000000D+00  1.8132828448986D-03  1.0197194831006D-01
130  1.2900000000000D+00  1.8841108329356D-03  8.7974688907988D-02
131  1.3000000000000D+00  1.8342002773038D-03  7.4656145000475D-02
132  1.3100000000000D+00  1.6941568358906D-03  6.2145409321472D-02
133  1.3200000000000D+00  1.4927883869374D-03  5.0562270670863D-02
134  1.3300000000000D+00  1.2538460890450D-03  4.0003298647814D-02
135  1.3400000000000D+00  1.0000953438332D-03  3.0559722391940D-02
136  1.3500000000000D+00  7.5077077318430D-04  2.2306368896658D-02
137  1.3600000000000D+00  5.2060795765300D-04  1.5297931868880D-02
138  1.3700000000000D+00  3.2356784970667D-04  9.5847162559085D-03
139  1.3800000000000D+00  1.6754126704626D-04  5.1905533304955D-03
140  1.3900000000000D+00  5.8002643090683D-05  2.1284914435938D-03
141  1.4000000000000D+00  1.0179257023322D-07  5.0544145331339D-04
142  1.4100000000000D+00 -1.7789336782884D-05 -9.3542348148195D-05
143  1.4200000000000D+00 -8.1502449087034D-06 -9.9863544015420D-05
144  1.4300000000000D+00  1.0564451860900D-06  2.5306747064620D-06
145  1.4400000000000D+00  3.9420707428460D-07  9.4430821886050D-07
146  1.4500000000000D+00  0.0000000000000D+00  0.0000000000000D+00
147  1.4600000000000D+00  0.0000000000000D+00  0.0000000000000D+00
148  1.4700000000000D+00  0.0000000000000D+00  0.0000000000000D+00
149  1.4800000000000D+00  0.0000000000000D+00  0.0000000000000D+00
150  1.4900000000000D+00  0.0000000000000D+00  0.0000000000000D+00
151  1.5000000000000D+00  0.0000000000000D+00  0.0000000000000D+00
152  1.5100000000000D+00  0.0000000000000D+00  0.0000000000000D+00
153  1.5200000000000D+00  0.0000000000000D+00  0.0000000000000D+00
154  1.5300000000000D+00  0.0000000000000D+00  0.0000000000000D+00
155  1.5400000000000D+00  0.0000000000000D+00  0.0000000000000D+00
156  1.5500000000000D+00  0.0000000000000D+00  0.0000000000000D+00
157  1.5600000000000D+00  0.0000000000000D+00  0.0000000000000D+00
158  1.5700000000000D+00  0.0000000000000D+00  0.0000000000000D+00
159  1.5800000000000D+00  0.0000000000000D+00  0.0000000000000D+00
160  1.5900000000000D+00  0.0000000000000D+00  0.0000000000000D+00
161  1.6000000000000D+00  0.0000000000000D+00  0.0000000000000D+00
162  1.6100000000000D+00  0.0000000000000D+00  0.0000000000000D+00
163  1.6200000000000D+00  0.0000000000000D+00  0.0000000000000D+00
164  1.6300000000000D+00  0.0000000000000D+00  0.0000000000000D+00
165  1.6400000000000D+00  0.0000000000000D+00  0.0000000000000D+00
166  1.6500000000000D+00  0.0000000000000D+00  0.0000000000000D+00
167  1.6600000000000D+00  0.0000000000000D+00  0.0000000000000D+00
168  1.6700000000000D+00  0.0000000000000D+00  0.0000000000000D+00
169  1.6800000000000D+00  0.0000000000000D+00  0.0000000000000D+00
170  1.6900000000000D+00  0.0000000000000D+00  0.0000000000000D+00
171  1.7000000000000D+00  0.0000000000000D+00  0.0000000000000D+00
172  1.7100000000000D+00  0.0000000000000D+00  0.0000000000000D+00
173  1.7200000000000D+00  0.0000000000000D+00  0.0000000000000D+00
174  1.7300000000000D+00  0.0000000000000D+00  0.0000000000000D+00
175  1.7400000000000D+00  0.0000000000000D+00  0.0000000000000D+00
176  1.7500000000000D+00  0.0000000000000D+00  0.0000000000000D+00
177  1.7600000000000D+00  0.0000000000000D+00  0.0000000000000D+00
178  1.7700000000000D+00  0.0000000000000D+00  0.0000000000000D+00
179  1.7800000000000D+00  0.0000000000000D+00  0.0000000000000D+00
180  1.7900000000000D+00  0.0000000000000D+00  0.0000000000000D+00
181  1.8000000000000D+00  0.0000000000000D+00  0.0000000000000D+00
182  1.8100000000000D+00  0.0000000000000D+00  0.0000000000000D+00
183  1.8200000000000D+00  0.0000000000000D+00  0.0000000000000D+00
184  1.8300000000000D+00  0.0000000000000D+00  0.0000000000000D+00
185  1.8400000000000D+00  0.0000000000000D+00  0.0000000000000D+00
186  1.8500000000000D+00  0.0000000000000D+00  0.0000000000000D+00
187  1.8600000000000D+00  0.0000000000000D+00  0.0000000000000D+00
188  1.8700000000000D+00  0.0000000000000D+00  0.0000000000000D+00
189  1.8800000000000D+00  0.0000000000000D+00  0.0000000000000D+00
190  1.8900000000000D+00  0.0000000000000D+00  0.0000000000000D+00
191  1.9000000000000D+00  0.0000000000000D+00  0.0000000000000D+00
192  1.9100000000000D+00  0.0000000000000D+00  0.0000000000000D+00
193  1.9200000000000D+00  0.0000000000000D+00  0.0000000000000D+00
194  1.9300000000000D+00  0.0000000000000D+00  0.0000000000000D+00
195  1.9400000000000D+00  0.0000000000000D+00  0.0000000000000D+00
196  1.9500000000000D+00  0.0000000000000D+00  0.0000000000000D+00
197  1.9600000000000D+00  0.0000000000000D+00  0.0000000000000D+00
198  1.9700000000000D+00  0.0000000000000D+00  0.0000000000000D+00
199  1.9800000000000D+00  0.0000000000000D+00  0.0000000000000D+00
200  1.9900000000000D+00  0.0000000000000D+00  0.0000000000000D+00
201  2.0000000000000D+00  0.0000000000000D+00  0.0000000000000D+00
202  2.0100000000000D+00  0.0000000000000D+00  0.0000000000000D+00
203  2.0200000000000D+00  0.0000000000000D+00  0.0000000000000D+00
204  2.0300000000000D+00  0.0000000000000D+00  0.0000000000000D+00
205  2.0400000000000D+00  0.0000000000000D+00  0.0000000000000D+00
206  2.0500000000000D+00  0.0000000000000D+00  0.0000000000000D+00
207  2.0600000000000D+00  0.0000000000000D+00  0.0000000000000D+00
208  2.0700000000000D+00  0.0000000000000D+00  0.0000000000000D+00
209  2.0800000000000D+00  0.0000000000000D+00  0.0000000000000D+00
210  2.0900000000000D+00  0.0000000000000D+00  0.0000000000000D+00
211  2.1000000000000D+00  0.0000000000000D+00  0.0000000000000D+00
212  2.1100000000000D+00  0.0000000000000D+00  0.0000000000000D+00
213  2.1200000000000D+00  0.0000000000000D+00  0.0000000000000D+00
214  2.1300000000000D+00  0.0000000000000D+00  0.0000000000000D+00
215  2.1400000000000D+00  0.0000000000000D+00  0.0000000000000D+00
216  2.1500000000000D+00  0.0000000000000D+00  0.0000000000000D+00
217  2.1600000000000D+00  0.0000000000000D+00  0.0000000000000D+00
218  2.1700000000000D+00  0.0000000000000D+00  0.0000000000000D+00
219  2.1800000000000D+00  0.0000000000000D+00  0.0000000000000D+00
220  2.1900000000000D+00  0.0000000000000D+00  0.0000000000000D+00
221  2.2000000000000D+00  0.0000000000000D+00  0.0000000000000D+00
222  2.2100000000000D+00  0.0000000000000D+00  0.0000000000000D+00
223  2.2200000000000D+00  0.0000000000000D+00  0.0000000000000D+00
224  2.2300000000000D+00  0.0000000000000D+00  0.0000000000000D+00
225  2.2400000000000D+00  0.0000000000000D+00  0.0000000000000D+00
226  2.2500000000000D+00  0.0000000000000D+00  0.0000000000000D+00
227  2.2600000000000D+00  0.0000000000000D+00  0.0000000000000D+00
228  2.2700000000000D+00  0.0000000000000D+00  0.0000000000000D+00
229  2.2800000000000D+00  0.0000000000000D+00  0.0000000000000D+00
230  2.2900000000000D+00  0.0000000000000D+00  0.0000000000000D+00
231  2.3000000000000D+00  0.0000000000000D+00  0.0000000000000D+00
232  2.3100000000000D+00  0.0000000000000D+00  0.0000000000000D+00
233  2.3200000000000D+00  0.0000000000000D+00  0.0000000000000D+00
234  2.3300000000000D+00  0.0000000000000D+00  0.0000000000000D+00
235  2.3400000000000D+00  0.0000000000000D+00  0.0000000000000D+00
236  2.3500000000000D+00  0.0000000000000D+00  0.0000000000000D+00
237  2.3600000000000D+00  0.0000000000000D+00  0.0000000000000D+00
238  2.3700000000000D+00  0.0000000000000D+00  0.0000000000000D+00
239  2.3800000000000D+00  0.0000000000000D+00  0.0000000000000D+00
240  2.3900000000000D+00  0.0000000000000D+00  0.0000000000000D+00
241  2.4000000000000D+00  0.0000000000000D+00  0.0000000000000D+00
242  2.4100000000000D+00  0.0000000000000D+00  0.0000000000000D+00
243  2.4200000000000D+00  0.0000000000000D+00  0.0000000000000D+00
244  2.4300000000000D+00  0.0000000000000D+00  0.0000000000000D+00
245  2.4400000000000D+00  0.0000000000000D+00  0.0000000000000D+00
246  2.4500000000000D+00  0.0000000000000D+00  0.0000000000000D+00
247  2.4600000000000D+00  0.0000000000000D+00  0.0000000000000D+00
248  2.4700000000000D+00  0.0000000000000D+00  0.0000000000000D+00
249  2.4800000000000D+00  0.0000000000000D+00  0.0000000000000D+00
250  2.4900000000000D+00  0.0000000000000D+00  0.0000000000000D+00
251  2.5000000000000D+00  0.0000000000000D+00  0.0000000000000D+00
252  2.5100000000000D+00  0.0000000000000D+00  0.0000000000000D+00
253  2.5200000000000D+00  0.0000000000000D+00  0.0000000000000D+00
254  2.5300000000000D+00  0.0000000000000D+00  0.0000000000000D+00
255  2.5400000000000D+00  0.0000000000000D+00  0.0000000000000D+00
256  2.5500000000000D+00  0.0000000000000D+00  0.0000000000000D+00
257  2.5600000000000D+00  0.0000000000000D+00  0.0000000000000D+00
258  2.5700000000000D+00  0.0000000000000D+00  0.0000000000000D+00
259  2.5800000000000D+00  0.0000000000000D+00  0.0000000000000D+00
260  2.5900000000000D+00  0.0000000000000D+00  0.0000000000000D+00
261  2.6000000000000D+00  0.0000000000000D+00  0.0000000000000D+00
262  2.6100000000000D+00  0.0000000000000D+00  0.0000000000000D+00
263  2.6200000000000D+00  0.0000000000000D+00  0.0000000000000D+00
264  2.6300000000000D+00  0.0000000000000D+00  0.0000000000000D+00
265  2.6400000000000D+00  0.0000000000000D+00  0.0000000000000D+00
266  2.6500000000000D+00  0.0000000000000D+00  0.0000000000000D+00
267  2.6600000000000D+00  0.0000000000000D+00  0.0000000000000D+00
268  2.6700000000000D+00  0.0000000000000D+00  0.0000000000000D+00
269  2.6800000000000D+00  0.0000000000000D+00  0.0000000000000D+00
270  2.6900000000000D+00  0.0000000000000D+00  0.0000000000000D+00
271  2.7000000000000D+00  0.0000000000000D+00  0.0000000000000D+00
272  2.7100000000000D+00  0.0000000000000D+00  0.0000000000000D+00
273  2.7200000000000D+00  0.0000000000000D+00  0.0000000000000D+00
274  2.7300000000000D+00  0.0000000000000D+00  0.0000000000000D+00
275  2.7400000000000D+00  0.0000000000000D+00  0.0000000000000D+00
276  2.7500000000000D+00  0.0000000000000D+00  0.0000000000000D+00
277  2.7600000000000D+00  0.0000000000000D+00  0.0000000000000D+00
278  2.7700000000000D+00  0.0000000000000D+00  0.0000000000000D+00
279  2.7800000000000D+00  0.0000000000000D+00  0.0000000000000D+00
280  2.7900000000000D+00  0.0000000000000D+00  0.0000000000000D+00
281  2.8000000000000D+00  0.0000000000000D+00  0.0000000000000D+00
282  2.8100000000000D+00  0.0000000000000D+00  0.0000000000000D+00
283  2.8200000000000D+00  0.0000000000000D+00  0.0000000000000D+00
284  2.8300000000000D+00  0.0000000000000D+00  0.0000000000000D+00
285  2.8400000000000D+00  0.0000000000000D+00  0.0000000000000D+00
286  2.8500000000000D+00  0.0000000000000D+00  0.0000000000000D+00
287  2.8600000000000D+00  0.0000000000000D+00  0.0000000000000D+00
288  2.8700000000000D+00  0.0000000000000D+00  0.0000000000000D+00
289  2.8800000000000D+00  0.0000000000000D+00  0.0000000000000D+00
290  2.8900000000000D+00  0.0000000000000D+00  0.0000000000000D+00
291  2.9000000000000D+00  0.0000000000000D+00  0.0000000000000D+00
292  2.9100000000000D+00  0.0000000000000D+00  0.0000000000000D+00
293  2.9200000000000D+00  0.0000000000000D+00  0.0000000000000D+00
294  2.9300000000000D+00  0.0000000000000D+00  0.0000000000000D+00
295  2.9400000000000D+00  0.0000000000000D+00  0.0000000000000D+00
296  2.9500000000000D+00  0.0000000000000D+00  0.0000000000000D+00
297  2.9600000000000D+00  0.0000000000000D+00  0.0000000000000D+00
298  2.9700000000000D+00  0.0000000000000D+00  0.0000000000000D+00
299  2.9800000000000D+00  0.0000000000000D+00  0.0000000000000D+00
300  2.9900000000000D+00  0.0000000000000D+00  0.0000000000000D+00
301  3.0000000000000D+00  0.0000000000000D+00  0.0000000000000D+00
302  3.0100000000000D+00  0.0000000000000D+00  0.0000000000000D+00
303  3.0200000000000D+00  0.0000000000000D+00  0.0000000000000D+00
304  3.0300000000000D+00  0.0000000000000D+00  0.0000000000000D+00
305  3.0400000000000D+00  0.0000000000000D+00  0.0000000000000D+00
306  3.0500000000000D+00  0.0000000000000D+00  0.0000000000000D+00
307  3.0600000000000D+00  0.0000000000000D+00  0.0000000000000D+00
308  3.0700000000000D+00  0.0000000000000D+00  0.0000000000000D+00
309  3.0800000000000D+00  0.0000000000000D+00  0.0000000000000D+00
310  3.0900000000000D+00  0.0000000000000D+00  0.0000000000000D+00
311  3.1000000000000D+00  0.0000000000000D+00  0.0000000000000D+00
312  3.1100000000000D+00  0.0000000000000D+00  0.0000000000000D+00
313  3.1200000000000D+00  0.0000000000000D+00  0.0000000000000D+00
314  3.1300000000000D+00  0.0000000000000D+00  0.0000000000000D+00
315  3.1400000000000D+00  0.0000000000000D+00  0.0000000000000D+00
316  3.1500000000000D+00  0.0000000000000D+00  0.0000000000000D+00
317  3.1600000000000D+00  0.0000000000000D+00  0.0000000000000D+00
318  3.1700000000000D+00  0.0000000000000D+00  0.0000000000000D+00
319  3.1800000000000D+00  0.0000000000000D+00  0.0000000000000D+00
320  3.1900000000000D+00  0.0000000000000D+00  0.0000000000000D+00
321  3.2000000000000D+00  0.0000000000000D+00  0.0000000000000D+00
322  3.2100000000000D+00  0.0000000000000D+00  0.0000000000000D+00
323  3.2200000000000D+00  0.0000000000000D+00  0.0000000000000D+00
324  3.2300000000000D+00  0.0000000000000D+00  0.0000000000000D+00
325  3.2400000000000D+00  0.0000000000000D+00  0.0000000000000D+00
326  3.2500000000000D+00  0.0000000000000D+00  0.0000000000000D+00
327  3.2600000000000D+00  0.0000000000000D+00  0.0000000000000D+00
328  3.2700000000000D+00  0.0000000000000D+00  0.0000000000000D+00
329  3.2800000000000D+00  0.0000000000000D+00  0.0000000000000D+00
330  3.2900000000000D+00  0.0000000000000D+00  0.0000000000000D+00
331  3.3000000000000D+00  0.0000000000000D+00  0.0000000000000D+00
332  3.3100000000000D+00  0.0000000000000D+00  0.0000000000000D+00
333  3.3200000000000D+00  0.0000000000000D+00  0.0000000000000D+00
334  3.3300000000000D+00  0.0000000000000D+00  0.0000000000000D+00
335  3.3400000000000D+00  0.0000000000000D+00  0.0000000000000D+00
336  3.3500000000000D+00  0.0000000000000D+00  0.0000000000000D+00
337  3.3600000000000D+00  0.0000000000000D+00  0.0000000000000D+00
338  3.3700000000000D+00  0.0000000000000D+00  0.0000000000000D+00
339  3.3800000000000D+00  0.0000000000000D+00  0.0000000000000D+00
340  3.3900000000000D+00  0.0000000000000D+00  0.0000000000000D+00
341  3.4000000000000D+00  0.0000000000000D+00  0.0000000000000D+00
342  3.4100000000000D+00  0.0000000000000D+00  0.0000000000000D+00
343  3.4200000000000D+00  0.0000000000000D+00  0.0000000000000D+00
344  3.4300000000000D+00  0.0000000000000D+00  0.0000000000000D+00
345  3.4400000000000D+00  0.0000000000000D+00  0.0000000000000D+00
346  3.4500000000000D+00  0.0000000000000D+00  0.0000000000000D+00
347  3.4600000000000D+00  0.0000000000000D+00  0.0000000000000D+00
348  3.4700000000000D+00  0.0000000000000D+00  0.0000000000000D+00
349  3.4800000000000D+00  0.0000000000000D+00  0.0000000000000D+00
350  3.4900000000000D+00  0.0000000000000D+00  0.0000000000000D+00
351  3.5000000000000D+00  0.0000000000000D+00  0.0000000000000D+00
352  3.5100000000000D+00  0.0000000000000D+00  0.0000000000000D+00
353  3.5200000000000D+00  0.0000000000000D+00  0.0000000000000D+00
354  3.5300000000000D+00  0.0000000000000D+00  0.0000000000000D+00
355  3.5400000000000D+00  0.0000000000000D+00  0.0000000000000D+00
356  3.5500000000000D+00  0.0000000000000D+00  0.0000000000000D+00
357  3.5600000000000D+00  0.0000000000000D+00  0.0000000000000D+00
358  3.5700000000000D+00  0.0000000000000D+00  0.0000000000000D+00
359  3.5800000000000D+00  0.0000000000000D+00  0.0000000000000D+00
360  3.5900000000000D+00  0.0000000000000D+00  0.0000000000000D+00
361  3.6000000000000D+00  0.0000000000000D+00  0.0000000000000D+00
362  3.6100000000000D+00  0.0000000000000D+00  0.0000000000000D+00
363  3.6200000000000D+00  0.0000000000000D+00  0.0000000000000D+00
364  3.6300000000000D+00  0.0000000000000D+00  0.0000000000000D+00
365  3.6400000000000D+00  0.0000000000000D+00  0.0000000000000D+00
366  3.6500000000000D+00  0.0000000000000D+00  0.0000000000000D+00
367  3.6600000000000D+00  0.0000000000000D+00  0.0000000000000D+00
368  3.6700000000000D+00  0.0000000000000D+00  0.0000000000000D+00
369  3.6800000000000D+00  0.0000000000000D+00  0.0000000000000D+00
370  3.6900000000000D+00  0.0000000000000D+00  0.0000000000000D+00
371  3.7000000000000D+00  0.0000000000000D+00  0.0000000000000D+00
372  3.7100000000000D+00  0.0000000000000D+00  0.0000000000000D+00
373  3.7200000000000D+00  0.0000000000000D+00  0.0000000000000D+00
374  3.7300000000000D+00  0.0000000000000D+00  0.0000000000000D+00
375  3.7400000000000D+00  0.0000000000000D+00  0.0000000000000D+00
376  3.7500000000000D+00  0.0000000000000D+00  0.0000000000000D+00
377  3.7600000000000D+00  0.0000000000000D+00  0.0000000000000D+00
378  3.7700000000000D+00  0.0000000000000D+00  0.0000000000000D+00
379  3.7800000000000D+00  0.0000000000000D+00  0.0000000000000D+00
380  3.7900000000000D+00  0.0000000000000D+00  0.0000000000000D+00
381  3.8000000000000D+00  0.0000000000000D+00  0.0000000000000D+00
382  3.8100000000000D+00  0.0000000000000D+00  0.0000000000000D+00
383  3.8200000000000D+00  0.0000000000000D+00  0.0000000000000D+00
384  3.8300000000000D+00  0.0000000000000D+00  0.0000000000000D+00
385  3.8400000000000D+00  0.0000000000000D+00  0.0000000000000D+00
386  3.8500000000000D+00  0.0000000000000D+00  0.0000000000000D+00
387  3.8600000000000D+00  0.0000000000000D+00  0.0000000000000D+00
388  3.8700000000000D+00  0.0000000000000D+00  0.0000000000000D+00
389  3.8800000000000D+00  0.0000000000000D+00  0.0000000000000D+00
390  3.8900000000000D+00  0.0000000000000D+00  0.0000000000000D+00
391  3.9000000000000D+00  0.0000000000000D+00  0.0000000000000D+00
392  3.9100000000000D+00  0.0000000000000D+00  0.0000000000000D+00
393  3.9200000000000D+00  0.0000000000000D+00  0.0000000000000D+00
394  3.9300000000000D+00  0.0000000000000D+00  0.0000000000000D+00
395  3.9400000000000D+00  0.0000000000000D+00  0.0000000000000D+00
396  3.9500000000000D+00  0.0000000000000D+00  0.0000000000000D+00
397  3.9600000000000D+00  0.0000000000000D+00  0.0000000000000D+00
398  3.9700000000000D+00  0.0000000000000D+00  0.0000000000000D+00
399  3.9800000000000D+00  0.0000000000000D+00  0.0000000000000D+00
400  3.9900000000000D+00  0.0000000000000D+00  0.0000000000000D+00
401  4.0000000000000D+00  0.0000000000000D+00  0.0000000000000D+00
1                        -9.4592459786396D+00 -1.0957232005101D+00
1  0.0000000000000D+00  0.0000000000000D+00 -0.0000000000000D+00
2  1.0000000000000D-02  2.1956898552806D-03 -3.1109420432627D-03
3  2.0000000000000D-02  8.6091801755883D-03 -1.2365455699843D-02
4  3.0000000000000D-02  1.8725787137137D-02 -2.7530994169360D-02
5  4.0000000000000D-02  3.1707701606549D-02 -4.8227877829754D-02
6  5.0000000000000D-02  4.6423351619190D-02 -7.3940897585949D-02
7  6.0000000000000D-02  6.1487261876896D-02 -1.0403507830631D-01
8  7.0000000000000D-02  7.5309205649747D-02 -1.3777513768039D-01
9  8.0000000000000D-02  8.6151160717312D-02 -1.7434806618489D-01
10  9.0000000000000D-02  9.2190340414552D-02 -2.1288816072443D-01
11  1.0000000000000D-01  9.1586380066629D-02 -2.5250377044754D-01
12  1.1000000000000D-01  8.2550623991473D-02 -2.9230496049160D-01
13  1.2000000000000D-01  6.3415382875336D-02 -3.3143126954844D-01
14  1.3000000000000D-01  3.2701017372028D-02 -3.6907873081800D-01
15  1.4000000000000D-01 -1.0821247434260D-02 -4.0452534362635D-01
16  1.5000000000000D-01 -6.8072762250514D-02 -4.3715422422752D-01
17  1.6000000000000D-01 -1.3961896497429D-01 -4.6647372807270D-01
18  1.7000000000000D-01 -2.2563056202158D-01 -4.9213391873041D-01
19  1.8000000000000D-01 -3.2585570038182D-01 -5.1393886418190D-01
20  1.9000000000000D-01 -4.3960416602833D-01 -5.3185435037095D-01
21  2.0000000000000D-01 -5.6574423778123D-01 -5.4601075661086D-01
22  2.1000000000000D-01 -7.0271262199667D-01 -5.5670091661290D-01
23  2.2000000000000D-01 -8.4853725995236D-01 -5.6437302974487D-01
24  2.3000000000000D-01 -1.0008727263001D+00 -5.6961871762580D-01
25  2.4000000000000D-01 -1.1570472679145D+00 -5.7315657639224D-01
26  2.5000000000000D-01 -1.3141206710072D+00 -5.7581152383522D-01
27  2.6000000000000D-01 -1.4689508585341D+00 -5.7849073290511D-01
28  2.7000000000000D-01 -1.6182684905623D+00 -5.8215642065997D-01
29  2.8000000000000D-01 -1.7587564823946D+00 -5.8779666542204D-01
30  2.9000000000000D-01 -1.8871332257401D+00 -5.9639471039765D-01
31  3.0000000000000D-01 -2.0002368445106D+00 -6.0889777049530D-01
32  3.1000000000000D-01 -2.0951082661834D+00 -6.2618618905959D-01
33  3.2000000000000D-01 -2.1690706486143D+00 -6.4904388723606D-01
34  3.3000000000000D-01 -2.2198037009782D+00 -6.7813066111078D-01
35  3.4000000000000D-01 -2.2454096758407D+00 -7.1395757049213D-01
36  3.5000000000000D-01 -2.2444698011601D+00 -7.5686589675345D-01
37  3.6000000000000D-01 -2.2160900797586D+00 -8.0701007172914D-01
38  3.7000000000000D-01 -2.1599337575513D+00 -8.6434564265348D-01
39  3.8000000000000D-01 -2.0762405918454D+00 -9.2862222472315D-01
40  3.9000000000000D-01 -1.9658319892995D+00 -9.9938178215414D-01
41  4.0000000000000D-01 -1.8301013240159D+00 -1.0759625625480D+00
42  4.1000000000000D-01 -1.6709901833683D+00 -1.1575083731962D+00