Ba    ONCVPSP-3.3.0  r_core=   2.15444   1.91218   2.15444
56.0000     10.0000      180419    zatom,zion,pspd
8      11   2     4   600     0    pspcod,pspxc,lmax,lloc,mmax,r2well
5.99000000  5.00000000  0.00000000    rchrg fchrg qchrg
2     4     4     0    nproj
3     1           extension_switch
4     4     0    nprojso
0                         6.7261712790737D-01  6.6658069817128D+00
1  0.0000000000000D+00 -1.6985945202469D-11  5.8197335839338D-12
2  1.0000000000000D-02  3.0882832879933D-04  2.6374638540388D-02
3  2.0000000000000D-02  5.7640276497029D-04  5.2752032943562D-02
4  3.0000000000000D-02  7.6172396796635D-04  7.9134853831928D-02
5  4.0000000000000D-02  8.2430058259733D-04  1.0552560173567D-01
6  5.0000000000000D-02  7.2440043895444D-04  1.3192652301655D-01
7  6.0000000000000D-02  4.2329841297305D-04  1.5833952695144D-01
8  7.0000000000000D-02 -1.1648014566472D-04  1.8476610435547D-01
9  8.0000000000000D-02 -9.3092149460016D-04  2.1120724811872D-01
10  9.0000000000000D-02 -2.0542921441870D-03  2.3766337602318D-01
11  1.0000000000000D-01 -3.5189150973041D-03  2.6413425619824D-01
12  1.1000000000000D-01 -5.3549546847412D-03  2.9061893556277D-01
13  1.2000000000000D-01 -7.5902109641819D-03  3.1711567159071D-01
14  1.3000000000000D-01 -1.0249924614175D-02  3.4362186772452D-01
15  1.4000000000000D-01 -1.3356593213965D-02  3.7013401274667D-01
16  1.5000000000000D-01 -1.6929799756230D-02  3.9664762440488D-01
17  1.6000000000000D-01 -2.0986054192295D-02  4.2315719756990D-01
18  1.7000000000000D-01 -2.5538648759029D-02  4.4965615718794D-01
19  1.8000000000000D-01 -3.0597527782985D-02  4.7613681627104D-01
20  1.9000000000000D-01 -3.6169172600706D-02  5.0259033914967D-01
21  2.0000000000000D-01 -4.2256502175353D-02  5.2900671019122D-01
22  2.1000000000000D-01 -4.8858789927774D-02  5.5537470816745D-01
23  2.2000000000000D-01 -5.5971597236558D-02  5.8168188643146D-01
24  2.3000000000000D-01 -6.3586723995461D-02  6.0791455904278D-01
25  2.4000000000000D-01 -7.1692176548965D-02  6.3405779295548D-01
26  2.5000000000000D-01 -8.0272153257292D-02  6.6009540636078D-01
27  2.6000000000000D-01 -8.9307047871526D-02  6.8600997325128D-01
28  2.7000000000000D-01 -9.8773470827796D-02  7.1178283424938D-01
29  2.8000000000000D-01 -1.0864428849663D-01  7.3739411371760D-01
30  2.9000000000000D-01 -1.1888868035072D-01  7.6282274314352D-01
31  3.0000000000000D-01 -1.2947221394063D-01  7.8804649076672D-01
32  3.1000000000000D-01 -1.4035693749439D-01  8.1304199739016D-01
33  3.2000000000000D-01 -1.5150148988401D-01  8.3778481829301D-01
34  3.3000000000000D-01 -1.6286122762869D-01  8.6224947113739D-01
35  3.4000000000000D-01 -1.7438836853297D-01  8.8640948973646D-01
36  3.5000000000000D-01 -1.8603215148686D-01  9.1023748352712D-01
37  3.6000000000000D-01 -1.9773901188561D-01  9.3370520256675D-01
38  3.7000000000000D-01 -2.0945277205885D-01  9.5678360785003D-01
39  3.8000000000000D-01 -2.2111484603270D-01  9.7944294671909D-01
40  3.9000000000000D-01 -2.3266445788469D-01  1.0016528331185D+00
41  4.0000000000000D-01 -2.4403887288994D-01  1.0233823324248D+00
42  4.1000000000000D-01 -2.5517364059808D-01  1.0446000505617D+00
43  4.2000000000000D-01 -2.6600284892494D-01  1.0652742270892D+00
44  4.3000000000000D-01 -2.7645938829001D-01  1.0853728319416D+00
45  4.4000000000000D-01 -2.8647522478197D-01  1.1048636654677D+00
46  4.5000000000000D-01 -2.9598168128855D-01  1.1237144614129D+00
47  4.6000000000000D-01 -3.0490972548548D-01  1.1418929924688D+00
48  4.7000000000000D-01 -3.1319026354202D-01  1.1593671779995D+00
49  4.8000000000000D-01 -3.2075443836627D-01  1.1761051935465D+00
50  4.9000000000000D-01 -3.2753393118582D-01  1.1920755816991D+00
51  5.0000000000000D-01 -3.3346126523341D-01  1.2072473639122D+00
52  5.1000000000000D-01 -3.3847011028918D-01  1.2215901528425D+00
53  5.2000000000000D-01 -3.4249558681506D-01  1.2350742647713D+00
54  5.3000000000000D-01 -3.4547456840790D-01  1.2476708316767D+00
55  5.4000000000000D-01 -3.4734598129274D-01  1.2593519125152D+00
56  5.5000000000000D-01 -3.4805109957837D-01  1.2700906032727D+00
57  5.6000000000000D-01 -3.4753383500267D-01  1.2798611453455D+00
58  5.7000000000000D-01 -3.4574101990634D-01  1.2886390318153D+00
59  5.8000000000000D-01 -3.4262268218946D-01  1.2964011111855D+00
60  5.9000000000000D-01 -3.3813231102698D-01  1.3031256881528D+00
61  6.0000000000000D-01 -3.3222711214539D-01  1.3087926209965D+00
62  6.1000000000000D-01 -3.2486825149515D-01  1.3133834151769D+00
63  6.2000000000000D-01 -3.1602108618943D-01  1.3168813127457D+00
64  6.3000000000000D-01 -3.0565538162233D-01  1.3192713771834D+00
65  6.4000000000000D-01 -2.9374551372607D-01  1.3205405732954D+00
66  6.5000000000000D-01 -2.8027065537779D-01  1.3206778418119D+00
67  6.6000000000000D-01 -2.6521494602349D-01  1.3196741683566D+00
68  6.7000000000000D-01 -2.4856764364591D-01  1.3175226464669D+00
69  6.8000000000000D-01 -2.3032325826884D-01  1.3142185343688D+00
70  6.9000000000000D-01 -2.1048166625834D-01  1.3097593052336D+00
71  7.0000000000000D-01 -1.8904820475382D-01  1.3041446906632D+00
72  7.1000000000000D-01 -1.6603374563790D-01  1.2973767171778D+00
73  7.2000000000000D-01 -1.4145474853301D-01  1.2894597355047D+00
74  7.3000000000000D-01 -1.1533329239433D-01  1.2804004424910D+00
75  7.4000000000000D-01 -8.7697085353692D-02  1.2702078954947D+00
76  7.5000000000000D-01 -5.8579452555192D-02  1.2588935191313D+00
77  7.6000000000000D-01 -2.8019301812776D-02  1.2464711042868D+00
78  7.7000000000000D-01  3.9389329903276D-03  1.2329567993329D+00
79  7.8000000000000D-01  3.7245370748757D-02  1.2183690935137D+00
80  7.9000000000000D-01  7.1844784124887D-02  1.2027287925008D+00
81  8.0000000000000D-01  1.0767672248466D-01  1.1860589861447D+00
82  8.1000000000000D-01  1.4467565649034D-01  1.1683850084809D+00
83  8.2000000000000D-01  1.8277114396827D-01  1.1497343900795D+00
84  8.3000000000000D-01  2.2188801657832D-01  1.1301368028580D+00
85  8.4000000000000D-01  2.6194658672121D-01  1.1096239975037D+00
86  8.5000000000000D-01  3.0286287403103D-01  1.0882297336878D+00
87  8.6000000000000D-01  3.4454885071311D-01  1.0659897032742D+00
88  8.7000000000000D-01  3.8691270490327D-01  1.0429414467622D+00
89  8.8000000000000D-01  4.2985912114201D-01  1.0191242632245D+00
90  8.9000000000000D-01  4.7328957697945D-01  9.9457911402980D-01
91  9.0000000000000D-01  5.1710265465058D-01  9.6934852066683D-01
92  9.1000000000000D-01  5.6119436669012D-01  9.4347645700802D-01
93  9.2000000000000D-01  6.0545849428860D-01  9.1700823637684D-01
94  9.3000000000000D-01  6.4978693712903D-01  8.8999039380301D-01
95  9.4000000000000D-01  6.9407007338612D-01  8.6247056387090D-01
96  9.5000000000000D-01  7.3819712851711D-01  8.3449735458508D-01
97  9.6000000000000D-01  7.8205655142699D-01  8.0612021769428D-01
98  9.7000000000000D-01  8.2553639654932D-01  7.7738931593008D-01
99  9.8000000000000D-01  8.6852471034867D-01  7.4835538763087D-01
100  9.9000000000000D-01  9.1090992072140D-01  7.1906960923289D-01
101  1.0000000000000D+00  9.5258122774977D-01  6.8958345612026D-01
102  1.0100000000000D+00  9.9342899424688D-01  6.5994856233363D-01
103  1.0200000000000D+00  1.0333451345213D+00  6.3021657964282D-01
104  1.0300000000000D+00  1.0722234997873D+00  6.0043903649298D-01
105  1.0400000000000D+00  1.1099602586500D+00  5.7066719733472D-01
106  1.0500000000000D+00  1.1464542711070D+00  5.4095192284885D-01
107  1.0600000000000D+00  1.1816074545253D+00  5.1134353157314D-01
108  1.0700000000000D+00  1.2153251400742D+00  4.8189166343469D-01
109  1.0800000000000D+00  1.2475164181322D+00  4.5264514568352D-01
110  1.0900000000000D+00  1.2780944712174D+00  4.2365186171510D-01
111  1.1000000000000D+00  1.3069768930410D+00  3.9495862325752D-01
112  1.1100000000000D+00  1.3340859923317D+00  3.6661104638689D-01
113  1.1200000000000D+00  1.3593490801342D+00  3.3865343181966D-01
114  1.1300000000000D+00  1.3826987393538D+00  3.1112864991257D-01
115  1.1400000000000D+00  1.4040730753849D+00  2.8407803078275D-01
116  1.1500000000000D+00  1.4234159467377D+00  2.5754125993978D-01
117  1.1600000000000D+00  1.4406771746479D+00  2.3155627980172D-01
118  1.1700000000000D+00  1.4558127307547D+00  2.0615919743900D-01
119  1.1800000000000D+00  1.4687849020174D+00  1.8138419886581D-01
120  1.1900000000000D+00  1.4795624321185D+00  1.5726347017665D-01
121  1.2000000000000D+00  1.4881206387148D+00  1.3382712579301D-01
122  1.2100000000000D+00  1.4944415059980D+00  1.1110314405579D-01
123  1.2200000000000D+00  1.4985137521344D+00  8.9117310368521D-02
124  1.2300000000000D+00  1.5003328712177D+00  6.7893168076313D-02
125  1.2400000000000D+00  1.4999011495376D+00  4.7451977216780D-02
126  1.2500000000000D+00  1.4972276560617D+00  2.7812681250553D-02
127  1.2600000000000D+00  1.4923282070663D+00  8.9918818678803D-03
128  1.2700000000000D+00  1.4852253050675D+00 -8.9961780970595D-03
129  1.2800000000000D+00  1.4759480522793D+00 -2.6139623634975D-02
130  1.2900000000000D+00  1.4645320388545D+00 -4.2428948413270D-02
131  1.3000000000000D+00  1.4510192063952D+00 -5.7857007580608D-02
132  1.3100000000000D+00  1.4354576872929D+00 -7.2419002617223D-02
133  1.3200000000000D+00  1.4179016204472D+00 -8.6112458319941D-02
134  1.3300000000000D+00  1.3984109442032D+00 -9.8937192101197D-02
135  1.3400000000000D+00  1.3770511673318D+00 -1.1089527577704D-01
136  1.3500000000000D+00  1.3538931189247D+00 -1.2199099003347D-01
137  1.3600000000000D+00  1.3290126783392D+00 -1.3223077184408D-01
138  1.3700000000000D+00  1.3024904862357D+00 -1.4162315508368D-01
139  1.3800000000000D+00  1.2744116379081D+00 -1.5017870463117D-01
140  1.3900000000000D+00  1.2448653602567D+00 -1.5790994430714D-01
141  1.4000000000000D+00  1.2139446736297D+00 -1.6483127894830D-01
142  1.4100000000000D+00  1.1817460400500D+00 -1.7095891101911D-01
143  1.4200000000000D+00  1.1483689992435D+00 -1.7631075213000D-01
144  1.4300000000000D+00  1.1139157939680D+00 -1.8090632985511D-01
145  1.4400000000000D+00  1.0784909862724D+00 -1.8476669029687D-01
146  1.4500000000000D+00  1.0422010661955D+00 -1.8791429679453D-01
147  1.4600000000000D+00  1.0051540546102D+00 -1.9037292525383D-01
148  1.4700000000000D+00  9.6745910180413D-01 -1.9216755653231D-01
149  1.4800000000000D+00  9.2922608349715D-01 -1.9332426635185D-01
150  1.4900000000000D+00  8.9056519592190D-01 -1.9387011320506D-01
151  1.5000000000000D+00  8.5158655168615D-01 -1.9383302472720D-01
152  1.5100000000000D+00  8.1239977799650D-01 -1.9324168300321D-01
153  1.5200000000000D+00  7.7311361896111D-01 -1.9212540928722D-01
154  1.5300000000000D+00  7.3383554350810D-01 -1.9051404859530D-01
155  1.5400000000000D+00  6.9467136052681D-01 -1.8843785463413D-01
156  1.5500000000000D+00  6.5572484279675D-01 -1.8592737553039D-01
157  1.5600000000000D+00  6.1709736106309D-01 -1.8301334077316D-01
158  1.5700000000000D+00  5.7888752992402D-01 -1.7972654985720D-01
159  1.5800000000000D+00  5.4119086651784D-01 -1.7609776295384D-01
160  1.5900000000000D+00  5.0409946382992D-01 -1.7215759413661D-01
161  1.6000000000000D+00  4.6770167914894D-01 -1.6793640737551D-01
162  1.6100000000000D+00  4.3208183962799D-01 -1.6346421586416D-01
163  1.6200000000000D+00  3.9731996509449D-01 -1.5877058479460D-01
164  1.6300000000000D+00  3.6349150997926D-01 -1.5388453812713D-01
165  1.6400000000000D+00  3.3066712431482D-01 -1.4883446941649D-01
166  1.6500000000000D+00  2.9891243543265D-01 -1.4364805718448D-01
167  1.6600000000000D+00  2.6828785014963D-01 -1.3835218485558D-01
168  1.6700000000000D+00  2.3884837881304D-01 -1.3297286568113D-01
169  1.6800000000000D+00  2.1064348080501D-01 -1.2753517261606D-01
170  1.6900000000000D+00  1.8371693263755D-01 -1.2206317351398D-01
171  1.7000000000000D+00  1.5810671799179D-01 -1.1657987153582D-01
172  1.7100000000000D+00  1.3384494065271D-01 -1.1110715109280D-01
173  1.7200000000000D+00  1.1095775936267D-01 -1.0566572912751D-01
174  1.7300000000000D+00  8.9465345454626D-02 -1.0027511203197D-01
175  1.7400000000000D+00  6.9381861858052D-02 -9.4953557886732D-02
176  1.7500000000000D+00  5.0715464356683D-02 -8.9718044328471D-02
177  1.7600000000000D+00  3.3468323159823D-02 -8.4584241579823D-02
178  1.7700000000000D+00  1.7636665793166D-02 -7.9566490988998D-02
179  1.7800000000000D+00  3.2108387615195D-03 -7.4677788438049D-02
180  1.7900000000000D+00 -9.8246108121132D-03 -6.9929773029445D-02
181  1.8000000000000D+00 -2.1490836711038D-02 -6.5332720235456D-02
182  1.8100000000000D+00 -3.1814577040667D-02 -6.0895539948228D-02
183  1.8200000000000D+00 -4.0828022854751D-02 -5.6625778554269D-02
184  1.8300000000000D+00 -4.8568671256011D-02 -5.2529625327785D-02
185  1.8400000000000D+00 -5.5079165807632D-02 -4.8611922395154D-02
186  1.8500000000000D+00 -6.0407129447142D-02 -4.4876177217513D-02
187  1.8600000000000D+00 -6.4604964501101D-02 -4.1324583020933D-02
188  1.8700000000000D+00 -6.7729695009809D-02 -3.7958030679388D-02
189  1.8800000000000D+00 -6.9842739940426D-02 -3.4776136923865D-02
190  1.8900000000000D+00 -7.1009589201118D-02 -3.1777294562507D-02
191  1.9000000000000D+00 -7.1299785433090D-02 -2.8958653560065D-02
192  1.9100000000000D+00 -7.0787217088911D-02 -2.6316042172457D-02
193  1.9200000000000D+00 -6.9548536931982D-02 -2.3844289533440D-02
194  1.9300000000000D+00 -6.7662269104636D-02 -2.1537396467065D-02
195  1.9400000000000D+00 -6.5207753457540D-02 -1.9388765651281D-02
196  1.9500000000000D+00 -6.2263701865349D-02 -1.7391517171516D-02
197  1.9600000000000D+00 -5.8907388429696D-02 -1.5538668905323D-02
198  1.9700000000000D+00 -5.5214634637916D-02 -1.3823148327250D-02
199  1.9800000000000D+00 -5.1259629397461D-02 -1.2237844580697D-02
200  1.9900000000000D+00 -4.7114278597493D-02 -1.0775754154934D-02
201  2.0000000000000D+00 -4.2847958924781D-02 -9.4300442510270D-03
202  2.0100000000000D+00 -3.8527149005191D-02 -8.1941412658064D-03
203  2.0200000000000D+00 -3.4215096905211D-02 -7.0618114869590D-03
204  2.0300000000000D+00 -2.9971508468765D-02 -6.0272370969695D-03
205  2.0400000000000D+00 -2.5852252442255D-02 -5.0850882075116D-03
206  2.0500000000000D+00 -2.1909084884946D-02 -4.2305904286447D-03
207  2.0600000000000D+00 -1.8189392546454D-02 -3.4595878444303D-03
208  2.0700000000000D+00 -1.4735955066238D-02 -2.7686015513437D-03
209  2.0800000000000D+00 -1.1587196798555D-02 -2.1549646244290D-03
210  2.0900000000000D+00 -8.7777101695843D-03 -1.6169952835846D-03
211  2.1000000000000D+00 -6.3292218437862D-03 -1.1524377183342D-03
212  2.1100000000000D+00 -4.2549337872093D-03 -7.5977314958027D-04
213  2.1200000000000D+00 -2.5932324540165D-03 -4.4265992317169D-04
214  2.1300000000000D+00 -1.3812213831457D-03 -2.0604635465431D-04
215  2.1400000000000D+00 -6.2545779675934D-04 -5.1127595940326D-05
216  2.1500000000000D+00 -2.1975270723983D-04  3.0000883752496D-05
217  2.1600000000000D+00 -4.2978270797362D-05  4.9015894583352D-05
218  2.1700000000000D+00  7.0694806310258D-06  2.9542776803643D-05
219  2.1800000000000D+00  4.6784334714745D-07  7.4322109048234D-07
220  2.1900000000000D+00 -7.7594401481149D-06 -9.0320375744595D-06
221  2.2000000000000D+00 -5.7436349097400D-06 -5.6220937318109D-06
222  2.2100000000000D+00  3.7126652313944D-07  8.9493272167667D-07
223  2.2200000000000D+00  9.5647103432057D-07  1.8508952132481D-06
224  2.2300000000000D+00  3.4849339638357D-07  5.8463303696318D-07
225  2.2400000000000D+00  2.7530869825859D-07 -1.0290253447879D-07
226  2.2500000000000D+00  3.0513883411720D-07 -1.1405218795183D-07
227  2.2600000000000D+00  0.0000000000000D+00  0.0000000000000D+00
228  2.2700000000000D+00  0.0000000000000D+00  0.0000000000000D+00
229  2.2800000000000D+00  0.0000000000000D+00  0.0000000000000D+00
230  2.2900000000000D+00  0.0000000000000D+00  0.0000000000000D+00
231  2.3000000000000D+00  0.0000000000000D+00  0.0000000000000D+00
232  2.3100000000000D+00  0.0000000000000D+00  0.0000000000000D+00
233  2.3200000000000D+00  0.0000000000000D+00  0.0000000000000D+00
234  2.3300000000000D+00  0.0000000000000D+00  0.0000000000000D+00
235  2.3400000000000D+00  0.0000000000000D+00  0.0000000000000D+00
236  2.3500000000000D+00  0.0000000000000D+00  0.0000000000000D+00
237  2.3600000000000D+00  0.0000000000000D+00  0.0000000000000D+00
238  2.3700000000000D+00  0.0000000000000D+00  0.0000000000000D+00
239  2.3800000000000D+00  0.0000000000000D+00  0.0000000000000D+00
240  2.3900000000000D+00  0.0000000000000D+00  0.0000000000000D+00
241  2.4000000000000D+00  0.0000000000000D+00  0.0000000000000D+00
242  2.4100000000000D+00  0.0000000000000D+00  0.0000000000000D+00
243  2.4200000000000D+00  0.0000000000000D+00  0.0000000000000D+00
244  2.4300000000000D+00  0.0000000000000D+00  0.0000000000000D+00
245  2.4400000000000D+00  0.0000000000000D+00  0.0000000000000D+00
246  2.4500000000000D+00  0.0000000000000D+00  0.0000000000000D+00
247  2.4600000000000D+00  0.0000000000000D+00  0.0000000000000D+00
248  2.4700000000000D+00  0.0000000000000D+00  0.0000000000000D+00
249  2.4800000000000D+00  0.0000000000000D+00  0.0000000000000D+00
250  2.4900000000000D+00  0.0000000000000D+00  0.0000000000000D+00
251  2.5000000000000D+00  0.0000000000000D+00  0.0000000000000D+00
252  2.5100000000000D+00  0.0000000000000D+00  0.0000000000000D+00
253  2.5200000000000D+00  0.0000000000000D+00  0.0000000000000D+00
254  2.5300000000000D+00  0.0000000000000D+00  0.0000000000000D+00
255  2.5400000000000D+00  0.0000000000000D+00  0.0000000000000D+00
256  2.5500000000000D+00  0.0000000000000D+00  0.0000000000000D+00
257  2.5600000000000D+00  0.0000000000000D+00  0.0000000000000D+00
258  2.5700000000000D+00  0.0000000000000D+00  0.0000000000000D+00
259  2.5800000000000D+00  0.0000000000000D+00  0.0000000000000D+00
260  2.5900000000000D+00  0.0000000000000D+00  0.0000000000000D+00
261  2.6000000000000D+00  0.0000000000000D+00  0.0000000000000D+00
262  2.6100000000000D+00  0.0000000000000D+00  0.0000000000000D+00
263  2.6200000000000D+00  0.0000000000000D+00  0.0000000000000D+00
264  2.6300000000000D+00  0.0000000000000D+00  0.0000000000000D+00
265  2.6400000000000D+00  0.0000000000000D+00  0.0000000000000D+00
266  2.6500000000000D+00  0.0000000000000D+00  0.0000000000000D+00
267  2.6600000000000D+00  0.0000000000000D+00  0.0000000000000D+00
268  2.6700000000000D+00  0.0000000000000D+00  0.0000000000000D+00
269  2.6800000000000D+00  0.0000000000000D+00  0.0000000000000D+00
270  2.6900000000000D+00  0.0000000000000D+00  0.0000000000000D+00
271  2.7000000000000D+00  0.0000000000000D+00  0.0000000000000D+00
272  2.7100000000000D+00  0.0000000000000D+00  0.0000000000000D+00
273  2.7200000000000D+00  0.0000000000000D+00  0.0000000000000D+00
274  2.7300000000000D+00  0.0000000000000D+00  0.0000000000000D+00
275  2.7400000000000D+00  0.0000000000000D+00  0.0000000000000D+00
276  2.7500000000000D+00  0.0000000000000D+00  0.0000000000000D+00
277  2.7600000000000D+00  0.0000000000000D+00  0.0000000000000D+00
278  2.7700000000000D+00  0.0000000000000D+00  0.0000000000000D+00
279  2.7800000000000D+00  0.0000000000000D+00  0.0000000000000D+00
280  2.7900000000000D+00  0.0000000000000D+00  0.0000000000000D+00
281  2.8000000000000D+00  0.0000000000000D+00  0.0000000000000D+00
282  2.8100000000000D+00  0.0000000000000D+00  0.0000000000000D+00
283  2.8200000000000D+00  0.0000000000000D+00  0.0000000000000D+00
284  2.8300000000000D+00  0.0000000000000D+00  0.0000000000000D+00
285  2.8400000000000D+00  0.0000000000000D+00  0.0000000000000D+00
286  2.8500000000000D+00  0.0000000000000D+00  0.0000000000000D+00
287  2.8600000000000D+00  0.0000000000000D+00  0.0000000000000D+00
288  2.8700000000000D+00  0.0000000000000D+00  0.0000000000000D+00
289  2.8800000000000D+00  0.0000000000000D+00  0.0000000000000D+00
290  2.8900000000000D+00  0.0000000000000D+00  0.0000000000000D+00
291  2.9000000000000D+00  0.0000000000000D+00  0.0000000000000D+00
292  2.9100000000000D+00  0.0000000000000D+00  0.0000000000000D+00
293  2.9200000000000D+00  0.0000000000000D+00  0.0000000000000D+00
294  2.9300000000000D+00  0.0000000000000D+00  0.0000000000000D+00
295  2.9400000000000D+00  0.0000000000000D+00  0.0000000000000D+00
296  2.9500000000000D+00  0.0000000000000D+00  0.0000000000000D+00
297  2.9600000000000D+00  0.0000000000000D+00  0.0000000000000D+00
298  2.9700000000000D+00  0.0000000000000D+00  0.0000000000000D+00
299  2.9800000000000D+00  0.0000000000000D+00  0.0000000000000D+00
300  2.9900000000000D+00  0.0000000000000D+00  0.0000000000000D+00
301  3.0000000000000D+00  0.0000000000000D+00  0.0000000000000D+00
302  3.0100000000000D+00  0.0000000000000D+00  0.0000000000000D+00
303  3.0200000000000D+00  0.0000000000000D+00  0.0000000000000D+00
304  3.0300000000000D+00  0.0000000000000D+00  0.0000000000000D+00
305  3.0400000000000D+00  0.0000000000000D+00  0.0000000000000D+00
306  3.0500000000000D+00  0.0000000000000D+00  0.0000000000000D+00
307  3.0600000000000D+00  0.0000000000000D+00  0.0000000000000D+00
308  3.0700000000000D+00  0.0000000000000D+00  0.0000000000000D+00
309  3.0800000000000D+00  0.0000000000000D+00  0.0000000000000D+00
310  3.0900000000000D+00  0.0000000000000D+00  0.0000000000000D+00
311  3.1000000000000D+00  0.0000000000000D+00  0.0000000000000D+00
312  3.1100000000000D+00  0.0000000000000D+00  0.0000000000000D+00
313  3.1200000000000D+00  0.0000000000000D+00  0.0000000000000D+00
314  3.1300000000000D+00  0.0000000000000D+00  0.0000000000000D+00
315  3.1400000000000D+00  0.0000000000000D+00  0.0000000000000D+00
316  3.1500000000000D+00  0.0000000000000D+00  0.0000000000000D+00
317  3.1600000000000D+00  0.0000000000000D+00  0.0000000000000D+00
318  3.1700000000000D+00  0.0000000000000D+00  0.0000000000000D+00
319  3.1800000000000D+00  0.0000000000000D+00  0.0000000000000D+00
320  3.1900000000000D+00  0.0000000000000D+00  0.0000000000000D+00
321  3.2000000000000D+00  0.0000000000000D+00  0.0000000000000D+00
322  3.2100000000000D+00  0.0000000000000D+00  0.0000000000000D+00
323  3.2200000000000D+00  0.0000000000000D+00  0.0000000000000D+00
324  3.2300000000000D+00  0.0000000000000D+00  0.0000000000000D+00
325  3.2400000000000D+00  0.0000000000000D+00  0.0000000000000D+00
326  3.2500000000000D+00  0.0000000000000D+00  0.0000000000000D+00
327  3.2600000000000D+00  0.0000000000000D+00  0.0000000000000D+00
328  3.2700000000000D+00  0.0000000000000D+00  0.0000000000000D+00
329  3.2800000000000D+00  0.0000000000000D+00  0.0000000000000D+00
330  3.2900000000000D+00  0.0000000000000D+00  0.0000000000000D+00
331  3.3000000000000D+00  0.0000000000000D+00  0.0000000000000D+00
332  3.3100000000000D+00  0.0000000000000D+00  0.0000000000000D+00
333  3.3200000000000D+00  0.0000000000000D+00  0.0000000000000D+00
334  3.3300000000000D+00  0.0000000000000D+00  0.0000000000000D+00
335  3.3400000000000D+00  0.0000000000000D+00  0.0000000000000D+00
336  3.3500000000000D+00  0.0000000000000D+00  0.0000000000000D+00
337  3.3600000000000D+00  0.0000000000000D+00  0.0000000000000D+00
338  3.3700000000000D+00  0.0000000000000D+00  0.0000000000000D+00
339  3.3800000000000D+00  0.0000000000000D+00  0.0000000000000D+00
340  3.3900000000000D+00  0.0000000000000D+00  0.0000000000000D+00
341  3.4000000000000D+00  0.0000000000000D+00  0.0000000000000D+00
342  3.4100000000000D+00  0.0000000000000D+00  0.0000000000000D+00
343  3.4200000000000D+00  0.0000000000000D+00  0.0000000000000D+00
344  3.4300000000000D+00  0.0000000000000D+00  0.0000000000000D+00
345  3.4400000000000D+00  0.0000000000000D+00  0.0000000000000D+00
346  3.4500000000000D+00  0.0000000000000D+00  0.0000000000000D+00
347  3.4600000000000D+00  0.0000000000000D+00  0.0000000000000D+00
348  3.4700000000000D+00  0.0000000000000D+00  0.0000000000000D+00
349  3.4800000000000D+00  0.0000000000000D+00  0.0000000000000D+00
350  3.4900000000000D+00  0.0000000000000D+00  0.0000000000000D+00
351  3.5000000000000D+00  0.0000000000000D+00  0.0000000000000D+00
352  3.5100000000000D+00  0.0000000000000D+00  0.0000000000000D+00
353  3.5200000000000D+00  0.0000000000000D+00  0.0000000000000D+00
354  3.5300000000000D+00  0.0000000000000D+00  0.0000000000000D+00
355  3.5400000000000D+00  0.0000000000000D+00  0.0000000000000D+00
356  3.5500000000000D+00  0.0000000000000D+00  0.0000000000000D+00
357  3.5600000000000D+00  0.0000000000000D+00  0.0000000000000D+00
358  3.5700000000000D+00  0.0000000000000D+00  0.0000000000000D+00
359  3.5800000000000D+00  0.0000000000000D+00  0.0000000000000D+00
360  3.5900000000000D+00  0.0000000000000D+00  0.0000000000000D+00
361  3.6000000000000D+00  0.0000000000000D+00  0.0000000000000D+00
362  3.6100000000000D+00  0.0000000000000D+00  0.0000000000000D+00
363  3.6200000000000D+00  0.0000000000000D+00  0.0000000000000D+00
364  3.6300000000000D+00  0.0000000000000D+00  0.0000000000000D+00
365  3.6400000000000D+00  0.0000000000000D+00  0.0000000000000D+00
366  3.6500000000000D+00  0.0000000000000D+00  0.0000000000000D+00
367  3.6600000000000D+00  0.0000000000000D+00  0.0000000000000D+00
368  3.6700000000000D+00  0.0000000000000D+00  0.0000000000000D+00
369  3.6800000000000D+00  0.0000000000000D+00  0.0000000000000D+00
370  3.6900000000000D+00  0.0000000000000D+00  0.0000000000000D+00
371  3.7000000000000D+00  0.0000000000000D+00  0.0000000000000D+00
372  3.7100000000000D+00  0.0000000000000D+00  0.0000000000000D+00
373  3.7200000000000D+00  0.0000000000000D+00  0.0000000000000D+00
374  3.7300000000000D+00  0.0000000000000D+00  0.0000000000000D+00
375  3.7400000000000D+00  0.0000000000000D+00  0.0000000000000D+00
376  3.7500000000000D+00  0.0000000000000D+00  0.0000000000000D+00
377  3.7600000000000D+00  0.0000000000000D+00  0.0000000000000D+00
378  3.7700000000000D+00  0.0000000000000D+00  0.0000000000000D+00
379  3.7800000000000D+00  0.0000000000000D+00  0.0000000000000D+00
380  3.7900000000000D+00  0.0000000000000D+00  0.0000000000000D+00
381  3.8000000000000D+00  0.0000000000000D+00  0.0000000000000D+00
382  3.8100000000000D+00  0.0000000000000D+00  0.0000000000000D+00
383  3.8200000000000D+00  0.0000000000000D+00  0.0000000000000D+00
384  3.8300000000000D+00  0.0000000000000D+00  0.0000000000000D+00
385  3.8400000000000D+00  0.0000000000000D+00  0.0000000000000D+00
386  3.8500000000000D+00  0.0000000000000D+00  0.0000000000000D+00
387  3.8600000000000D+00  0.0000000000000D+00  0.0000000000000D+00
388  3.8700000000000D+00  0.0000000000000D+00  0.0000000000000D+00
389  3.8800000000000D+00  0.0000000000000D+00  0.0000000000000D+00
390  3.8900000000000D+00  0.0000000000000D+00  0.0000000000000D+00
391  3.9000000000000D+00  0.0000000000000D+00  0.0000000000000D+00
392  3.9100000000000D+00  0.0000000000000D+00  0.0000000000000D+00
393  3.9200000000000D+00  0.0000000000000D+00  0.0000000000000D+00
394  3.9300000000000D+00  0.0000000000000D+00  0.0000000000000D+00
395  3.9400000000000D+00  0.0000000000000D+00  0.0000000000000D+00
396  3.9500000000000D+00  0.0000000000000D+00  0.0000000000000D+00
397  3.9600000000000D+00  0.0000000000000D+00  0.0000000000000D+00
398  3.9700000000000D+00  0.0000000000000D+00  0.0000000000000D+00
399  3.9800000000000D+00  0.0000000000000D+00  0.0000000000000D+00
400  3.9900000000000D+00  0.0000000000000D+00  0.0000000000000D+00
401  4.0000000000000D+00  0.0000000000000D+00  0.0000000000000D+00
402  4.0100000000000D+00  0.0000000000000D+00  0.0000000000000D+00
403  4.0200000000000D+00  0.0000000000000D+00  0.0000000000000D+00
404  4.0300000000000D+00  0.0000000000000D+00  0.0000000000000D+00
405  4.0400000000000D+00  0.0000000000000D+00  0.0000000000000D+00
406  4.0500000000000D+00  0.0000000000000D+00  0.0000000000000D+00
407  4.0600000000000D+00  0.0000000000000D+00  0.0000000000000D+00
408  4.0700000000000D+00  0.0000000000000D+00  0.0000000000000D+00
409  4.0800000000000D+00  0.0000000000000D+00  0.0000000000000D+00
410  4.0900000000000D+00  0.0000000000000D+00  0.0000000000000D+00
411  4.1000000000000D+00  0.0000000000000D+00  0.0000000000000D+00
412  4.1100000000000D+00  0.0000000000000D+00  0.0000000000000D+00
413  4.1200000000000D+00  0.0000000000000D+00  0.0000000000000D+00
414  4.1300000000000D+00  0.0000000000000D+00  0.0000000000000D+00
415  4.1400000000000D+00  0.0000000000000D+00  0.0000000000000D+00
416  4.1500000000000D+00  0.0000000000000D+00  0.0000000000000D+00
417  4.1600000000000D+00  0.0000000000000D+00  0.0000000000000D+00
418  4.1700000000000D+00  0.0000000000000D+00  0.0000000000000D+00
419  4.1800000000000D+00  0.0000000000000D+00  0.0000000000000D+00
420  4.1900000000000D+00  0.0000000000000D+00  0.0000000000000D+00
421  4.2000000000000D+00  0.0000000000000D+00  0.0000000000000D+00
422  4.2100000000000D+00  0.0000000000000D+00  0.0000000000000D+00
423  4.2200000000000D+00  0.0000000000000D+00  0.0000000000000D+00
424  4.2300000000000D+00  0.0000000000000D+00  0.0000000000000D+00
425  4.2400000000000D+00  0.0000000000000D+00  0.0000000000000D+00
426  4.2500000000000D+00  0.0000000000000D+00  0.0000000000000D+00
427  4.2600000000000D+00  0.0000000000000D+00  0.0000000000000D+00
428  4.2700000000000D+00  0.0000000000000D+00  0.0000000000000D+00
429  4.2800000000000D+00  0.0000000000000D+00  0.0000000000000D+00
430  4.2900000000000D+00  0.0000000000000D+00  0.0000000000000D+00
431  4.3000000000000D+00  0.0000000000000D+00  0.0000000000000D+00
432  4.3100000000000D+00  0.0000000000000D+00  0.0000000000000D+00
433  4.3200000000000D+00  0.0000000000000D+00  0.0000000000000D+00
434  4.3300000000000D+00  0.0000000000000D+00  0.0000000000000D+00
435  4.3400000000000D+00  0.0000000000000D+00  0.0000000000000D+00
436  4.3500000000000D+00  0.0000000000000D+00  0.0000000000000D+00
437  4.3600000000000D+00  0.0000000000000D+00  0.0000000000000D+00
438  4.3700000000000D+00  0.0000000000000D+00  0.0000000000000D+00
439  4.3800000000000D+00  0.0000000000000D+00  0.0000000000000D+00
440  4.3900000000000D+00  0.0000000000000D+00  0.0000000000000D+00
441  4.4000000000000D+00  0.0000000000000D+00  0.0000000000000D+00
442  4.4100000000000D+00  0.0000000000000D+00  0.0000000000000D+00
443  4.4200000000000D+00  0.0000000000000D+00  0.0000000000000D+00