Rn    ONCVPSP  r_core=  2.21  2.01  1.80
86.0000     18.0000      141211    zatom,zion,pspd
8    11     2     4   601     0    pspcod,pspxc,lmax,lloc,mmax,r2well
6.00000000  0.40000000  0.00000000    rchrg fchrg qchrg
2     2     2     0     0    nproj
0                 extension_switch
0                         7.5667062727628D+00  1.4332670366727D+00
1  0.0000000000000D+00 -0.0000000000000D+00  0.0000000000000D+00
2  1.0000000000000D-02 -1.4655930995065D-02  1.3578816708710D-02
3  2.0000000000000D-02 -2.9337199374941D-02  2.7083808230878D-02
4  3.0000000000000D-02 -4.4069022413199D-02  4.0441455718592D-02
5  4.0000000000000D-02 -5.8876377543416D-02  5.3578851970869D-02
6  5.0000000000000D-02 -7.3783883394467D-02  6.6424004683856D-02
7  6.0000000000000D-02 -8.8815681969357D-02  7.8906136620700D-02
8  7.0000000000000D-02 -1.0399532234458D-01  9.0955981685763D-02
9  8.0000000000000D-02 -1.1934564626222D-01  1.0250607590077D-01
10  9.0000000000000D-02 -1.3488867598445D-01  1.1349104228750D-01
11  1.0000000000000D-01 -1.5064550476973D-01  1.2384786868983D-01
12  1.1000000000000D-01 -1.6663619032954D-01  1.3351617756899D-01
13  1.2000000000000D-01 -1.8287965161120D-01  1.4243848684288D-01
14  1.3000000000000D-01 -1.9939356925416D-01  1.5056046083603D-01
15  1.4000000000000D-01 -2.1619429002178D-01  1.5783115052379D-01
16  1.5000000000000D-01 -2.3329673558568D-01  1.6420322206799D-01
17  1.6000000000000D-01 -2.5071431588124D-01  1.6963317304221D-01
18  1.7000000000000D-01 -2.6845884746542D-01  1.7408153521457D-01
19  1.8000000000000D-01 -2.8654047697109D-01  1.7751306360334D-01
20  1.9000000000000D-01 -3.0496761012948D-01  1.7989691058032D-01
21  2.0000000000000D-01 -3.2374684644453D-01  1.8120678476939D-01
22  2.1000000000000D-01 -3.4288291991572D-01  1.8142109371555D-01
23  2.2000000000000D-01 -3.6237864588404D-01  1.8052307010075D-01
24  2.3000000000000D-01 -3.8223487426400D-01  1.7850088082162D-01
25  2.4000000000000D-01 -4.0245044938296D-01  1.7534771835465D-01
26  2.5000000000000D-01 -4.2302217673765D-01  1.7106187364965D-01
27  2.6000000000000D-01 -4.4394479614402D-01  1.6564679174226D-01
28  2.7000000000000D-01 -4.6521096260126D-01  1.5911110696361D-01
29  2.8000000000000D-01 -4.8681123382636D-01  1.5146866018964D-01
30  2.9000000000000D-01 -5.0873406514276D-01  1.4273849651108D-01
31  3.0000000000000D-01 -5.3096581168496D-01  1.3294484342665D-01
32  3.1000000000000D-01 -5.5349073795070D-01  1.2211706949995D-01
33  3.2000000000000D-01 -5.7629103474338D-01  1.1028962341148D-01
34  3.3000000000000D-01 -5.9934684346706D-01  9.7501953704731D-02
35  3.4000000000000D-01 -6.2263628769927D-01  8.3798408841288D-02
36  3.5000000000000D-01 -6.4613551215935D-01  6.9228118502670D-02
37  3.6000000000000D-01 -6.6981872906377D-01  5.3844854674950D-02
38  3.7000000000000D-01 -6.9365827086162D-01  3.7706877126968D-02
39  3.8000000000000D-01 -7.1762465152125D-01  2.0876755143833D-02
40  3.9000000000000D-01 -7.4168663312742D-01  3.4211769327377D-03
41  4.0000000000000D-01 -7.6581129994796D-01 -1.4589260979555D-02
42  4.1000000000000D-01 -7.8996413901487D-01 -3.3080280948977D-02
43  4.2000000000000D-01 -8.1410912701878D-01 -5.1974167457274D-02
44  4.3000000000000D-01 -8.3820882331044D-01 -7.1190025774553D-02
45  4.4000000000000D-01 -8.6222446877223D-01 -9.0644055313268D-02
46  4.5000000000000D-01 -8.8611609030690D-01 -1.1024983689679D-01
47  4.6000000000000D-01 -9.0984261065949D-01 -1.2991863307236D-01
48  4.7000000000000D-01 -9.3336196323098D-01 -1.4955970043670D-01
49  4.8000000000000D-01 -9.5663121144897D-01 -1.6908061268634D-01
50  4.9000000000000D-01 -9.7960666905477D-01 -1.8838758427951D-01
51  5.0000000000000D-01 -1.0022440343603D+00 -2.0738583077433D-01
52  5.1000000000000D-01 -1.0244985202134D+00 -2.2597991480835D-01
53  5.2000000000000D-01 -1.0463249788114D+00 -2.4407407619277D-01
54  5.3000000000000D-01 -1.0676780500532D+00 -2.6157262428356D-01
55  5.4000000000000D-01 -1.0885123029846D+00 -2.7838030848023D-01
56  5.5000000000000D-01 -1.1087823507450D+00 -2.9440261553643D-01
57  5.6000000000000D-01 -1.1284430444560D+00 -3.0954627654624D-01
58  5.7000000000000D-01 -1.1474495458271D+00 -3.2371944607514D-01
59  5.8000000000000D-01 -1.1657575554535D+00 -3.3683229464614D-01
60  5.9000000000000D-01 -1.1833233641907D+00 -3.4879712769412D-01
61  6.0000000000000D-01 -1.2001040894018D+00 -3.5952899122595D-01
62  6.1000000000000D-01 -1.2160577401679D+00 -3.6894582327696D-01
63  6.2000000000000D-01 -1.2311433988269D+00 -3.7696890816782D-01
64  6.3000000000000D-01 -1.2453213706661D+00 -3.8352324278037D-01
65  6.4000000000000D-01 -1.2585532635114D+00 -3.8853771917807D-01
66  6.5000000000000D-01 -1.2708021890215D+00 -3.9194561671217D-01
67  6.6000000000000D-01 -1.2820328671580D+00 -3.9368484074527D-01
68  6.7000000000000D-01 -1.2922117295596D+00 -3.9369815651294D-01
69  6.8000000000000D-01 -1.3013070470805D+00 -3.9193348089944D-01
70  6.9000000000000D-01 -1.3092891070378D+00 -3.8834429117286D-01
71  7.0000000000000D-01 -1.3161302545701D+00 -3.8288969134697D-01
72  7.1000000000000D-01 -1.3218050219250D+00 -3.7553469358398D-01
73  7.2000000000000D-01 -1.3262902174777D+00 -3.6625039569555D-01
74  7.3000000000000D-01 -1.3295650458583D+00 -3.5501422771380D-01
75  7.4000000000000D-01 -1.3316111982610D+00 -3.4181011955930D-01
76  7.5000000000000D-01 -1.3324129023669D+00 -3.2662856910937D-01
77  7.6000000000000D-01 -1.3319570086523D+00 -3.0946679112156D-01
78  7.7000000000000D-01 -1.3302330555105D+00 -2.9032880996114D-01
79  7.8000000000000D-01 -1.3272333262253D+00 -2.6922552740470D-01
80  7.9000000000000D-01 -1.3229528975575D+00 -2.4617476503267D-01
81  8.0000000000000D-01 -1.3173896797363D+00 -2.2120128082287D-01
82  8.1000000000000D-01 -1.3105444476780D+00 -1.9433675965701D-01
83  8.2000000000000D-01 -1.3024208632831D+00 -1.6561977754919D-01
84  8.3000000000000D-01 -1.2930254886940D+00 -1.3509573950168D-01
85  8.4000000000000D-01 -1.2823677897609D+00 -1.0281678984596D-01
86  8.5000000000000D-01 -1.2704601342695D+00 -6.8841703149612D-02
87  8.6000000000000D-01 -1.2573177710495D+00 -3.3235731909782D-02
88  8.7000000000000D-01 -1.2429588130297D+00  3.9295487480989D-03
89  8.8000000000000D-01 -1.2274042011863D+00  4.2576438932720D-02
90  8.9000000000000D-01 -1.2106776632777D+00  8.2621329972047D-02
91  9.0000000000000D-01 -1.1928056628326D+00  1.2397494592912D-01
92  9.1000000000000D-01 -1.1738173391652D+00  1.6654260881227D-01
93  9.2000000000000D-01 -1.1537444385718D+00  2.1022452665861D-01
94  9.3000000000000D-01 -1.1326212369037D+00  2.5491610353171D-01
95  9.4000000000000D-01 -1.1104844537629D+00  3.0050827032101D-01
96  9.5000000000000D-01 -1.0873731586183D+00  3.4688783506344D-01
97  9.6000000000000D-01 -1.0633286692047D+00  3.9393785132547D-01
98  9.7000000000000D-01 -1.0383944426329D+00  4.4153800299031D-01
99  9.8000000000000D-01 -1.0126159660118D+00  4.8956494948739D-01
100  9.9000000000000D-01 -9.8604063193567D-01  5.3789281793217D-01
101  1.0000000000000D+00 -9.5871759221371D-01  5.8639368622565D-01
102  1.0100000000000D+00 -9.3069763595833D-01  6.3493791391323D-01
103  1.0200000000000D+00 -9.0203304681003D-01  6.8339462748168D-01
104  1.0300000000000D+00 -8.7277745881629D-01  7.3163217145136D-01
105  1.0400000000000D+00 -8.4298574582662D-01  7.7951840478772D-01
106  1.0500000000000D+00 -8.1271381641960D-01  8.2692142020898D-01
107  1.0600000000000D+00 -7.8201840412703D-01  8.7371018703279D-01
108  1.0700000000000D+00 -7.5095700130427D-01  9.1975461961050D-01
109  1.0800000000000D+00 -7.1958767012802D-01  9.6492617253655D-01
110  1.0900000000000D+00 -6.8796900253373D-01  1.0090978646210D+00
111  1.1000000000000D+00 -6.5615967294675D-01  1.0521457877282D+00
112  1.1100000000000D+00 -6.2421838768526D-01  1.0939490769297D+00
113  1.1200000000000D+00 -5.9220381320853D-01  1.1343900333187D+00
114  1.1300000000000D+00 -5.6017452362605D-01  1.1733542135284D+00
115  1.1400000000000D+00 -5.2818853629820D-01  1.2107318784216D+00
116  1.1500000000000D+00 -4.9630309642100D-01  1.2464185006332D+00
117  1.1600000000000D+00 -4.6457484287797D-01  1.2803140956570D+00
118  1.1700000000000D+00 -4.3305986648946D-01  1.3123229922172D+00
119  1.1800000000000D+00 -4.0181265672745D-01  1.3423569716451D+00
120  1.1900000000000D+00 -3.7088655620619D-01  1.3703336534958D+00
121  1.2000000000000D+00 -3.4033386585009D-01  1.3961761159070D+00
122  1.2100000000000D+00 -3.1020545919711D-01  1.4198139789503D+00
123  1.2200000000000D+00 -2.8054991980957D-01  1.4411856678658D+00
124  1.2300000000000D+00 -2.5141452501141D-01  1.4602354494572D+00
125  1.2400000000000D+00 -2.2284524399371D-01  1.4769134718312D+00
126  1.2500000000000D+00 -1.9488478324136D-01  1.4911808738819D+00
127  1.2600000000000D+00 -1.6757437932409D-01  1.5030047147879D+00
128  1.2700000000000D+00 -1.4095389677719D-01  1.5123578228850D+00
129  1.2800000000000D+00 -1.1505926092473D-01  1.5192251337853D+00
130  1.2900000000000D+00 -8.9924891701650D-02  1.5235972496631D+00
131  1.3000000000000D+00 -6.5583481698234D-02  1.5254711428132D+00
132  1.3100000000000D+00 -4.2063518914415D-02  1.5248557487984D+00
133  1.3200000000000D+00 -1.9392085896560D-02  1.5217651395997D+00
134  1.3300000000000D+00  2.4062042152623D-03  1.5162210946854D+00
135  1.3400000000000D+00  2.3310665171936D-02  1.5082558235985D+00
136  1.3500000000000D+00  4.3301839333513D-02  1.4979061037327D+00
137  1.3600000000000D+00  6.2363883912684D-02  1.4852181812424D+00
138  1.3700000000000D+00  8.0483964768311D-02  1.4702459416157D+00
139  1.3800000000000D+00  9.7650381351228D-02  1.4530476503507D+00
140  1.3900000000000D+00  1.1385639755963D-01  1.4336923174374D+00
141  1.4000000000000D+00  1.2909638518764D-01  1.4122527362924D+00
142  1.4100000000000D+00  1.4336777085219D-01  1.3888088636014D+00
143  1.4200000000000D+00  1.5667141237539D-01  1.3634473934354D+00
144  1.4300000000000D+00  1.6900904534300D-01  1.3362588046094D+00
145  1.4400000000000D+00  1.8038709291305D-01  1.3073410801178D+00
146  1.4500000000000D+00  1.9081282017571D-01  1.2767953720633D+00
147  1.4600000000000D+00  2.0029668250139D-01  1.2447282272251D+00
148  1.4700000000000D+00  2.0885152416958D-01  1.2112497194032D+00
149  1.4800000000000D+00  2.1649171011973D-01  1.1764740335034D+00
150  1.4900000000000D+00  2.2323500082363D-01  1.1405176900612D+00
151  1.5000000000000D+00  2.2909981882260D-01  1.1035011610355D+00
152  1.5100000000000D+00  2.3410787076679D-01  1.0655455101904D+00
153  1.5200000000000D+00  2.3828171956395D-01  1.0267749616109D+00
154  1.5300000000000D+00  2.4164627258494D-01  9.8731405112700D-01
155  1.5400000000000D+00  2.4422773271862D-01  9.4728803288763D-01
156  1.5500000000000D+00  2.4605392536560D-01  9.0682357189725D-01
157  1.5600000000000D+00  2.4715397437448D-01  8.6604435916714D-01
158  1.5700000000000D+00  2.4755831443965D-01  8.2507770186596D-01
159  1.5800000000000D+00  2.4729824894768D-01  7.8404329727228D-01
160  1.5900000000000D+00  2.4640646509115D-01  7.4306745714661D-01
161  1.6000000000000D+00  2.4491574010754D-01  7.0226393447458D-01
162  1.6100000000000D+00  2.4286051963939D-01  6.6175548817282D-01
163  1.6200000000000D+00  2.4027449555524D-01  6.2164911428496D-01
164  1.6300000000000D+00  2.3719318504897D-01  5.8206081076698D-01
165  1.6400000000000D+00  2.3365074318932D-01  5.4309013254654D-01
166  1.6500000000000D+00  2.2968311853603D-01  5.0484426191517D-01
167  1.6600000000000D+00  2.2532437208307D-01  4.6741352965927D-01
168  1.6700000000000D+00  2.2061031782373D-01  4.3089490609478D-01
169  1.6800000000000D+00  2.1557432792124D-01  3.9536770366399D-01
170  1.6900000000000D+00  2.1025158083742D-01  3.6091759884621D-01
171  1.7000000000000D+00  2.0467413202536D-01  3.2761112648795D-01
172  1.7100000000000D+00  1.9887609681328D-01  2.9552189180923D-01
173  1.7200000000000D+00  1.9288756160795D-01  2.6470198509284D-01
174  1.7300000000000D+00  1.8674122712430D-01  2.3521243814964D-01
175  1.7400000000000D+00  1.8046454767567D-01  2.0708939318782D-01
176  1.7500000000000D+00  1.7408852970502D-01  1.8038102966349D-01
177  1.7600000000000D+00  1.6763734215305D-01  1.5510628997495D-01
178  1.7700000000000D+00  1.6114007587690D-01  1.3130036732563D-01
179  1.7800000000000D+00  1.5461730208515D-01  1.0896513514317D-01
180  1.7900000000000D+00  1.4809506922029D-01  8.8119509461495D-02
181  1.8000000000000D+00  1.4159101191025D-01  6.8751775485928D-02
182  1.8100000000000D+00  1.3512675924440D-01  5.0860915630667D-02
183  1.8200000000000D+00  1.2871806986925D-01  3.4426088561372D-02
184  1.8300000000000D+00  1.2238224961760D-01  1.9428591101870D-02
185  1.8400000000000D+00  1.1613367424668D-01  5.8403493331643D-03
186  1.8500000000000D+00  1.0998617972929D-01 -6.3703154874853D-03
187  1.8600000000000D+00  1.0395288337355D-01 -1.7238281595735D-02
188  1.8700000000000D+00  9.8044196816743D-02 -2.6806753544258D-02
189  1.8800000000000D+00  9.2272082053415D-02 -3.5117122203799D-02
190  1.8900000000000D+00  8.6643781253438D-02 -4.2221946808361D-02
191  1.9000000000000D+00  8.1169873151438D-02 -4.8169620259079D-02
192  1.9100000000000D+00  7.5855432300042D-02 -5.3018699966633D-02
193  1.9200000000000D+00  7.0708193781499D-02 -5.6826059673071D-02
194  1.9300000000000D+00  6.5732724268714D-02 -5.9653111508511D-02
195  1.9400000000000D+00  6.0933653597811D-02 -6.1563398990760D-02
196  1.9500000000000D+00  5.6315105504639D-02 -6.2621651738846D-02
197  1.9600000000000D+00  5.1879043113925D-02 -6.2894501198633D-02
198  1.9700000000000D+00  4.7629018007057D-02 -6.2451029176559D-02
199  1.9800000000000D+00  4.3565246330879D-02 -6.1357876697869D-02
200  1.9900000000000D+00  3.9689601317102D-02 -5.9686808138946D-02
201  2.0000000000000D+00  3.6002027712391D-02 -5.7504898939148D-02
202  2.0100000000000D+00  3.2502465788251D-02 -5.4881943426647D-02
203  2.0200000000000D+00  2.9190747190712D-02 -5.1887863569068D-02
204  2.0300000000000D+00  2.6065514266690D-02 -4.8585862161011D-02
205  2.0400000000000D+00  2.3126075723217D-02 -4.5049389448782D-02
206  2.0500000000000D+00  2.0370652146929D-02 -4.1335586892298D-02
207  2.0600000000000D+00  1.7797663536351D-02 -3.7511464817426D-02
208  2.0700000000000D+00  1.5405368349604D-02 -3.3637025695725D-02
209  2.0800000000000D+00  1.3191833084702D-02 -2.9765291105601D-02
210  2.0900000000000D+00  1.1154938646654D-02 -2.5961851320957D-02
211  2.1000000000000D+00  9.2929601419583D-03 -2.2267099903322D-02
212  2.1100000000000D+00  7.6036956106501D-03 -1.8736796606908D-02
213  2.1200000000000D+00  6.0853447043793D-03 -1.5414652008988D-02
214  2.1300000000000D+00  4.7363716264092D-03 -1.2335856644767D-02
215  2.1400000000000D+00  3.5544489239583D-03 -9.5515375288264D-03
216  2.1500000000000D+00  2.5388426341905D-03 -7.0805882674633D-03
217  2.1600000000000D+00  1.6878507004865D-03 -4.9590290958428D-03
218  2.1700000000000D+00  1.0003333005386D-03 -3.2126216412721D-03
219  2.1800000000000D+00  4.7595200631679D-04 -1.8528166749518D-03
220  2.1900000000000D+00  1.3386403803450D-04 -9.9192022563392D-04
221  2.2000000000000D+00 -6.3118298117767D-05 -4.7826125763276D-04
222  2.2100000000000D+00 -1.3662801386940D-04 -1.9527041791260D-04
223  2.2200000000000D+00 -1.0657144814600D-04 -4.1502181142864D-05
224  2.2300000000000D+00 -3.1700146630068D-05  1.8254568172810D-06
225  2.2400000000000D+00  7.1104303912354D-06  1.4002323803092D-05
226  2.2500000000000D+00  7.7112676986503D-06  1.5185531860620D-05
227  2.2600000000000D+00  6.1112746424039D-07  1.2034721062462D-06
228  2.2700000000000D+00  0.0000000000000D+00  0.0000000000000D+00
229  2.2800000000000D+00  0.0000000000000D+00  0.0000000000000D+00
230  2.2900000000000D+00  0.0000000000000D+00  0.0000000000000D+00
231  2.3000000000000D+00  0.0000000000000D+00  0.0000000000000D+00
232  2.3100000000000D+00  0.0000000000000D+00  0.0000000000000D+00
233  2.3200000000000D+00  0.0000000000000D+00  0.0000000000000D+00
234  2.3300000000000D+00  0.0000000000000D+00  0.0000000000000D+00
235  2.3400000000000D+00  0.0000000000000D+00  0.0000000000000D+00
236  2.3500000000000D+00  0.0000000000000D+00  0.0000000000000D+00
237  2.3600000000000D+00  0.0000000000000D+00  0.0000000000000D+00
238  2.3700000000000D+00  0.0000000000000D+00  0.0000000000000D+00
239  2.3800000000000D+00  0.0000000000000D+00  0.0000000000000D+00
240  2.3900000000000D+00  0.0000000000000D+00  0.0000000000000D+00
241  2.4000000000000D+00  0.0000000000000D+00  0.0000000000000D+00
242  2.4100000000000D+00  0.0000000000000D+00  0.0000000000000D+00
243  2.4200000000000D+00  0.0000000000000D+00  0.0000000000000D+00
244  2.4300000000000D+00  0.0000000000000D+00  0.0000000000000D+00
245  2.4400000000000D+00  0.0000000000000D+00  0.0000000000000D+00
246  2.4500000000000D+00  0.0000000000000D+00  0.0000000000000D+00
247  2.4600000000000D+00  0.0000000000000D+00  0.0000000000000D+00
248  2.4700000000000D+00  0.0000000000000D+00  0.0000000000000D+00
249  2.4800000000000D+00  0.0000000000000D+00  0.0000000000000D+00
250  2.4900000000000D+00  0.0000000000000D+00  0.0000000000000D+00
251  2.5000000000000D+00  0.0000000000000D+00  0.0000000000000D+00
252  2.5100000000000D+00  0.0000000000000D+00  0.0000000000000D+00
253  2.5200000000000D+00  0.0000000000000D+00  0.0000000000000D+00
254  2.5300000000000D+00  0.0000000000000D+00  0.0000000000000D+00
255  2.5400000000000D+00  0.0000000000000D+00  0.0000000000000D+00
256  2.5500000000000D+00  0.0000000000000D+00  0.0000000000000D+00
257  2.5600000000000D+00  0.0000000000000D+00  0.0000000000000D+00
258  2.5700000000000D+00  0.0000000000000D+00  0.0000000000000D+00
259  2.5800000000000D+00  0.0000000000000D+00  0.0000000000000D+00
260  2.5900000000000D+00  0.0000000000000D+00  0.0000000000000D+00
261  2.6000000000000D+00  0.0000000000000D+00  0.0000000000000D+00
262  2.6100000000000D+00  0.0000000000000D+00  0.0000000000000D+00
263  2.6200000000000D+00  0.0000000000000D+00  0.0000000000000D+00
264  2.6300000000000D+00  0.0000000000000D+00  0.0000000000000D+00
265  2.6400000000000D+00  0.0000000000000D+00  0.0000000000000D+00
266  2.6500000000000D+00  0.0000000000000D+00  0.0000000000000D+00
267  2.6600000000000D+00  0.0000000000000D+00  0.0000000000000D+00
268  2.6700000000000D+00  0.0000000000000D+00  0.0000000000000D+00
269  2.6800000000000D+00  0.0000000000000D+00  0.0000000000000D+00
270  2.6900000000000D+00  0.0000000000000D+00  0.0000000000000D+00
271  2.7000000000000D+00  0.0000000000000D+00  0.0000000000000D+00
272  2.7100000000000D+00  0.0000000000000D+00  0.0000000000000D+00
273  2.7200000000000D+00  0.0000000000000D+00  0.0000000000000D+00
274  2.7300000000000D+00  0.0000000000000D+00  0.0000000000000D+00
275  2.7400000000000D+00  0.0000000000000D+00  0.0000000000000D+00
276  2.7500000000000D+00  0.0000000000000D+00  0.0000000000000D+00
277  2.7600000000000D+00  0.0000000000000D+00  0.0000000000000D+00
278  2.7700000000000D+00  0.0000000000000D+00  0.0000000000000D+00
279  2.7800000000000D+00  0.0000000000000D+00  0.0000000000000D+00
280  2.7900000000000D+00  0.0000000000000D+00  0.0000000000000D+00
281  2.8000000000000D+00  0.0000000000000D+00  0.0000000000000D+00
282  2.8100000000000D+00  0.0000000000000D+00  0.0000000000000D+00
283  2.8200000000000D+00  0.0000000000000D+00  0.0000000000000D+00
284  2.8300000000000D+00  0.0000000000000D+00  0.0000000000000D+00
285  2.8400000000000D+00  0.0000000000000D+00  0.0000000000000D+00
286  2.8500000000000D+00  0.0000000000000D+00  0.0000000000000D+00
287  2.8600000000000D+00  0.0000000000000D+00  0.0000000000000D+00
288  2.8700000000000D+00  0.0000000000000D+00  0.0000000000000D+00
289  2.8800000000000D+00  0.0000000000000D+00  0.0000000000000D+00
290  2.8900000000000D+00  0.0000000000000D+00  0.0000000000000D+00
291  2.9000000000000D+00  0.0000000000000D+00  0.0000000000000D+00
292  2.9100000000000D+00  0.0000000000000D+00  0.0000000000000D+00
293  2.9200000000000D+00  0.0000000000000D+00  0.0000000000000D+00
294  2.9300000000000D+00  0.0000000000000D+00  0.0000000000000D+00
295  2.9400000000000D+00  0.0000000000000D+00  0.0000000000000D+00
296  2.9500000000000D+00  0.0000000000000D+00  0.0000000000000D+00
297  2.9600000000000D+00  0.0000000000000D+00  0.0000000000000D+00
298  2.9700000000000D+00  0.0000000000000D+00  0.0000000000000D+00
299  2.9800000000000D+00  0.0000000000000D+00  0.0000000000000D+00
300  2.9900000000000D+00  0.0000000000000D+00  0.0000000000000D+00
301  3.0000000000000D+00  0.0000000000000D+00  0.0000000000000D+00
302  3.0100000000000D+00  0.0000000000000D+00  0.0000000000000D+00
303  3.0200000000000D+00  0.0000000000000D+00  0.0000000000000D+00
304  3.0300000000000D+00  0.0000000000000D+00  0.0000000000000D+00
305  3.0400000000000D+00  0.0000000000000D+00  0.0000000000000D+00
306  3.0500000000000D+00  0.0000000000000D+00  0.0000000000000D+00
307  3.0600000000000D+00  0.0000000000000D+00  0.0000000000000D+00
308  3.0700000000000D+00  0.0000000000000D+00  0.0000000000000D+00
309  3.0800000000000D+00  0.0000000000000D+00  0.0000000000000D+00
310  3.0900000000000D+00  0.0000000000000D+00  0.0000000000000D+00
311  3.1000000000000D+00  0.0000000000000D+00  0.0000000000000D+00
312  3.1100000000000D+00  0.0000000000000D+00  0.0000000000000D+00
313  3.1200000000000D+00  0.0000000000000D+00  0.0000000000000D+00
314  3.1300000000000D+00  0.0000000000000D+00  0.0000000000000D+00
315  3.1400000000000D+00  0.0000000000000D+00  0.0000000000000D+00
316  3.1500000000000D+00  0.0000000000000D+00  0.0000000000000D+00
317  3.1600000000000D+00  0.0000000000000D+00  0.0000000000000D+00
318  3.1700000000000D+00  0.0000000000000D+00  0.0000000000000D+00
319  3.1800000000000D+00  0.0000000000000D+00  0.0000000000000D+00
320  3.1900000000000D+00  0.0000000000000D+00  0.0000000000000D+00
321  3.2000000000000D+00  0.0000000000000D+00  0.0000000000000D+00
322  3.2100000000000D+00  0.0000000000000D+00  0.0000000000000D+00
323  3.2200000000000D+00  0.0000000000000D+00  0.0000000000000D+00
324  3.2300000000000D+00  0.0000000000000D+00  0.0000000000000D+00
325  3.2400000000000D+00  0.0000000000000D+00  0.0000000000000D+00
326  3.2500000000000D+00  0.0000000000000D+00  0.0000000000000D+00
327  3.2600000000000D+00  0.0000000000000D+00  0.0000000000000D+00
328  3.2700000000000D+00  0.0000000000000D+00  0.0000000000000D+00
329  3.2800000000000D+00  0.0000000000000D+00  0.0000000000000D+00
330  3.2900000000000D+00  0.0000000000000D+00  0.0000000000000D+00
331  3.3000000000000D+00  0.0000000000000D+00  0.0000000000000D+00
332  3.3100000000000D+00  0.0000000000000D+00  0.0000000000000D+00
333  3.3200000000000D+00  0.0000000000000D+00  0.0000000000000D+00
334  3.3300000000000D+00  0.0000000000000D+00  0.0000000000000D+00
335  3.3400000000000D+00  0.0000000000000D+00  0.0000000000000D+00
336  3.3500000000000D+00  0.0000000000000D+00  0.0000000000000D+00
337  3.3600000000000D+00  0.0000000000000D+00  0.0000000000000D+00
338  3.3700000000000D+00  0.0000000000000D+00  0.0000000000000D+00
339  3.3800000000000D+00  0.0000000000000D+00  0.0000000000000D+00
340  3.3900000000000D+00  0.0000000000000D+00  0.0000000000000D+00
341  3.4000000000000D+00  0.0000000000000D+00  0.0000000000000D+00
342  3.4100000000000D+00  0.0000000000000D+00  0.0000000000000D+00
343  3.4200000000000D+00  0.0000000000000D+00  0.0000000000000D+00
344  3.4300000000000D+00  0.0000000000000D+00  0.0000000000000D+00
345  3.4400000000000D+00  0.0000000000000D+00  0.0000000000000D+00
346  3.4500000000000D+00  0.0000000000000D+00  0.0000000000000D+00
347  3.4600000000000D+00  0.0000000000000D+00  0.0000000000000D+00
348  3.4700000000000D+00  0.0000000000000D+00  0.0000000000000D+00
349  3.4800000000000D+00  0.0000000000000D+00  0.0000000000000D+00
350  3.4900000000000D+00  0.0000000000000D+00  0.0000000000000D+00
351  3.5000000000000D+00  0.0000000000000D+00  0.0000000000000D+00
352  3.5100000000000D+00  0.0000000000000D+00  0.0000000000000D+00
353  3.5200000000000D+00  0.0000000000000D+00  0.0000000000000D+00
354  3.5300000000000D+00  0.0000000000000D+00  0.0000000000000D+00
355  3.5400000000000D+00  0.0000000000000D+00  0.0000000000000D+00
356  3.5500000000000D+00  0.0000000000000D+00  0.0000000000000D+00
357  3.5600000000000D+00  0.0000000000000D+00  0.0000000000000D+00
358  3.5700000000000D+00  0.0000000000000D+00  0.0000000000000D+00
359  3.5800000000000D+00  0.0000000000000D+00  0.0000000000000D+00
360  3.5900000000000D+00  0.0000000000000D+00  0.0000000000000D+00
361  3.6000000000000D+00  0.0000000000000D+00  0.0000000000000D+00
362  3.6100000000000D+00  0.0000000000000D+00  0.0000000000000D+00
363  3.6200000000000D+00  0.0000000000000D+00  0.0000000000000D+00
364  3.6300000000000D+00  0.0000000000000D+00  0.0000000000000D+00
365  3.6400000000000D+00  0.0000000000000D+00  0.0000000000000D+00
366  3.6500000000000D+00  0.0000000000000D+00  0.0000000000000D+00
367  3.6600000000000D+00  0.0000000000000D+00  0.0000000000000D+00
368  3.6700000000000D+00  0.0000000000000D+00  0.0000000000000D+00
369  3.6800000000000D+00  0.0000000000000D+00  0.0000000000000D+00
370  3.6900000000000D+00  0.0000000000000D+00  0.0000000000000D+00
371  3.7000000000000D+00  0.0000000000000D+00  0.0000000000000D+00
372  3.7100000000000D+00  0.0000000000000D+00  0.0000000000000D+00
373  3.7200000000000D+00  0.0000000000000D+00  0.0000000000000D+00
374  3.7300000000000D+00  0.0000000000000D+00  0.0000000000000D+00
375  3.7400000000000D+00  0.0000000000000D+00  0.0000000000000D+00
376  3.7500000000000D+00  0.0000000000000D+00  0.0000000000000D+00
377  3.7600000000000D+00  0.0000000000000D+00  0.0000000000000D+00
378  3.7700000000000D+00  0.0000000000000D+00  0.0000000000000D+00
379  3.7800000000000D+00  0.0000000000000D+00  0.0000000000000D+00
380  3.7900000000000D+00  0.0000000000000D+00  0.0000000000000D+00
381  3.8000000000000D+00  0.0000000000000D+00  0.0000000000000D+00
382  3.8100000000000D+00  0.0000000000000D+00  0.0000000000000D+00
383  3.8200000000000D+00  0.0000000000000D+00  0.0000000000000D+00
384  3.8300000000000D+00  0.0000000000000D+00  0.0000000000000D+00
385  3.8400000000000D+00  0.0000000000000D+00  0.0000000000000D+00
386  3.8500000000000D+00  0.0000000000000D+00  0.0000000000000D+00
387  3.8600000000000D+00  0.0000000000000D+00  0.0000000000000D+00
388  3.8700000000000D+00  0.0000000000000D+00  0.0000000000000D+00
389  3.8800000000000D+00  0.0000000000000D+00  0.0000000000000D+00
390  3.8900000000000D+00  0.0000000000000D+00  0.0000000000000D+00
391  3.9000000000000D+00  0.0000000000000D+00  0.0000000000000D+00
392  3.9100000000000D+00  0.0000000000000D+00  0.0000000000000D+00
393  3.9200000000000D+00  0.0000000000000D+00  0.0000000000000D+00
394  3.9300000000000D+00  0.0000000000000D+00  0.0000000000000D+00
395  3.9400000000000D+00  0.0000000000000D+00  0.0000000000000D+00
396  3.9500000000000D+00  0.0000000000000D+00  0.0000000000000D+00
397  3.9600000000000D+00  0.0000000000000D+00  0.0000000000000D+00
398  3.9700000000000D+00  0.0000000000000D+00  0.0000000000000D+00
399  3.9800000000000D+00  0.0000000000000D+00  0.0000000000000D+00
400  3.9900000000000D+00  0.0000000000000D+00  0.0000000000000D+00
401  4.0000000000000D+00  0.0000000000000D+00  0.0000000000000D+00
402  4.0100000000000D+00  0.0000000000000D+00  0.0000000000000D+00
403  4.0200000000000D+00  0.0000000000000D+00  0.0000000000000D+00
404  4.0300000000000D+00  0.0000000000000D+00  0.0000000000000D+00
405  4.0400000000000D+00  0.0000000000000D+00  0.0000000000000D+00
406  4.0500000000000D+00  0.0000000000000D+00  0.0000000000000D+00
407  4.0600000000000D+00  0.0000000000000D+00  0.0000000000000D+00
408  4.0700000000000D+00  0.0000000000000D+00  0.0000000000000D+00
409  4.0800000000000D+00  0.0000000000000D+00  0.0000000000000D+00
410  4.0900000000000D+00  0.0000000000000D+00  0.0000000000000D+00
411  4.1000000000000D+00  0.0000000000000D+00  0.0000000000000D+00
412  4.1100000000000D+00  0.0000000000000D+00  0.0000000000000D+00
413  4.1200000000000D+00  0.0000000000000D+00  0.0000000000000D+00
414  4.1300000000000D+00  0.0000000000000D+00  0.0000000000000D+00
415  4.1400000000000D+00  0.0000000000000D+00  0.0000000000000D+00
416  4.1500000000000D+00  0.0000000000000D+00  0.0000000000000D+00
417  4.1600000000000D+00  0.0000000000000D+00  0.0000000000000D+00
418  4.1700000000000D+00  0.0000000000000D+00  0.0000000000000D+00
419  4.1800000000000D+00  0.0000000000000D+00  0.0000000000000D+00
420  4.1900000000000D+00  0.0000000000000D+00  0.0000000000000D+00
421  4.2000000000000D+00  0.0000000000000D+00  0.0000000000000D+00
422  4.2100000000000D+00  0.0000000000000D+00  0.0000000000000D+00
423  4.2200000000000D+00  0.0000000000000D+00  0.0000000000000D+00
424  4.2300000000000D+00  0.0000000000000D+00  0.0000000000000D+00
425  4.2400000000000D+00  0.0000000000000D+00  0.0000000000000D+00
426  4.2500000000000D+00  0.0000000000000D+00  0.0000000000000D+00
427  4.2600000000000D+00  0.0000000000000D+00  0.0000000000000D+00
428  4.2700000000000D+00  0.0000000000000D+00  0.0000000000000D+00
429  4.2800000000000D+00  0.0000000000000D+00  0.0000000000000D+00
430  4.2900000000000D+00  0.0000000000000D+00  0.0000000000000D+00
431  4.3000000000000D+00  0.0000000000000D+00  0.0000000000000D+00
432  4.3100000000000D+00  0.0000000000000D+00  0.0000000000000D+00
433  4.3200000000000D+00  0.0000000000000D+00  0.0000000000000D+00
434  4.3300000000000D+00  0.0000000000000D+00  0.0000000000000D+00
435  4.3400000000000D+00  0.0000000000000D+00  0.0000000000000D+00
436  4.3500000000000D+00  0.0000000000000D+00  0.0000000000000D+00
437  4.3600000000000D+00  0.0000000000000D+00  0.0000000000000D+00
438  4.3700000000000D+00  0.0000000000000D+00  0.0000000000000D+00
439  4.3800000000000D+00  0.0000000000000D+00  0.0000000000000D+00
440  4.3900000000000D+00  0.0000000000000D+00  0.0000000000000D+00
441  4.4000000000000D+00  0.0000000000000D+00  0.0000000000000D+00
442  4.4100000000000D+00  0.0000000000000D+00  0.0000000000000D+00
443  4.4200000000000D+00  0.0000000000000D+00  0.0000000000000D+00
444  4.4300000000000D+00  0.0000000000000D+00  0.0000000000000D+00