Rn    ONCVPSP  r_core=  1.72  2.10  1.51
86.0000     18.0000      140825    zatom,zion,pspd
8    11     2     4   601     0    pspcod,pspxc,lmax,lloc,mmax,r2well
6.00000000  0.50000000  0.00000000    rchrg fchrg qchrg
2     2     2     0     0    nproj
0                 extension_switch
0                         1.3389500158906D+01  2.0445330519995D+00
1  0.0000000000000D+00  0.0000000000000D+00 -0.0000000000000D+00
2  1.0000000000000D-02  5.5827962741487D-02 -5.9299887260052D-02
3  2.0000000000000D-02  1.1143936274426D-01 -1.1828927296699D-01
4  3.0000000000000D-02  1.6661884094917D-01 -1.7665928924040D-01
5  4.0000000000000D-02  2.2115343954642D-01 -2.3410432767632D-01
6  5.0000000000000D-02  2.7483378734642D-01 -2.9032364943675D-01
7  6.0000000000000D-02  3.2745526690537D-01 -3.4502297182890D-01
8  7.0000000000000D-02  3.7881915741840D-01 -3.9791602364538D-01
9  8.0000000000000D-02  4.2873374748625D-01 -4.4872606164612D-01
10  9.0000000000000D-02  4.7701541194397D-01 -4.9718734065292D-01
11  1.0000000000000D-01  5.2348964711451D-01 -5.4304652994023D-01
12  1.1000000000000D-01  5.6799205893445D-01 -5.8606406869042D-01
13  1.2000000000000D-01  6.1036929863055D-01 -6.2601545356544D-01
14  1.3000000000000D-01  6.5047994072175D-01 -6.6269245153947D-01
15  1.4000000000000D-01  6.8819529865893D-01 -6.9590423183684D-01
16  1.5000000000000D-01  7.2340017290185D-01 -7.2547841006564D-01
17  1.6000000000000D-01  7.5599352777601D-01 -7.5126199972390D-01
18  1.7000000000000D-01  7.8588909184225D-01 -7.7312226396540D-01
19  1.8000000000000D-01  8.1301587948706D-01 -7.9094746460582D-01
20  1.9000000000000D-01  8.3731862861335D-01 -8.0464750133558D-01
21  2.0000000000000D-01  8.5875815260938D-01 -8.1415443867218D-01
22  2.1000000000000D-01  8.7731160273728D-01 -8.1942291522903D-01
23  2.2000000000000D-01  8.9297263961592D-01 -8.2043043342571D-01
24  2.3000000000000D-01  9.0575151138310D-01 -8.1717752614962D-01
25  2.4000000000000D-01  9.1567503684802D-01 -8.0968779781477D-01
26  2.5000000000000D-01  9.2278649265638D-01 -7.9800783799056D-01
27  2.6000000000000D-01  9.2714540526530D-01 -7.8220700919488D-01
28  2.7000000000000D-01  9.2882724504994D-01 -7.6237710342963D-01
29  2.8000000000000D-01  9.2792302588862D-01 -7.3863187295181D-01
30  2.9000000000000D-01  9.2453880945986D-01 -7.1110643316610D-01
31  3.0000000000000D-01  9.1879511625871D-01 -6.7995654000687D-01
32  3.1000000000000D-01  9.1082624531532D-01 -6.4535774406058D-01
33  3.2000000000000D-01  9.0077950528355D-01 -6.0750442451954D-01
34  3.3000000000000D-01  8.8881436596672D-01 -5.6660871403304D-01
35  3.4000000000000D-01  8.7510151297531D-01 -5.2289929334508D-01
36  3.5000000000000D-01  8.5982184899751D-01 -4.7662010869662D-01
37  3.6000000000000D-01  8.4316539276425D-01 -4.2802895215988D-01
38  3.7000000000000D-01  8.2533015639461D-01 -3.7739600522834D-01
39  3.8000000000000D-01  8.0652089580072D-01 -3.2500221347580D-01
40  3.9000000000000D-01  7.8694787157870D-01 -2.7113766560584D-01
41  4.0000000000000D-01  7.6682552977613D-01 -2.1609986279681D-01
42  4.1000000000000D-01  7.4637114613139D-01 -1.6019193335786D-01
43  4.2000000000000D-01  7.2580343905634D-01 -1.0372079968428D-01
44  4.3000000000000D-01  7.0534115833355D-01 -4.6995306625468D-02
45  4.4000000000000D-01  6.8520165758514D-01  9.6756782072533D-03
46  4.5000000000000D-01  6.6559945890253D-01  6.5985181199746D-02
47  4.6000000000000D-01  6.4674481855141D-01  1.2163004484130D-01
48  4.7000000000000D-01  6.2884230342987D-01  1.7631284240538D-01
49  4.8000000000000D-01  6.1208938895795D-01  2.2974377104048D-01
50  4.9000000000000D-01  5.9667513232718D-01  2.8164245137903D-01
51  5.0000000000000D-01  5.8277873849313D-01  3.3173987635024D-01
52  5.1000000000000D-01  5.7056829965423D-01  3.7978013728274D-01
53  5.2000000000000D-01  5.6019968333001D-01  4.2552195684076D-01
54  5.3000000000000D-01  5.5181521391684D-01  4.6874050499699D-01
55  5.4000000000000D-01  5.4554257464610D-01  5.0922892921675D-01
56  5.5000000000000D-01  5.4149408030828D-01  5.4679938882055D-01
57  5.6000000000000D-01  5.3976520894203D-01  5.8128510099720D-01
58  5.7000000000000D-01  5.4043451438218D-01  6.1254052179065D-01
59  5.8000000000000D-01  5.4356207968631D-01  6.4044351990440D-01
60  5.9000000000000D-01  5.4918977682608D-01  6.6489509362415D-01
61  6.0000000000000D-01  5.5733996234581D-01  6.8582123981394D-01
62  6.1000000000000D-01  5.6801576034079D-01  7.0317264907487D-01
63  6.2000000000000D-01  5.8120049251064D-01  7.1692558675918D-01
64  6.3000000000000D-01  5.9685752223890D-01  7.2708221580169D-01
65  6.4000000000000D-01  6.1493062909637D-01  7.3367018067404D-01
66  6.5000000000000D-01  6.3534376388936D-01  7.3674308221592D-01
67  6.6000000000000D-01  6.5800151983794D-01  7.3637995346683D-01
68  6.7000000000000D-01  6.8278965468850D-01  7.3268466736597D-01
69  6.8000000000000D-01  7.0957558868873D-01  7.2578539282659D-01
70  6.9000000000000D-01  7.3820894575080D-01  7.1583403185474D-01
71  7.0000000000000D-01  7.6852261022330D-01  7.0300488560686D-01
72  7.1000000000000D-01  8.0033359533443D-01  6.8749362972982D-01
73  7.2000000000000D-01  8.3344410827034D-01  6.6951600400047D-01
74  7.3000000000000D-01  8.6764272682932D-01  6.4930638052565D-01
75  7.4000000000000D-01  9.0270574668085D-01  6.2711608803080D-01
76  7.5000000000000D-01  9.3839856266444D-01  6.0321166125142D-01
77  7.6000000000000D-01  9.7447715880045D-01  5.7787297725663D-01
78  7.7000000000000D-01  1.0106896849850D+00  5.5139126385365D-01
79  7.8000000000000D-01  1.0467781077161D+00  5.2406700668507D-01
80  7.9000000000000D-01  1.0824799238448D+00  4.9620776946836D-01
81  8.0000000000000D-01  1.1175299257747D+00  4.6812594261944D-01
82  8.1000000000000D-01  1.1516620060604D+00  4.4013643617100D-01
83  8.2000000000000D-01  1.1846109889655D+00  4.1255433344524D-01
84  8.3000000000000D-01  1.2161144762404D+00  3.8569252237123D-01
85  8.4000000000000D-01  1.2459146851063D+00  3.5985933284169D-01
86  8.5000000000000D-01  1.2737603287498D+00  3.3535611924565D-01
87  8.6000000000000D-01  1.2994083359352D+00  3.1247504059030D-01
88  8.7000000000000D-01  1.3226257135921D+00  2.9149666433552D-01
89  8.8000000000000D-01  1.3431912222208D+00  2.7268780289915D-01
90  8.9000000000000D-01  1.3608970413414D+00  2.5629936532236D-01
91  9.0000000000000D-01  1.3755503487751D+00  2.4256431949497D-01
92  9.1000000000000D-01  1.3869748102869D+00  2.3169577050445D-01
93  9.2000000000000D-01  1.3950119674388D+00  2.2388517136174D-01
94  9.3000000000000D-01  1.3995225119957D+00  2.1930068169251D-01
95  9.4000000000000D-01  1.4003874358823D+00  2.1808568911175D-01
96  9.5000000000000D-01  1.3975090465287D+00  2.2035750687288D-01
97  9.6000000000000D-01  1.3908118385126D+00  2.2620625994874D-01
98  9.7000000000000D-01  1.3802432137460D+00  2.3569396990896D-01
99  9.8000000000000D-01  1.3657735931191D+00  2.4885441525986D-01
100  9.9000000000000D-01  1.3473977747860D+00  2.6569142651862D-01
101  1.0000000000000D+00  1.3251351857650D+00  2.8617859053153D-01
102  1.0100000000000D+00  1.2990290652040D+00  3.1026030933345D-01
103  1.0200000000000D+00  1.2691467512237D+00  3.3785147639580D-01
104  1.0300000000000D+00  1.2355793954915D+00  3.6883788385743D-01
105  1.0400000000000D+00  1.1984410280043D+00  4.0307744699422D-01
106  1.0500000000000D+00  1.1578691085743D+00  4.4039958374201D-01
107  1.0600000000000D+00  1.1140237352661D+00  4.8060630980259D-01
108  1.0700000000000D+00  1.0670854636383D+00  5.2347504518933D-01
109  1.0800000000000D+00  1.0172547592285D+00  5.6875940096235D-01
110  1.0900000000000D+00  9.6475040557530D-01  6.1619122878507D-01
111  1.1000000000000D+00  9.0980962194218D-01  6.6548068822078D-01
112  1.1100000000000D+00  8.5268516437078D-01  7.1631997822389D-01
113  1.1200000000000D+00  7.9364362730833D-01  7.6838554637827D-01
114  1.1300000000000D+00  7.3296420387535D-01  8.2133970158820D-01
115  1.1400000000000D+00  6.7093713954732D-01  8.7483282532340D-01
116  1.1500000000000D+00  6.0786074908249D-01  9.2850729733319D-01
117  1.1600000000000D+00  5.4403991763160D-01  9.8199932926660D-01
118  1.1700000000000D+00  4.7978564133327D-01  1.0349395230559D+00
119  1.1800000000000D+00  4.1540983996155D-01  1.0869600272990D+00
120  1.1900000000000D+00  3.5122440030132D-01  1.1376955213860D+00
121  1.2000000000000D+00  2.8754096312299D-01  1.1867834272659D+00
122  1.2100000000000D+00  2.2466828347654D-01  1.2338674691989D+00
123  1.2200000000000D+00  1.6290487090948D-01  1.2786074569848D+00
124  1.2300000000000D+00  1.0254357985265D-01  1.3206729150763D+00
125  1.2400000000000D+00  4.3871857023176D-02  1.3597427799827D+00
126  1.2500000000000D+00 -1.2844264896102D-02  1.3955266462439D+00
127  1.2600000000000D+00 -6.7348447844459D-02  1.4277489267120D+00
128  1.2700000000000D+00 -1.1939258054921D-01  1.4561469860082D+00
129  1.2800000000000D+00 -1.6875975343214D-01  1.4805013329570D+00
130  1.2900000000000D+00 -2.1524487470097D-01  1.5006098296802D+00
131  1.3000000000000D+00 -2.5865594209634D-01  1.5162894847416D+00
132  1.3100000000000D+00 -2.9883809823648D-01  1.5274076305882D+00
133  1.3200000000000D+00 -3.3564827191224D-01  1.5338486663562D+00
134  1.3300000000000D+00 -3.6896497000893D-01  1.5355268842214D+00
135  1.3400000000000D+00 -3.9870340405171D-01  1.5324055578950D+00
136  1.3500000000000D+00 -4.2478908164070D-01  1.5244629371847D+00
137  1.3600000000000D+00 -4.4718151184114D-01  1.5117225069266D+00
138  1.3700000000000D+00 -4.6586836504491D-01  1.4942449361547D+00
139  1.3800000000000D+00 -4.8084679282003D-01  1.4721048512764D+00
140  1.3900000000000D+00 -4.9216134815490D-01  1.4454376415905D+00
141  1.4000000000000D+00 -4.9986541438182D-01  1.4143912063751D+00
142  1.4100000000000D+00 -5.0404061969781D-01  1.3791500942013D+00
143  1.4200000000000D+00 -5.0479895197367D-01  1.3399367537961D+00
144  1.4300000000000D+00 -5.0225953525369D-01  1.2969845491035D+00
145  1.4400000000000D+00 -4.9658185063314D-01  1.2505753058103D+00
146  1.4500000000000D+00 -4.8793094305950D-01  1.2009990404708D+00
147  1.4600000000000D+00 -4.7649773953421D-01  1.1485768124611D+00
148  1.4700000000000D+00 -4.6248922336366D-01  1.0936477019070D+00
149  1.4800000000000D+00 -4.4612460726729D-01  1.0365670146296D+00
150  1.4900000000000D+00 -4.2764204574642D-01  9.7770741739285D-01
151  1.5000000000000D+00 -4.0728618575815D-01  9.1745247551804D-01
152  1.5100000000000D+00 -3.8531486106927D-01  8.5619348210261D-01
153  1.5200000000000D+00 -3.6199144577167D-01  7.9433047174677D-01
154  1.5300000000000D+00 -3.3758606162391D-01  7.3226686236714D-01
155  1.5400000000000D+00 -3.1237061972406D-01  6.7040765130822D-01
156  1.5500000000000D+00 -2.8662254711469D-01  6.0916361213851D-01
157  1.5600000000000D+00 -2.6061130015825D-01  5.4893149999228D-01
158  1.5700000000000D+00 -2.3461575332406D-01  4.9012080211033D-01
159  1.5800000000000D+00 -2.0889224221899D-01  4.3310548608376D-01
160  1.5900000000000D+00 -1.8371469095131D-01  3.7828471014373D-01
161  1.6000000000000D+00 -1.5931749834081D-01  3.2599768700946D-01
162  1.6100000000000D+00 -1.3596028838717D-01  2.7661997581349D-01
163  1.6200000000000D+00 -1.1385093355097D-01  2.3045013815693D-01
164  1.6300000000000D+00 -9.3223123030680D-02  1.8782368295053D-01
165  1.6400000000000D+00 -7.4254943733995D-02  1.4899432367672D-01
166  1.6500000000000D+00 -5.7146325621229D-02  1.1424671023325D-01
167  1.6600000000000D+00 -4.2039438302716D-02  8.3781186493656D-02
168  1.6700000000000D+00 -2.9095287228155D-02  5.7824534544931D-02
169  1.6800000000000D+00 -1.8414482358699D-02  3.6515877077067D-02
170  1.6900000000000D+00 -1.0115595140358D-02  2.0019405547734D-02
171  1.7000000000000D+00 -4.3396690906392D-03  8.5777494429193D-03
172  1.7100000000000D+00 -1.2308585893565D-03  2.4280956600032D-03
173  1.7200000000000D+00  1.1268562452820D-04 -2.1976470125444D-04
174  1.7300000000000D+00  3.1180586468389D-04 -6.1500425581975D-04
175  1.7400000000000D+00  3.7674723954679D-07 -7.9929674230135D-07
176  1.7500000000000D+00  1.4204439743372D-06 -3.0135754748332D-06
177  1.7600000000000D+00  0.0000000000000D+00  0.0000000000000D+00
178  1.7700000000000D+00  0.0000000000000D+00  0.0000000000000D+00
179  1.7800000000000D+00  0.0000000000000D+00  0.0000000000000D+00
180  1.7900000000000D+00  0.0000000000000D+00  0.0000000000000D+00
181  1.8000000000000D+00  0.0000000000000D+00  0.0000000000000D+00
182  1.8100000000000D+00  0.0000000000000D+00  0.0000000000000D+00
183  1.8200000000000D+00  0.0000000000000D+00  0.0000000000000D+00
184  1.8300000000000D+00  0.0000000000000D+00  0.0000000000000D+00
185  1.8400000000000D+00  0.0000000000000D+00  0.0000000000000D+00
186  1.8500000000000D+00  0.0000000000000D+00  0.0000000000000D+00
187  1.8600000000000D+00  0.0000000000000D+00  0.0000000000000D+00
188  1.8700000000000D+00  0.0000000000000D+00  0.0000000000000D+00
189  1.8800000000000D+00  0.0000000000000D+00  0.0000000000000D+00
190  1.8900000000000D+00  0.0000000000000D+00  0.0000000000000D+00
191  1.9000000000000D+00  0.0000000000000D+00  0.0000000000000D+00
192  1.9100000000000D+00  0.0000000000000D+00  0.0000000000000D+00
193  1.9200000000000D+00  0.0000000000000D+00  0.0000000000000D+00
194  1.9300000000000D+00  0.0000000000000D+00  0.0000000000000D+00
195  1.9400000000000D+00  0.0000000000000D+00  0.0000000000000D+00
196  1.9500000000000D+00  0.0000000000000D+00  0.0000000000000D+00
197  1.9600000000000D+00  0.0000000000000D+00  0.0000000000000D+00
198  1.9700000000000D+00  0.0000000000000D+00  0.0000000000000D+00
199  1.9800000000000D+00  0.0000000000000D+00  0.0000000000000D+00
200  1.9900000000000D+00  0.0000000000000D+00  0.0000000000000D+00
201  2.0000000000000D+00  0.0000000000000D+00  0.0000000000000D+00
202  2.0100000000000D+00  0.0000000000000D+00  0.0000000000000D+00
203  2.0200000000000D+00  0.0000000000000D+00  0.0000000000000D+00
204  2.0300000000000D+00  0.0000000000000D+00  0.0000000000000D+00
205  2.0400000000000D+00  0.0000000000000D+00  0.0000000000000D+00
206  2.0500000000000D+00  0.0000000000000D+00  0.0000000000000D+00
207  2.0600000000000D+00  0.0000000000000D+00  0.0000000000000D+00
208  2.0700000000000D+00  0.0000000000000D+00  0.0000000000000D+00
209  2.0800000000000D+00  0.0000000000000D+00  0.0000000000000D+00
210  2.0900000000000D+00  0.0000000000000D+00  0.0000000000000D+00
211  2.1000000000000D+00  0.0000000000000D+00  0.0000000000000D+00
212  2.1100000000000D+00  0.0000000000000D+00  0.0000000000000D+00
213  2.1200000000000D+00  0.0000000000000D+00  0.0000000000000D+00
214  2.1300000000000D+00  0.0000000000000D+00  0.0000000000000D+00
215  2.1400000000000D+00  0.0000000000000D+00  0.0000000000000D+00
216  2.1500000000000D+00  0.0000000000000D+00  0.0000000000000D+00
217  2.1600000000000D+00  0.0000000000000D+00  0.0000000000000D+00
218  2.1700000000000D+00  0.0000000000000D+00  0.0000000000000D+00
219  2.1800000000000D+00  0.0000000000000D+00  0.0000000000000D+00
220  2.1900000000000D+00  0.0000000000000D+00  0.0000000000000D+00
221  2.2000000000000D+00  0.0000000000000D+00  0.0000000000000D+00
222  2.2100000000000D+00  0.0000000000000D+00  0.0000000000000D+00
223  2.2200000000000D+00  0.0000000000000D+00  0.0000000000000D+00
224  2.2300000000000D+00  0.0000000000000D+00  0.0000000000000D+00
225  2.2400000000000D+00  0.0000000000000D+00  0.0000000000000D+00
226  2.2500000000000D+00  0.0000000000000D+00  0.0000000000000D+00
227  2.2600000000000D+00  0.0000000000000D+00  0.0000000000000D+00
228  2.2700000000000D+00  0.0000000000000D+00  0.0000000000000D+00
229  2.2800000000000D+00  0.0000000000000D+00  0.0000000000000D+00
230  2.2900000000000D+00  0.0000000000000D+00  0.0000000000000D+00
231  2.3000000000000D+00  0.0000000000000D+00  0.0000000000000D+00
232  2.3100000000000D+00  0.0000000000000D+00  0.0000000000000D+00
233  2.3200000000000D+00  0.0000000000000D+00  0.0000000000000D+00
234  2.3300000000000D+00  0.0000000000000D+00  0.0000000000000D+00
235  2.3400000000000D+00  0.0000000000000D+00  0.0000000000000D+00
236  2.3500000000000D+00  0.0000000000000D+00  0.0000000000000D+00
237  2.3600000000000D+00  0.0000000000000D+00  0.0000000000000D+00
238  2.3700000000000D+00  0.0000000000000D+00  0.0000000000000D+00
239  2.3800000000000D+00  0.0000000000000D+00  0.0000000000000D+00
240  2.3900000000000D+00  0.0000000000000D+00  0.0000000000000D+00
241  2.4000000000000D+00  0.0000000000000D+00  0.0000000000000D+00
242  2.4100000000000D+00  0.0000000000000D+00  0.0000000000000D+00
243  2.4200000000000D+00  0.0000000000000D+00  0.0000000000000D+00
244  2.4300000000000D+00  0.0000000000000D+00  0.0000000000000D+00
245  2.4400000000000D+00  0.0000000000000D+00  0.0000000000000D+00
246  2.4500000000000D+00  0.0000000000000D+00  0.0000000000000D+00
247  2.4600000000000D+00  0.0000000000000D+00  0.0000000000000D+00
248  2.4700000000000D+00  0.0000000000000D+00  0.0000000000000D+00
249  2.4800000000000D+00  0.0000000000000D+00  0.0000000000000D+00
250  2.4900000000000D+00  0.0000000000000D+00  0.0000000000000D+00
251  2.5000000000000D+00  0.0000000000000D+00  0.0000000000000D+00
252  2.5100000000000D+00  0.0000000000000D+00  0.0000000000000D+00
253  2.5200000000000D+00  0.0000000000000D+00  0.0000000000000D+00
254  2.5300000000000D+00  0.0000000000000D+00  0.0000000000000D+00
255  2.5400000000000D+00  0.0000000000000D+00  0.0000000000000D+00
256  2.5500000000000D+00  0.0000000000000D+00  0.0000000000000D+00
257  2.5600000000000D+00  0.0000000000000D+00  0.0000000000000D+00
258  2.5700000000000D+00  0.0000000000000D+00  0.0000000000000D+00
259  2.5800000000000D+00  0.0000000000000D+00  0.0000000000000D+00
260  2.5900000000000D+00  0.0000000000000D+00  0.0000000000000D+00
261  2.6000000000000D+00  0.0000000000000D+00  0.0000000000000D+00
262  2.6100000000000D+00  0.0000000000000D+00  0.0000000000000D+00
263  2.6200000000000D+00  0.0000000000000D+00  0.0000000000000D+00
264  2.6300000000000D+00  0.0000000000000D+00  0.0000000000000D+00
265  2.6400000000000D+00  0.0000000000000D+00  0.0000000000000D+00
266  2.6500000000000D+00  0.0000000000000D+00  0.0000000000000D+00
267  2.6600000000000D+00  0.0000000000000D+00  0.0000000000000D+00
268  2.6700000000000D+00  0.0000000000000D+00  0.0000000000000D+00
269  2.6800000000000D+00  0.0000000000000D+00  0.0000000000000D+00
270  2.6900000000000D+00  0.0000000000000D+00  0.0000000000000D+00
271  2.7000000000000D+00  0.0000000000000D+00  0.0000000000000D+00
272  2.7100000000000D+00  0.0000000000000D+00  0.0000000000000D+00
273  2.7200000000000D+00  0.0000000000000D+00  0.0000000000000D+00
274  2.7300000000000D+00  0.0000000000000D+00  0.0000000000000D+00
275  2.7400000000000D+00  0.0000000000000D+00  0.0000000000000D+00
276  2.7500000000000D+00  0.0000000000000D+00  0.0000000000000D+00
277  2.7600000000000D+00  0.0000000000000D+00  0.0000000000000D+00
278  2.7700000000000D+00  0.0000000000000D+00  0.0000000000000D+00
279  2.7800000000000D+00  0.0000000000000D+00  0.0000000000000D+00
280  2.7900000000000D+00  0.0000000000000D+00  0.0000000000000D+00
281  2.8000000000000D+00  0.0000000000000D+00  0.0000000000000D+00
282  2.8100000000000D+00  0.0000000000000D+00  0.0000000000000D+00
283  2.8200000000000D+00  0.0000000000000D+00  0.0000000000000D+00
284  2.8300000000000D+00  0.0000000000000D+00  0.0000000000000D+00
285  2.8400000000000D+00  0.0000000000000D+00  0.0000000000000D+00
286  2.8500000000000D+00  0.0000000000000D+00  0.0000000000000D+00
287  2.8600000000000D+00  0.0000000000000D+00  0.0000000000000D+00
288  2.8700000000000D+00  0.0000000000000D+00  0.0000000000000D+00
289  2.8800000000000D+00  0.0000000000000D+00  0.0000000000000D+00
290  2.8900000000000D+00  0.0000000000000D+00  0.0000000000000D+00
291  2.9000000000000D+00  0.0000000000000D+00  0.0000000000000D+00
292  2.9100000000000D+00  0.0000000000000D+00  0.0000000000000D+00
293  2.9200000000000D+00  0.0000000000000D+00  0.0000000000000D+00
294  2.9300000000000D+00  0.0000000000000D+00  0.0000000000000D+00
295  2.9400000000000D+00  0.0000000000000D+00  0.0000000000000D+00
296  2.9500000000000D+00  0.0000000000000D+00  0.0000000000000D+00
297  2.9600000000000D+00  0.0000000000000D+00  0.0000000000000D+00
298  2.9700000000000D+00  0.0000000000000D+00  0.0000000000000D+00
299  2.9800000000000D+00  0.0000000000000D+00  0.0000000000000D+00
300  2.9900000000000D+00  0.0000000000000D+00  0.0000000000000D+00
301  3.0000000000000D+00  0.0000000000000D+00  0.0000000000000D+00
302  3.0100000000000D+00  0.0000000000000D+00  0.0000000000000D+00
303  3.0200000000000D+00  0.0000000000000D+00  0.0000000000000D+00
304  3.0300000000000D+00  0.0000000000000D+00  0.0000000000000D+00
305  3.0400000000000D+00  0.0000000000000D+00  0.0000000000000D+00
306  3.0500000000000D+00  0.0000000000000D+00  0.0000000000000D+00
307  3.0600000000000D+00  0.0000000000000D+00  0.0000000000000D+00
308  3.0700000000000D+00  0.0000000000000D+00  0.0000000000000D+00
309  3.0800000000000D+00  0.0000000000000D+00  0.0000000000000D+00
310  3.0900000000000D+00  0.0000000000000D+00  0.0000000000000D+00
311  3.1000000000000D+00  0.0000000000000D+00  0.0000000000000D+00
312  3.1100000000000D+00  0.0000000000000D+00  0.0000000000000D+00
313  3.1200000000000D+00  0.0000000000000D+00  0.0000000000000D+00
314  3.1300000000000D+00  0.0000000000000D+00  0.0000000000000D+00
315  3.1400000000000D+00  0.0000000000000D+00  0.0000000000000D+00
316  3.1500000000000D+00  0.0000000000000D+00  0.0000000000000D+00
317  3.1600000000000D+00  0.0000000000000D+00  0.0000000000000D+00
318  3.1700000000000D+00  0.0000000000000D+00  0.0000000000000D+00
319  3.1800000000000D+00  0.0000000000000D+00  0.0000000000000D+00
320  3.1900000000000D+00  0.0000000000000D+00  0.0000000000000D+00
321  3.2000000000000D+00  0.0000000000000D+00  0.0000000000000D+00
322  3.2100000000000D+00  0.0000000000000D+00  0.0000000000000D+00
323  3.2200000000000D+00  0.0000000000000D+00  0.0000000000000D+00
324  3.2300000000000D+00  0.0000000000000D+00  0.0000000000000D+00
325  3.2400000000000D+00  0.0000000000000D+00  0.0000000000000D+00
326  3.2500000000000D+00  0.0000000000000D+00  0.0000000000000D+00
327  3.2600000000000D+00  0.0000000000000D+00  0.0000000000000D+00
328  3.2700000000000D+00  0.0000000000000D+00  0.0000000000000D+00
329  3.2800000000000D+00  0.0000000000000D+00  0.0000000000000D+00
330  3.2900000000000D+00  0.0000000000000D+00  0.0000000000000D+00
331  3.3000000000000D+00  0.0000000000000D+00  0.0000000000000D+00
332  3.3100000000000D+00  0.0000000000000D+00  0.0000000000000D+00
333  3.3200000000000D+00  0.0000000000000D+00  0.0000000000000D+00
334  3.3300000000000D+00  0.0000000000000D+00  0.0000000000000D+00
335  3.3400000000000D+00  0.0000000000000D+00  0.0000000000000D+00
336  3.3500000000000D+00  0.0000000000000D+00  0.0000000000000D+00
337  3.3600000000000D+00  0.0000000000000D+00  0.0000000000000D+00
338  3.3700000000000D+00  0.0000000000000D+00  0.0000000000000D+00
339  3.3800000000000D+00  0.0000000000000D+00  0.0000000000000D+00
340  3.3900000000000D+00  0.0000000000000D+00  0.0000000000000D+00
341  3.4000000000000D+00  0.0000000000000D+00  0.0000000000000D+00
342  3.4100000000000D+00  0.0000000000000D+00  0.0000000000000D+00
343  3.4200000000000D+00  0.0000000000000D+00  0.0000000000000D+00
344  3.4300000000000D+00  0.0000000000000D+00  0.0000000000000D+00
345  3.4400000000000D+00  0.0000000000000D+00  0.0000000000000D+00
346  3.4500000000000D+00  0.0000000000000D+00  0.0000000000000D+00
347  3.4600000000000D+00  0.0000000000000D+00  0.0000000000000D+00
348  3.4700000000000D+00  0.0000000000000D+00  0.0000000000000D+00
349  3.4800000000000D+00  0.0000000000000D+00  0.0000000000000D+00
350  3.4900000000000D+00  0.0000000000000D+00  0.0000000000000D+00
351  3.5000000000000D+00  0.0000000000000D+00  0.0000000000000D+00
352  3.5100000000000D+00  0.0000000000000D+00  0.0000000000000D+00
353  3.5200000000000D+00  0.0000000000000D+00  0.0000000000000D+00
354  3.5300000000000D+00  0.0000000000000D+00  0.0000000000000D+00
355  3.5400000000000D+00  0.0000000000000D+00  0.0000000000000D+00
356  3.5500000000000D+00  0.0000000000000D+00  0.0000000000000D+00
357  3.5600000000000D+00  0.0000000000000D+00  0.0000000000000D+00
358  3.5700000000000D+00  0.0000000000000D+00  0.0000000000000D+00
359  3.5800000000000D+00  0.0000000000000D+00  0.0000000000000D+00
360  3.5900000000000D+00  0.0000000000000D+00  0.0000000000000D+00
361  3.6000000000000D+00  0.0000000000000D+00  0.0000000000000D+00
362  3.6100000000000D+00  0.0000000000000D+00  0.0000000000000D+00
363  3.6200000000000D+00  0.0000000000000D+00  0.0000000000000D+00
364  3.6300000000000D+00  0.0000000000000D+00  0.0000000000000D+00
365  3.6400000000000D+00  0.0000000000000D+00  0.0000000000000D+00
366  3.6500000000000D+00  0.0000000000000D+00  0.0000000000000D+00
367  3.6600000000000D+00  0.0000000000000D+00  0.0000000000000D+00
368  3.6700000000000D+00  0.0000000000000D+00  0.0000000000000D+00
369  3.6800000000000D+00  0.0000000000000D+00  0.0000000000000D+00
370  3.6900000000000D+00  0.0000000000000D+00  0.0000000000000D+00
371  3.7000000000000D+00  0.0000000000000D+00  0.0000000000000D+00
372  3.7100000000000D+00  0.0000000000000D+00  0.0000000000000D+00
373  3.7200000000000D+00  0.0000000000000D+00  0.0000000000000D+00
374  3.7300000000000D+00  0.0000000000000D+00  0.0000000000000D+00
375  3.7400000000000D+00  0.0000000000000D+00  0.0000000000000D+00
376  3.7500000000000D+00  0.0000000000000D+00  0.0000000000000D+00
377  3.7600000000000D+00  0.0000000000000D+00  0.0000000000000D+00
378  3.7700000000000D+00  0.0000000000000D+00  0.0000000000000D+00
379  3.7800000000000D+00  0.0000000000000D+00  0.0000000000000D+00
380  3.7900000000000D+00  0.0000000000000D+00  0.0000000000000D+00
381  3.8000000000000D+00  0.0000000000000D+00  0.0000000000000D+00
382  3.8100000000000D+00  0.0000000000000D+00  0.0000000000000D+00
383  3.8200000000000D+00  0.0000000000000D+00  0.0000000000000D+00
384  3.8300000000000D+00  0.0000000000000D+00  0.0000000000000D+00
385  3.8400000000000D+00  0.0000000000000D+00  0.0000000000000D+00
386  3.8500000000000D+00  0.0000000000000D+00  0.0000000000000D+00
387  3.8600000000000D+00  0.0000000000000D+00  0.0000000000000D+00
388  3.8700000000000D+00  0.0000000000000D+00  0.0000000000000D+00
389  3.8800000000000D+00  0.0000000000000D+00  0.0000000000000D+00
390  3.8900000000000D+00  0.0000000000000D+00  0.0000000000000D+00
391  3.9000000000000D+00  0.0000000000000D+00  0.0000000000000D+00
392  3.9100000000000D+00  0.0000000000000D+00  0.0000000000000D+00
393  3.9200000000000D+00  0.0000000000000D+00  0.0000000000000D+00
394  3.9300000000000D+00  0.0000000000000D+00  0.0000000000000D+00
395  3.9400000000000D+00  0.0000000000000D+00  0.0000000000000D+00
396  3.9500000000000D+00  0.0000000000000D+00  0.0000000000000D+00
397  3.9600000000000D+00  0.0000000000000D+00  0.0000000000000D+00
398  3.9700000000000D+00  0.0000000000000D+00  0.0000000000000D+00
399  3.9800000000000D+00  0.0000000000000D+00  0.0000000000000D+00
400  3.9900000000000D+00  0.0000000000000D+00  0.0000000000000D+00
401  4.0000000000000D+00  0.0000000000000D+00  0.0000000000000D+00
402  4.0100000000000D+00  0.0000000000000D+00  0.0000000000000D+00
403  4.0200000000000D+00  0.0000000000000D+00  0.0000000000000D+00
404  4.0300000000000D+00  0.0000000000000D+00  0.0000000000000D+00
405  4.0400000000000D+00  0.0000000000000D+00  0.0000000000000D+00
406  4.0500000000000D+00  0.0000000000000D+00  0.0000000000000D+00
407  4.0600000000000D+00  0.0000000000000D+00  0.0000000000000D+00
408  4.0700000000000D+00  0.0000000000000D+00  0.0000000000000D+00
409  4.0800000000000D+00  0.0000000000000D+00  0.0000000000000D+00
410  4.0900000000000D+00  0.0000000000000D+00  0.0000000000000D+00
411  4.1000000000000D+00  0.0000000000000D+00  0.0000000000000D+00
412  4.1100000000000D+00  0.0000000000000D+00  0.0000000000000D+00
413  4.1200000000000D+00  0.0000000000000D+00  0.0000000000000D+00
414  4.1300000000000D+00  0.0000000000000D+00  0.0000000000000D+00
415  4.1400000000000D+00  0.0000000000000D+00  0.0000000000000D+00
416  4.1500000000000D+00  0.0000000000000D+00  0.0000000000000D+00
417  4.1600000000000D+00  0.0000000000000D+00  0.0000000000000D+00
418  4.1700000000000D+00  0.0000000000000D+00  0.0000000000000D+00
419  4.1800000000000D+00  0.0000000000000D+00  0.0000000000000D+00
420  4.1900000000000D+00  0.0000000000000D+00  0.0000000000000D+00
421  4.2000000000000D+00  0.0000000000000D+00  0.0000000000000D+00
422  4.2100000000000D+00  0.0000000000000D+00  0.0000000000000D+00
423  4.2200000000000D+00  0.0000000000000D+00  0.0000000000000D+00
424  4.2300000000000D+00  0.0000000000000D+00  0.0000000000000D+00
425  4.2400000000000D+00  0.0000000000000D+00  0.0000000000000D+00
426  4.2500000000000D+00  0.0000000000000D+00  0.0000000000000D+00
427  4.2600000000000D+00  0.0000000000000D+00  0.0000000000000D+00
428  4.2700000000000D+00  0.0000000000000D+00  0.0000000000000D+00
429  4.2800000000000D+00  0.0000000000000D+00  0.0000000000000D+00
430  4.2900000000000D+00  0.0000000000000D+00  0.0000000000000D+00
431  4.3000000000000D+00  0.0000000000000D+00  0.0000000000000D+00
432  4.3100000000000D+00  0.0000000000000D+00  0.0000000000000D+00
433  4.3200000000000D+00  0.0000000000000D+00  0.0000000000000D+00
434  4.3300000000000D+00  0.0000000000000D+00  0.0000000000000D+00
435  4.3400000000000D+00  0.0000000000000D+00  0.0000000000000D+00
436  4.3500000000000D+00  0.0000000000000D+00  0.0000000000000D+00
437  4.3600000000000D+00  0.0000000000000D+00  0.0000000000000D+00
438  4.3700000000000D+00  0.0000000000000D+00  0.0000000000000D+00
439  4.3800000000000D+00  0.0000000000000D+00  0.0000000000000D+00
440  4.3900000000000D+00  0.0000000000000D+00  0.0000000000000D+00
441  4.4000000000000D+00  0.0000000000000D+00  0.0000000000000D+00
442  4.4100000000000D+00  0.0000000000000D+00  0.0000000000000D+00
443  4.4200000000000D+00  0.0000000000000D+00  0.0000000000000D+00
444  4.4300000000000D+00  0.0000000000000D+00  0.0000000000000D+00