Rn    ONCVPSP  r_core=  2.43  2.10  2.87
86.0000      8.0000      150122    zatom,zion,pspd
8      11   2     4   600     0    pspcod,pspxc,lmax,lloc,mmax,r2well
5.99000000  0.60000000  0.00000000    rchrg fchrg qchrg
2     2     2     0     0    nproj
0                 extension_switch
0                         5.7539553993922D+00  6.4419610945365D-01
1  0.0000000000000D+00  0.0000000000000D+00  0.0000000000000D+00
2  1.0000000000000D-02  1.9540851803503D-02  6.4976356592343D-03
3  2.0000000000000D-02  3.9090268394956D-02  1.2955059609081D-02
4  3.0000000000000D-02  5.8656751875297D-02  1.9332222367596D-02
5  4.0000000000000D-02  7.8248679176491D-02  2.5589398389329D-02
6  5.0000000000000D-02  9.7874239989083D-02  3.1687346738955D-02
7  6.0000000000000D-02  1.1754137530261D-01  3.7587470215489D-02
8  7.0000000000000D-02  1.3725771676064D-01  4.3251972416795D-02
9  8.0000000000000D-02  1.5703052702964D-01  4.8644012241050D-02
10  9.0000000000000D-02  1.7686664137906D-01  5.3727855325674D-02
11  1.0000000000000D-01  1.9677241066446D-01  5.8469021939210D-02
12  1.1000000000000D-01  2.1675364590492D-01  6.2834430842402D-02
13  1.2000000000000D-01  2.3681556463840D-01  6.6792538654188D-02
14  1.3000000000000D-01  2.5696273923956D-01  7.0313474256095D-02
15  1.4000000000000D-01  2.7719904736021D-01  7.3369167830913D-02
16  1.5000000000000D-01  2.9752762469117D-01  7.5933474031256D-02
17  1.6000000000000D-01  3.1795082016157D-01  7.7982288988322D-02
18  1.7000000000000D-01  3.3847015380109D-01  7.9493660585232D-02
19  1.8000000000000D-01  3.5908627731587D-01  8.0447891875274D-02
20  1.9000000000000D-01  3.7979893762330D-01  8.0827637016502D-02
21  2.0000000000000D-01  4.0060694338994D-01  8.0617989619096D-02
22  2.1000000000000D-01  4.2150813477776D-01  7.9806562979759D-02
23  2.2000000000000D-01  4.4249935643734D-01  7.8383562113181D-02
24  2.3000000000000D-01  4.6357643388340D-01  7.6341847237352D-02
25  2.4000000000000D-01  4.8473415336590D-01  7.3676988425509D-02
26  2.5000000000000D-01  5.0596624539331D-01  7.0387311017382D-02
27  2.6000000000000D-01  5.2726537164283D-01  6.6473932514811D-02
28  2.7000000000000D-01  5.4862311592583D-01  6.1940789182184D-02
29  2.8000000000000D-01  5.7002997867830D-01  5.6794653781470D-02
30  2.9000000000000D-01  5.9147537532180D-01  5.1045143528055D-02
31  3.0000000000000D-01  6.1294763847345D-01  4.4704718331011D-02
32  3.1000000000000D-01  6.3443402401918D-01  3.7788669287291D-02
33  3.2000000000000D-01  6.5592072106964D-01  3.0315097382927D-02
34  3.3000000000000D-01  6.7739286576637D-01  2.2304882448364D-02
35  3.4000000000000D-01  6.9883455893823D-01  1.3781642526822D-02
36  3.5000000000000D-01  7.2022888759065D-01  4.7716834116945D-03
37  3.6000000000000D-01  7.4155795032313D-01 -4.6960615035353D-03
38  3.7000000000000D-01  7.6280288602314D-01 -1.4590099874115D-02
39  3.8000000000000D-01  7.8394390713847D-01 -2.4876460224154D-02
40  3.9000000000000D-01  8.0496033564628D-01 -3.5518778863947D-02
41  4.0000000000000D-01  8.2583064298920D-01 -4.6478396597816D-02
42  4.1000000000000D-01  8.4653249342812D-01 -5.7714464020398D-02
43  4.2000000000000D-01  8.6704279071467D-01 -6.9184055130947D-02
44  4.3000000000000D-01  8.8733772798156D-01 -8.0842288993988D-02
45  4.4000000000000D-01  9.0739284073292D-01 -9.2642459137323D-02
46  4.5000000000000D-01  9.2718306280924D-01 -1.0453617035987D-01
47  4.6000000000000D-01  9.4668278518607D-01 -1.1647348258276D-01
48  4.7000000000000D-01  9.6586591743607D-01 -1.2840306130422D-01
49  4.8000000000000D-01  9.8470595163541D-01 -1.4027233409810D-01
50  4.9000000000000D-01  1.0031760267726D+00 -1.5202764840355D-01
51  5.0000000000000D-01  1.0212490007003D+00 -1.6361444768518D-01
52  5.1000000000000D-01  1.0388975198163D+00 -1.7497744212089D-01
53  5.2000000000000D-01  1.0560940860454D+00 -1.8606077265645D-01
54  5.3000000000000D-01  1.0728111365608D+00 -1.9680820602323D-01
55  5.4000000000000D-01  1.0890211199021D+00 -2.0716332091857D-01
56  5.5000000000000D-01  1.1046965579586D+00 -2.1706965957264D-01
57  5.6000000000000D-01  1.1198101505908D+00 -2.2647098312252D-01
58  5.7000000000000D-01  1.1343348151283D+00 -2.3531136800108D-01
59  5.8000000000000D-01  1.1482438099371D+00 -2.4353550707565D-01
60  5.9000000000000D-01  1.1615107628269D+00 -2.5108877853149D-01
61  6.0000000000000D-01  1.1741097994665D+00 -2.5791755821935D-01
62  6.1000000000000D-01  1.1860155796931D+00 -2.6396930722778D-01
63  6.2000000000000D-01  1.1972033969891D+00 -2.6919281298998D-01
64  6.3000000000000D-01  1.2076492611300D+00 -2.7353838892979D-01
65  6.4000000000000D-01  1.2173299430267D+00 -2.7695798182763D-01
66  6.5000000000000D-01  1.2262230861656D+00 -2.7940544053530D-01
67  6.6000000000000D-01  1.2343072658081D+00 -2.8083665720959D-01
68  6.7000000000000D-01  1.2415620478700D+00 -2.8120970739873D-01
69  6.8000000000000D-01  1.2479680614033D+00 -2.8048502261176D-01
70  6.9000000000000D-01  1.2535070991668D+00 -2.7862562988118D-01
71  7.0000000000000D-01  1.2581621437986D+00 -2.7559721100303D-01
72  7.1000000000000D-01  1.2619174428950D+00 -2.7136827932130D-01
73  7.2000000000000D-01  1.2647585623434D+00 -2.6591030340674D-01
74  7.3000000000000D-01  1.2666724577007D+00 -2.5919787318149D-01
75  7.4000000000000D-01  1.2676475297122D+00 -2.5120882697496D-01
76  7.5000000000000D-01  1.2676736575871D+00 -2.4192432476225D-01
77  7.6000000000000D-01  1.2667422533785D+00 -2.3132897102040D-01
78  7.7000000000000D-01  1.2648463051418D+00 -2.1941090982877D-01
79  7.8000000000000D-01  1.2619804161698D+00 -2.0616190969065D-01
80  7.9000000000000D-01  1.2581408401636D+00 -1.9157743772996D-01
81  8.0000000000000D-01  1.2533255122084D+00 -1.7565672295104D-01
82  8.1000000000000D-01  1.2475340754401D+00 -1.5840280828365D-01
83  8.2000000000000D-01  1.2407679032956D+00 -1.3982259116858D-01
84  8.3000000000000D-01  1.2330301172573D+00 -1.1992685247196D-01
85  8.4000000000000D-01  1.2243255995915D+00 -9.8730272611516D-02
86  8.5000000000000D-01  1.2146610039309D+00 -7.6251441301847D-02
87  8.6000000000000D-01  1.2040447548898D+00 -5.2512841132081D-02
88  8.7000000000000D-01  1.1924870512507D+00 -2.7540837669326D-02
89  8.8000000000000D-01  1.1799998581014D+00 -1.3656432515930D-03
90  8.9000000000000D-01  1.1665968966485D+00  2.5978725883611D-02
91  9.0000000000000D-01  1.1522936287811D+00  5.4454505676835D-02
92  9.1000000000000D-01  1.1371072368019D+00  8.4020252539990D-02
93  9.2000000000000D-01  1.1210565983481D+00  1.1463092376526D-01
94  9.3000000000000D-01  1.1041622565383D+00  1.4623796989792D-01
95  9.4000000000000D-01  1.0864463854073D+00  1.7878943886037D-01
96  9.5000000000000D-01  1.0679327507155D+00  2.1223009154514D-01
97  9.6000000000000D-01  1.0486466662490D+00  2.4650152851358D-01
98  9.7000000000000D-01  1.0286149457633D+00  2.8154232734562D-01
99  9.8000000000000D-01  1.0078658501225D+00  3.1728818518909D-01
100  9.9000000000000D-01  9.8642903766887D-01  3.5367207189978D-01
101  1.0000000000000D+00  9.6433549542363D-01  3.9062442016853D-01
102  1.0100000000000D+00  9.4161747375861D-01  4.2807329191185D-01
103  1.0200000000000D+00  9.1830842028032D-01  4.6594456410037D-01
104  1.0300000000000D+00  8.9444290865288D-01  5.0416212102909D-01
105  1.0400000000000D+00  8.7005657834625D-01  5.4264800764430D-01
106  1.0500000000000D+00  8.4518604137530D-01  5.8132269665249D-01
107  1.0600000000000D+00  8.1986877616305D-01  6.2010537324810D-01
108  1.0700000000000D+00  7.9414307865832D-01  6.5891404117842D-01
109  1.0800000000000D+00  7.6804796786301D-01  6.9766577950517D-01
110  1.0900000000000D+00  7.4162315390561D-01  7.3627680992524D-01
111  1.1000000000000D+00  7.1490882546611D-01  7.7466309384778D-01
112  1.1100000000000D+00  6.8794560144722D-01  8.1274042802569D-01
113  1.1200000000000D+00  6.6077448194659D-01  8.5042455845197D-01
114  1.1300000000000D+00  6.3343681226767D-01  8.8763126395429D-01
115  1.1400000000000D+00  6.0597404644404D-01  9.2427699693000D-01
116  1.1500000000000D+00  5.7842761591421D-01  9.6027920838303D-01
117  1.1600000000000D+00  5.5083899386340D-01  9.9555614515676D-01
118  1.1700000000000D+00  5.2324971856389D-01  1.0300267777045D+00
119  1.1800000000000D+00  4.9570083518695D-01  1.0636122848709D+00
120  1.1900000000000D+00  4.6823310029194D-01  1.0962354625993D+00
121  1.2000000000000D+00  4.4088702795086D-01  1.1278205890250D+00
122  1.2100000000000D+00  4.1370267570142D-01  1.1582939816667D+00
123  1.2200000000000D+00  3.8671914155383D-01  1.1875852780609D+00
124  1.2300000000000D+00  3.5997508065543D-01  1.2156260552689D+00
125  1.2400000000000D+00  3.3350870959577D-01  1.2423498250253D+00
126  1.2500000000000D+00  3.0735666129985D-01  1.2676949440839D+00
127  1.2600000000000D+00  2.8155497582729D-01  1.2916020288944D+00
128  1.2700000000000D+00  2.5613917427524D-01  1.3140137865355D+00
129  1.2800000000000D+00  2.3114269485285D-01  1.3348789215099D+00
130  1.2900000000000D+00  2.0659830663103D-01  1.3541485284651D+00
131  1.3000000000000D+00  1.8253799942101D-01  1.3717763951285D+00
132  1.3100000000000D+00  1.5899138933020D-01  1.3877228898112D+00
133  1.3200000000000D+00  1.3598743779707D-01  1.4019506821579D+00
134  1.3300000000000D+00  1.1355379438294D-01  1.4144263752217D+00
135  1.3400000000000D+00  9.1715764651534D-02  1.4251229179916D+00
136  1.3500000000000D+00  7.0498085256372D-02  1.4340153202417D+00
137  1.3600000000000D+00  4.9923307101063D-02  1.4410845040493D+00
138  1.3700000000000D+00  3.0012108632133D-02  1.4463164500993D+00
139  1.3800000000000D+00  1.0784665087057D-02  1.4496990457749D+00
140  1.3900000000000D+00 -7.7421983420124D-03  1.4512285854520D+00
141  1.4000000000000D+00 -2.5552233332293D-02  1.4509033406500D+00
142  1.4100000000000D+00 -4.2631190926930D-02  1.4487268343141D+00
143  1.4200000000000D+00 -5.8967277665677D-02  1.4447086871705D+00
144  1.4300000000000D+00 -7.4549041567573D-02  1.4388600310380D+00
145  1.4400000000000D+00 -8.9368641520859D-02  1.4312004826144D+00
146  1.4500000000000D+00 -1.0341864464266D-01  1.4217512130330D+00
147  1.4600000000000D+00 -1.1669405279795D-01  1.4105392592660D+00
148  1.4700000000000D+00 -1.2919179702863D-01  1.3975962497783D+00
149  1.4800000000000D+00 -1.4090975221158D-01  1.3829565615628D+00
150  1.4900000000000D+00 -1.5184895094030D-01  1.3666613841189D+00
151  1.5000000000000D+00 -1.6201051898811D-01  1.3487529636294D+00
152  1.5100000000000D+00 -1.7139891819163D-01  1.3292804252522D+00
153  1.5200000000000D+00 -1.8001903453138D-01  1.3082944691213D+00
154  1.5300000000000D+00 -1.8787817647440D-01  1.2858508295144D+00
155  1.5400000000000D+00 -1.9498493435187D-01  1.2620080857067D+00
156  1.5500000000000D+00 -2.0134939892756D-01  1.2368282197534D+00
157  1.5600000000000D+00 -2.0698356337853D-01  1.2103766308452D+00
158  1.5700000000000D+00 -2.1190023369829D-01  1.1827211485725D+00
159  1.5800000000000D+00 -2.1611445372984D-01  1.1539328364607D+00
160  1.5900000000000D+00 -2.1964165343460D-01  1.1240848867123D+00
161  1.6000000000000D+00 -2.2249953098212D-01  1.0932528465968D+00
162  1.6100000000000D+00 -2.2470606216009D-01  1.0615146285498D+00
163  1.6200000000000D+00 -2.2628116251525D-01  1.0289491926927D+00
164  1.6300000000000D+00 -2.2724518664846D-01  9.9563820393682D-01
165  1.6400000000000D+00 -2.2761991939428D-01  9.6166315413711D-01
166  1.6500000000000D+00 -2.2742778198520D-01  9.2710839219174D-01
167  1.6600000000000D+00 -2.2669215598222D-01  8.9205698709049D-01
168  1.6700000000000D+00 -2.2543718310898D-01  8.5659493922328D-01
169  1.6800000000000D+00 -2.2368753292226D-01  8.2080584003384D-01
170  1.6900000000000D+00 -2.2146873575470D-01  7.8477638246681D-01
171  1.7000000000000D+00 -2.1880640132721D-01  7.4858952444927D-01
172  1.7100000000000D+00 -2.1572714137266D-01  7.1233179056482D-01
173  1.7200000000000D+00 -2.1225711857320D-01  6.7608425447151D-01
174  1.7300000000000D+00 -2.0842375127631D-01  6.3993252552415D-01
175  1.7400000000000D+00 -2.0425333130539D-01  6.0395446364571D-01
176  1.7500000000000D+00 -1.9977384548227D-01  5.6823413445838D-01
177  1.7600000000000D+00 -1.9501126124377D-01  5.3284480553314D-01
178  1.7700000000000D+00 -1.8999393145493D-01  4.9786847598309D-01
179  1.7800000000000D+00 -1.8474716514338D-01  4.6337297808915D-01
180  1.7900000000000D+00 -1.7929909725634D-01  4.2943618287649D-01
181  1.8000000000000D+00 -1.7367444643300D-01  3.9612120932076D-01
182  1.8100000000000D+00 -1.6790045242647D-01  3.6349955772876D-01
183  1.8200000000000D+00 -1.6200128426368D-01  3.3163003437178D-01
184  1.8300000000000D+00 -1.5600268826785D-01  3.0057599194566D-01
185  1.8400000000000D+00 -1.4992829963134D-01  2.7039211825648D-01
186  1.8500000000000D+00 -1.4380178706805D-01  2.4113199059643D-01
187  1.8600000000000D+00 -1.3764631330317D-01  2.1284646727236D-01
188  1.8700000000000D+00 -1.3148290714454D-01  1.8557787615847D-01
189  1.8800000000000D+00 -1.2533432274875D-01  1.5937348273925D-01
190  1.8900000000000D+00 -1.1921855171600D-01  1.3426350857865D-01
191  1.9000000000000D+00 -1.1315768946109D-01  1.1029078516205D-01
192  1.9100000000000D+00 -1.0716725236566D-01  8.7475683216114D-02
193  1.9200000000000D+00 -1.0126655576841D-01  6.5849855260415D-02
194  1.9300000000000D+00 -9.5470504456118D-02  4.5430037818480D-02
195  1.9400000000000D+00 -8.9794506087368D-02  2.6233524340906D-02
196  1.9500000000000D+00 -8.4253143533656D-02  8.2742344807918D-03
197  1.9600000000000D+00 -7.8857482942302D-02 -8.4456688437082D-03
198  1.9700000000000D+00 -7.3621887331456D-02 -2.3914933726118D-02
199  1.9800000000000D+00 -6.8553731883885D-02 -3.8144039184554D-02
200  1.9900000000000D+00 -6.3664645278877D-02 -5.1131866076311D-02
201  2.0000000000000D+00 -5.8961097452025D-02 -6.2893035399608D-02
202  2.0100000000000D+00 -5.4450093160646D-02 -7.3441615729057D-02
203  2.0200000000000D+00 -5.0138220869560D-02 -8.2793614698167D-02
204  2.0300000000000D+00 -4.6027666371659D-02 -9.0978104015862D-02
205  2.0400000000000D+00 -4.2124555465190D-02 -9.8014400634212D-02
206  2.0500000000000D+00 -3.8428080032668D-02 -1.0394101152618D-01
207  2.0600000000000D+00 -3.4940355556378D-02 -1.0878978451200D-01
208  2.0700000000000D+00 -3.1661009677439D-02 -1.1259961784688D-01
209  2.0800000000000D+00 -2.8587124675826D-02 -1.1541664921926D-01
210  2.0900000000000D+00 -2.5718613013124D-02 -1.1728123391937D-01
211  2.1000000000000D+00 -2.3049213167034D-02 -1.1824859467318D-01
212  2.1100000000000D+00 -2.0575308737342D-02 -1.1836972268463D-01
213  2.1200000000000D+00 -1.8291310692806D-02 -1.1769917073263D-01
214  2.1300000000000D+00 -1.6190136256677D-02 -1.1629448876071D-01
215  2.1400000000000D+00 -1.4265874745267D-02 -1.1421475077880D-01
216  2.1500000000000D+00 -1.2510407122242D-02 -1.1151647086819D-01
217  2.1600000000000D+00 -1.0916210201872D-02 -1.0826010060634D-01
218  2.1700000000000D+00 -9.4753354198856D-03 -1.0450476267127D-01
219  2.1800000000000D+00 -8.1793199898916D-03 -1.0030727800755D-01
220  2.1900000000000D+00 -7.0195239018669D-03 -9.5731119913419D-02
221  2.2000000000000D+00 -5.9874888287693D-03 -9.0830236521527D-02
222  2.2100000000000D+00 -5.0743288110560D-03 -8.5663336031908D-02
223  2.2200000000000D+00 -4.2709723794320D-03 -8.0290556373045D-02
224  2.2300000000000D+00 -3.5692927857179D-03 -7.4761734947617D-02
225  2.2400000000000D+00 -2.9599013417985D-03 -6.9136753695211D-02
226  2.2500000000000D+00 -2.4346483279136D-03 -6.3466218309316D-02
227  2.2600000000000D+00 -1.9857997472739D-03 -5.7797416718502D-02
228  2.2700000000000D+00 -1.6037548862996D-03 -5.2189413905074D-02
229  2.2800000000000D+00 -1.2823689257077D-03 -4.6679985647260D-02
230  2.2900000000000D+00 -1.0139890069770D-03 -4.1315773256785D-02
231  2.3000000000000D+00 -7.9046569539810D-04 -3.6146192252086D-02
232  2.3100000000000D+00 -6.0715757921403D-04 -3.1201182544977D-02
233  2.3200000000000D+00 -4.5685815642383D-04 -2.6524489295802D-02
234  2.3300000000000D+00 -3.3400806363850D-04 -2.2151300431985D-02
235  2.3400000000000D+00 -2.3523037425329D-04 -1.8105465981774D-02
236  2.3500000000000D+00 -1.5421341100384D-04 -1.4425717247055D-02
237  2.3600000000000D+00 -8.8485942721822D-05 -1.1131679995911D-02
238  2.3700000000000D+00 -3.6049734010959D-05 -8.2406419688586D-03
239  2.3800000000000D+00  8.1367829849651D-06 -5.7847736137416D-03
240  2.3900000000000D+00  4.3274896551806D-05 -3.7679489959020D-03
241  2.4000000000000D+00  7.0040509259582D-05 -2.2051709340163D-03
242  2.4100000000000D+00  9.3606302388646D-05 -1.2187932521384D-03
243  2.4200000000000D+00  1.0621950667247D-04 -6.0204361126188D-04
244  2.4300000000000D+00  1.0181477298043D-04 -2.5486063874348D-04
245  2.4400000000000D+00  6.7679330171666D-05 -5.5824296740342D-05
246  2.4500000000000D+00  2.7831228389348D-05  7.8094843426215D-06
247  2.4600000000000D+00 -2.6452810462376D-06  7.5295939336090D-06
248  2.4700000000000D+00 -7.0923985450523D-06  2.0187980077020D-05
249  2.4800000000000D+00 -4.1910231208730D-06  1.1929432719984D-05
250  2.4900000000000D+00  0.0000000000000D+00  0.0000000000000D+00
251  2.5000000000000D+00  0.0000000000000D+00  0.0000000000000D+00
252  2.5100000000000D+00  0.0000000000000D+00  0.0000000000000D+00
253  2.5200000000000D+00  0.0000000000000D+00  0.0000000000000D+00
254  2.5300000000000D+00  0.0000000000000D+00  0.0000000000000D+00
255  2.5400000000000D+00  0.0000000000000D+00  0.0000000000000D+00
256  2.5500000000000D+00  0.0000000000000D+00  0.0000000000000D+00
257  2.5600000000000D+00  0.0000000000000D+00  0.0000000000000D+00
258  2.5700000000000D+00  0.0000000000000D+00  0.0000000000000D+00
259  2.5800000000000D+00  0.0000000000000D+00  0.0000000000000D+00
260  2.5900000000000D+00  0.0000000000000D+00  0.0000000000000D+00
261  2.6000000000000D+00  0.0000000000000D+00  0.0000000000000D+00
262  2.6100000000000D+00  0.0000000000000D+00  0.0000000000000D+00
263  2.6200000000000D+00  0.0000000000000D+00  0.0000000000000D+00
264  2.6300000000000D+00  0.0000000000000D+00  0.0000000000000D+00
265  2.6400000000000D+00  0.0000000000000D+00  0.0000000000000D+00
266  2.6500000000000D+00  0.0000000000000D+00  0.0000000000000D+00
267  2.6600000000000D+00  0.0000000000000D+00  0.0000000000000D+00
268  2.6700000000000D+00  0.0000000000000D+00  0.0000000000000D+00
269  2.6800000000000D+00  0.0000000000000D+00  0.0000000000000D+00
270  2.6900000000000D+00  0.0000000000000D+00  0.0000000000000D+00
271  2.7000000000000D+00  0.0000000000000D+00  0.0000000000000D+00
272  2.7100000000000D+00  0.0000000000000D+00  0.0000000000000D+00
273  2.7200000000000D+00  0.0000000000000D+00  0.0000000000000D+00
274  2.7300000000000D+00  0.0000000000000D+00  0.0000000000000D+00
275  2.7400000000000D+00  0.0000000000000D+00  0.0000000000000D+00
276  2.7500000000000D+00  0.0000000000000D+00  0.0000000000000D+00
277  2.7600000000000D+00  0.0000000000000D+00  0.0000000000000D+00
278  2.7700000000000D+00  0.0000000000000D+00  0.0000000000000D+00
279  2.7800000000000D+00  0.0000000000000D+00  0.0000000000000D+00
280  2.7900000000000D+00  0.0000000000000D+00  0.0000000000000D+00
281  2.8000000000000D+00  0.0000000000000D+00  0.0000000000000D+00
282  2.8100000000000D+00  0.0000000000000D+00  0.0000000000000D+00
283  2.8200000000000D+00  0.0000000000000D+00  0.0000000000000D+00
284  2.8300000000000D+00  0.0000000000000D+00  0.0000000000000D+00
285  2.8400000000000D+00  0.0000000000000D+00  0.0000000000000D+00
286  2.8500000000000D+00  0.0000000000000D+00  0.0000000000000D+00
287  2.8600000000000D+00  0.0000000000000D+00  0.0000000000000D+00
288  2.8700000000000D+00  0.0000000000000D+00  0.0000000000000D+00
289  2.8800000000000D+00  0.0000000000000D+00  0.0000000000000D+00
290  2.8900000000000D+00  0.0000000000000D+00  0.0000000000000D+00
291  2.9000000000000D+00  0.0000000000000D+00  0.0000000000000D+00
292  2.9100000000000D+00  0.0000000000000D+00  0.0000000000000D+00
293  2.9200000000000D+00  0.0000000000000D+00  0.0000000000000D+00
294  2.9300000000000D+00  0.0000000000000D+00  0.0000000000000D+00
295  2.9400000000000D+00  0.0000000000000D+00  0.0000000000000D+00
296  2.9500000000000D+00  0.0000000000000D+00  0.0000000000000D+00
297  2.9600000000000D+00  0.0000000000000D+00  0.0000000000000D+00
298  2.9700000000000D+00  0.0000000000000D+00  0.0000000000000D+00
299  2.9800000000000D+00  0.0000000000000D+00  0.0000000000000D+00
300  2.9900000000000D+00  0.0000000000000D+00  0.0000000000000D+00
301  3.0000000000000D+00  0.0000000000000D+00  0.0000000000000D+00
302  3.0100000000000D+00  0.0000000000000D+00  0.0000000000000D+00
303  3.0200000000000D+00  0.0000000000000D+00  0.0000000000000D+00
304  3.0300000000000D+00  0.0000000000000D+00  0.0000000000000D+00
305  3.0400000000000D+00  0.0000000000000D+00  0.0000000000000D+00
306  3.0500000000000D+00  0.0000000000000D+00  0.0000000000000D+00
307  3.0600000000000D+00  0.0000000000000D+00  0.0000000000000D+00
308  3.0700000000000D+00  0.0000000000000D+00  0.0000000000000D+00
309  3.0800000000000D+00  0.0000000000000D+00  0.0000000000000D+00
310  3.0900000000000D+00  0.0000000000000D+00  0.0000000000000D+00
311  3.1000000000000D+00  0.0000000000000D+00  0.0000000000000D+00
312  3.1100000000000D+00  0.0000000000000D+00  0.0000000000000D+00
313  3.1200000000000D+00  0.0000000000000D+00  0.0000000000000D+00
314  3.1300000000000D+00  0.0000000000000D+00  0.0000000000000D+00
315  3.1400000000000D+00  0.0000000000000D+00  0.0000000000000D+00
316  3.1500000000000D+00  0.0000000000000D+00  0.0000000000000D+00
317  3.1600000000000D+00  0.0000000000000D+00  0.0000000000000D+00
318  3.1700000000000D+00  0.0000000000000D+00  0.0000000000000D+00
319  3.1800000000000D+00  0.0000000000000D+00  0.0000000000000D+00
320  3.1900000000000D+00  0.0000000000000D+00  0.0000000000000D+00
321  3.2000000000000D+00  0.0000000000000D+00  0.0000000000000D+00
322  3.2100000000000D+00  0.0000000000000D+00  0.0000000000000D+00
323  3.2200000000000D+00  0.0000000000000D+00  0.0000000000000D+00
324  3.2300000000000D+00  0.0000000000000D+00  0.0000000000000D+00
325  3.2400000000000D+00  0.0000000000000D+00  0.0000000000000D+00
326  3.2500000000000D+00  0.0000000000000D+00  0.0000000000000D+00
327  3.2600000000000D+00  0.0000000000000D+00  0.0000000000000D+00
328  3.2700000000000D+00  0.0000000000000D+00  0.0000000000000D+00
329  3.2800000000000D+00  0.0000000000000D+00  0.0000000000000D+00
330  3.2900000000000D+00  0.0000000000000D+00  0.0000000000000D+00
331  3.3000000000000D+00  0.0000000000000D+00  0.0000000000000D+00
332  3.3100000000000D+00  0.0000000000000D+00  0.0000000000000D+00
333  3.3200000000000D+00  0.0000000000000D+00  0.0000000000000D+00
334  3.3300000000000D+00  0.0000000000000D+00  0.0000000000000D+00
335  3.3400000000000D+00  0.0000000000000D+00  0.0000000000000D+00
336  3.3500000000000D+00  0.0000000000000D+00  0.0000000000000D+00
337  3.3600000000000D+00  0.0000000000000D+00  0.0000000000000D+00
338  3.3700000000000D+00  0.0000000000000D+00  0.0000000000000D+00
339  3.3800000000000D+00  0.0000000000000D+00  0.0000000000000D+00
340  3.3900000000000D+00  0.0000000000000D+00  0.0000000000000D+00
341  3.4000000000000D+00  0.0000000000000D+00  0.0000000000000D+00
342  3.4100000000000D+00  0.0000000000000D+00  0.0000000000000D+00
343  3.4200000000000D+00  0.0000000000000D+00  0.0000000000000D+00
344  3.4300000000000D+00  0.0000000000000D+00  0.0000000000000D+00
345  3.4400000000000D+00  0.0000000000000D+00  0.0000000000000D+00
346  3.4500000000000D+00  0.0000000000000D+00  0.0000000000000D+00
347  3.4600000000000D+00  0.0000000000000D+00  0.0000000000000D+00
348  3.4700000000000D+00  0.0000000000000D+00  0.0000000000000D+00
349  3.4800000000000D+00  0.0000000000000D+00  0.0000000000000D+00
350  3.4900000000000D+00  0.0000000000000D+00  0.0000000000000D+00
351  3.5000000000000D+00  0.0000000000000D+00  0.0000000000000D+00
352  3.5100000000000D+00  0.0000000000000D+00  0.0000000000000D+00
353  3.5200000000000D+00  0.0000000000000D+00  0.0000000000000D+00
354  3.5300000000000D+00  0.0000000000000D+00  0.0000000000000D+00
355  3.5400000000000D+00  0.0000000000000D+00  0.0000000000000D+00
356  3.5500000000000D+00  0.0000000000000D+00  0.0000000000000D+00
357  3.5600000000000D+00  0.0000000000000D+00  0.0000000000000D+00
358  3.5700000000000D+00  0.0000000000000D+00  0.0000000000000D+00
359  3.5800000000000D+00  0.0000000000000D+00  0.0000000000000D+00
360  3.5900000000000D+00  0.0000000000000D+00  0.0000000000000D+00
361  3.6000000000000D+00  0.0000000000000D+00  0.0000000000000D+00
362  3.6100000000000D+00  0.0000000000000D+00  0.0000000000000D+00
363  3.6200000000000D+00  0.0000000000000D+00  0.0000000000000D+00
364  3.6300000000000D+00  0.0000000000000D+00  0.0000000000000D+00
365  3.6400000000000D+00  0.0000000000000D+00  0.0000000000000D+00
366  3.6500000000000D+00  0.0000000000000D+00  0.0000000000000D+00
367  3.6600000000000D+00  0.0000000000000D+00  0.0000000000000D+00
368  3.6700000000000D+00  0.0000000000000D+00  0.0000000000000D+00
369  3.6800000000000D+00  0.0000000000000D+00  0.0000000000000D+00
370  3.6900000000000D+00  0.0000000000000D+00  0.0000000000000D+00
371  3.7000000000000D+00  0.0000000000000D+00  0.0000000000000D+00
372  3.7100000000000D+00  0.0000000000000D+00  0.0000000000000D+00
373  3.7200000000000D+00  0.0000000000000D+00  0.0000000000000D+00
374  3.7300000000000D+00  0.0000000000000D+00  0.0000000000000D+00
375  3.7400000000000D+00  0.0000000000000D+00  0.0000000000000D+00
376  3.7500000000000D+00  0.0000000000000D+00  0.0000000000000D+00
377  3.7600000000000D+00  0.0000000000000D+00  0.0000000000000D+00
378  3.7700000000000D+00  0.0000000000000D+00  0.0000000000000D+00
379  3.7800000000000D+00  0.0000000000000D+00  0.0000000000000D+00
380  3.7900000000000D+00  0.0000000000000D+00  0.0000000000000D+00
381  3.8000000000000D+00  0.0000000000000D+00  0.0000000000000D+00
382  3.8100000000000D+00  0.0000000000000D+00  0.0000000000000D+00
383  3.8200000000000D+00  0.0000000000000D+00  0.0000000000000D+00
384  3.8300000000000D+00  0.0000000000000D+00  0.0000000000000D+00
385  3.8400000000000D+00  0.0000000000000D+00  0.0000000000000D+00
386  3.8500000000000D+00  0.0000000000000D+00  0.0000000000000D+00
387  3.8600000000000D+00  0.0000000000000D+00  0.0000000000000D+00
388  3.8700000000000D+00  0.0000000000000D+00  0.0000000000000D+00
389  3.8800000000000D+00  0.0000000000000D+00  0.0000000000000D+00
390  3.8900000000000D+00  0.0000000000000D+00  0.0000000000000D+00
391  3.9000000000000D+00  0.0000000000000D+00  0.0000000000000D+00
392  3.9100000000000D+00  0.0000000000000D+00  0.0000000000000D+00
393  3.9200000000000D+00  0.0000000000000D+00  0.0000000000000D+00
394  3.9300000000000D+00  0.0000000000000D+00  0.0000000000000D+00
395  3.9400000000000D+00  0.0000000000000D+00  0.0000000000000D+00
396  3.9500000000000D+00  0.0000000000000D+00  0.0000000000000D+00
397  3.9600000000000D+00  0.0000000000000D+00  0.0000000000000D+00
398  3.9700000000000D+00  0.0000000000000D+00  0.0000000000000D+00
399  3.9800000000000D+00  0.0000000000000D+00  0.0000000000000D+00
400  3.9900000000000D+00  0.0000000000000D+00  0.0000000000000D+00
401  4.0000000000000D+00  0.0000000000000D+00  0.0000000000000D+00
402  4.0100000000000D+00  0.0000000000000D+00  0.0000000000000D+00
403  4.0200000000000D+00  0.0000000000000D+00  0.0000000000000D+00
404  4.0300000000000D+00  0.0000000000000D+00  0.0000000000000D+00
405  4.0400000000000D+00  0.0000000000000D+00  0.0000000000000D+00
406  4.0500000000000D+00  0.0000000000000D+00  0.0000000000000D+00
407  4.0600000000000D+00  0.0000000000000D+00  0.0000000000000D+00
408  4.0700000000000D+00  0.0000000000000D+00  0.0000000000000D+00
409  4.0800000000000D+00  0.0000000000000D+00  0.0000000000000D+00
410  4.0900000000000D+00  0.0000000000000D+00  0.0000000000000D+00
411  4.1000000000000D+00  0.0000000000000D+00  0.0000000000000D+00
412  4.1100000000000D+00  0.0000000000000D+00  0.0000000000000D+00
413  4.1200000000000D+00  0.0000000000000D+00  0.0000000000000D+00
414  4.1300000000000D+00  0.0000000000000D+00  0.0000000000000D+00
415  4.1400000000000D+00  0.0000000000000D+00  0.0000000000000D+00
416  4.1500000000000D+00  0.0000000000000D+00  0.0000000000000D+00
417  4.1600000000000D+00  0.0000000000000D+00  0.0000000000000D+00
418  4.1700000000000D+00  0.0000000000000D+00  0.0000000000000D+00
419  4.1800000000000D+00  0.0000000000000D+00  0.0000000000000D+00
420  4.1900000000000D+00  0.0000000000000D+00  0.0000000000000D+00
421  4.2000000000000D+00  0.0000000000000D+00  0.0000000000000D+00
422  4.2100000000000D+00  0.0000000000000D+00  0.0000000000000D+00
423  4.2200000000000D+00  0.0000000000000D+00  0.0000000000000D+00
424  4.2300000000000D+00  0.0000000000000D+00  0.0000000000000D+00
425  4.2400000000000D+00  0.0000000000000D+00  0.0000000000000D+00
426  4.2500000000000D+00  0.0000000000000D+00  0.0000000000000D+00
427  4.2600000000000D+00  0.0000000000000D+00  0.0000000000000D+00
428  4.2700000000000D+00  0.0000000000000D+00  0.0000000000000D+00
429  4.2800000000000D+00  0.0000000000000D+00  0.0000000000000D+00
430  4.2900000000000D+00  0.0000000000000D+00  0.0000000000000D+00
431  4.3000000000000D+00  0.0000000000000D+00  0.0000000000000D+00
432  4.3100000000000D+00  0.0000000000000D+00  0.0000000000000D+00
433  4.3200000000000D+00  0.0000000000000D+00  0.0000000000000D+00
434  4.3300000000000D+00  0.0000000000000D+00  0.0000000000000D+00
435  4.3400000000000D+00  0.0000000000000D+00  0.0000000000000D+00
436  4.3500000000000D+00  0.0000000000000D+00  0.0000000000000D+00
437  4.3600000000000D+00  0.0000000000000D+00  0.0000000000000D+00
438  4.3700000000000D+00  0.0000000000000D+00  0.0000000000000D+00
439  4.3800000000000D+00  0.0000000000000D+00  0.0000000000000D+00
440  4.3900000000000D+00  0.0000000000000D+00  0.0000000000000D+00
441  4.4000000000000D+00  0.0000000000000D+00  0.0000000000000D+00
442  4.4100000000000D+00  0.0000000000000D+00  0.0000000000000D+00
443  4.4200000000000D+00  0.0000000000000D+00  0.0000000000000D+00
444  4.4300000000000D+00  0.0000000000000D+00  0.0000000000000D+00