Pd    ONCVPSP  r_core=  1.41  1.46  1.55
46.0000     18.0000      161004    zatom,zion,pspd
8 -116133   2     4   600     0    pspcod,pspxc,lmax,lloc,mmax,r2well
5.99000000  7.00000000  0.00000000    rchrg fchrg qchrg
2     2     2     0     0    nproj
1                 extension_switch
0                         7.9694195445117D+00 -2.0940432879509D+00
1  0.0000000000000D+00 -1.0384537674213D-10 -8.7995782882544D-10
2  1.0000000000000D-02  6.4632253813614D-02 -5.8292587984881D-02
3  2.0000000000000D-02  1.2913604162088D-01 -1.1643261836915D-01
4  3.0000000000000D-02  1.9338334746805D-01 -1.7426683339399D-01
5  4.0000000000000D-02  2.5724705255591D-01 -2.3164059279076D-01
6  5.0000000000000D-02  3.2060137646690D-01 -2.8839722681674D-01
7  6.0000000000000D-02  3.8332230964624D-01 -3.4437744180968D-01
8  7.0000000000000D-02  4.4528803434454D-01 -3.9941879472452D-01
9  8.0000000000000D-02  5.0637933133330D-01 -4.5335525223545D-01
10  9.0000000000000D-02  5.6647996983263D-01 -5.0601684890428D-01
11  1.0000000000000D-01  6.2547707824144D-01 -5.5722945764137D-01
12  1.1000000000000D-01  6.8326149343296D-01 -6.0681468423401D-01
13  1.2000000000000D-01  7.3972808657076D-01 -6.5458989610183D-01
14  1.3000000000000D-01  7.9477606361113D-01 -7.0036839367845D-01
15  1.4000000000000D-01  8.4830923888442D-01 -7.4395973093124D-01
16  1.5000000000000D-01  9.0023628038871D-01 -7.8517018953613D-01
17  1.6000000000000D-01  9.5047092568183D-01 -8.2380340914472D-01
18  1.7000000000000D-01  9.9893216751971D-01 -8.5966117403765D-01
19  1.8000000000000D-01  1.0455444086577D+00 -8.9254435427526D-01
20  1.9000000000000D-01  1.0902375855050D+00 -9.2225399725760D-01
21  2.0000000000000D-01  1.1329472605969D+00 -9.4859256341571D-01
22  2.1000000000000D-01  1.1736146841235D+00 -9.7136529759860D-01
23  2.2000000000000D-01  1.2121868250235D+00 -9.9038172562015D-01
24  2.3000000000000D-01  1.2486163724165D+00 -1.0054572634124D+00
25  2.4000000000000D-01  1.2828617084013D+00 -1.0164149243176D+00
26  2.5000000000000D-01  1.3148868534916D+00 -1.0230871082669D+00
27  2.6000000000000D-01  1.3446613861903D+00 -1.0253174549578D+00
28  2.7000000000000D-01  1.3721603384177D+00 -1.0229627416765D+00
29  2.8000000000000D-01  1.3973640687028D+00 -1.0158948051368D+00
30  2.9000000000000D-01  1.4202581152222D+00 -1.0040024656359D+00
31  3.0000000000000D-01  1.4408330309244D+00 -9.8719343098287D-01
32  3.1000000000000D-01  1.4590842031032D+00 -9.6539615704119D-01
33  3.2000000000000D-01  1.4750116598903D+00 -9.3856164136350D-01
34  3.3000000000000D-01  1.4886198662105D+00 -9.0666512628770D-01
35  3.4000000000000D-01  1.4999175117942D+00 -8.6970768801438D-01
36  3.5000000000000D-01  1.5089172938618D+00 -8.2771768860538D-01
37  3.6000000000000D-01  1.5156356970872D+00 -7.8075206852603D-01
38  3.7000000000000D-01  1.5200927734106D+00 -7.2889745830406D-01
39  3.8000000000000D-01  1.5223119242080D+00 -6.7227108908626D-01
40  3.9000000000000D-01  1.5223196872294D+00 -6.1102148333678D-01
41  4.0000000000000D-01  1.5201455306003D+00 -5.4532890862503D-01
42  4.1000000000000D-01  1.5158216560337D+00 -4.7540557938523D-01
43  4.2000000000000D-01  1.5093828132298D+00 -4.0149559367897D-01
44  4.3000000000000D-01  1.5008661272472D+00 -3.2387459433640D-01
45  4.4000000000000D-01  1.4903109404121D+00 -2.4284914637261D-01
46  4.5000000000000D-01  1.4777586701024D+00 -1.5875582524927D-01
47  4.6000000000000D-01  1.4632526834882D+00 -7.1960013355021D-02
48  4.7000000000000D-01  1.4468381900492D+00  1.7145595019232D-02
49  4.8000000000000D-01  1.4285621524113D+00  1.0814277695407D-01
50  4.9000000000000D-01  1.4084732157614D+00  2.0058984614729D-01
51  5.0000000000000D-01  1.3866216558113D+00  2.9402399081770D-01
52  5.1000000000000D-01  1.3630593449863D+00  3.8796387193452D-01
53  5.2000000000000D-01  1.3378397362289D+00  4.8191246647070D-01
54  5.3000000000000D-01  1.3110178635197D+00  5.7536013749140D-01
55  5.4000000000000D-01  1.2826503579395D+00  6.6778791011350D-01
56  5.5000000000000D-01  1.2527954778327D+00  7.5867092974096D-01
57  5.6000000000000D-01  1.2215131513782D+00  8.4748207652895D-01
58  5.7000000000000D-01  1.1888650296414D+00  9.3369570777288D-01
59  5.8000000000000D-01  1.1549145479657D+00  1.0167914979057D+00
60  5.9000000000000D-01  1.1197269933729D+00  1.0962583440193D+00
61  6.0000000000000D-01  1.0833695754790D+00  1.1715983033501D+00
62  6.1000000000000D-01  1.0459114982930D+00  1.2423305279907D+00
63  6.2000000000000D-01  1.0074240301661D+00  1.3079951612330D+00
64  6.3000000000000D-01  9.6798056908235D-01  1.3681571594327D+00
65  6.4000000000000D-01  9.2765670044571D-01  1.4224100031155D+00
66  6.5000000000000D-01  8.8653024451446D-01  1.4703792612358D+00
67  6.6000000000000D-01  8.4468129066714D-01  1.5117259730577D+00
68  6.7000000000000D-01  8.0219221575269D-01  1.5461498130478D+00
69  6.8000000000000D-01  7.5914768388328D-01  1.5733920054561D+00
70  6.9000000000000D-01  7.1563462516976D-01  1.5932379569111D+00
71  7.0000000000000D-01  6.7174219107657D-01  1.6055195773505D+00
72  7.1000000000000D-01  6.2756168428341D-01  1.6101172619425D+00
73  7.2000000000000D-01  5.8318646118369D-01  1.6069615092989D+00
74  7.3000000000000D-01  5.3871180542426D-01  1.5960341542447D+00
75  7.4000000000000D-01  4.9423477119174D-01  1.5773691966245D+00
76  7.5000000000000D-01  4.4985399527746D-01  1.5510532111023D+00
77  7.6000000000000D-01  4.0566947730270D-01  1.5172253266032D+00
78  7.7000000000000D-01  3.6178232785283D-01  1.4760767679139D+00
79  7.8000000000000D-01  3.1829448465197D-01  1.4278499559762D+00
80  7.9000000000000D-01  2.7530839730425D-01  1.3728371675456D+00
81  8.0000000000000D-01  2.3292668152806D-01  1.3113787590757D+00
82  8.1000000000000D-01  1.9125174421354D-01  1.2438609639132D+00
83  8.2000000000000D-01  1.5038538103517D-01  1.1707132761044D+00
84  8.3000000000000D-01  1.1042834874703D-01  1.0924054382562D+00
85  8.4000000000000D-01  7.1479914672572D-02  1.0094440549518D+00
86  8.5000000000000D-01  3.3637386270223D-02  9.2236885712045D-01
87  8.6000000000000D-01 -3.0043759949220D-03  8.3174864648164D-01
88  8.7000000000000D-01 -3.8353458917930D-02  7.3817695267331D-01
89  8.8000000000000D-01 -7.2321406107455D-02  6.4226743889680D-01
90  8.9000000000000D-01 -1.0482373270984D-01  5.4464909482983D-01
91  9.0000000000000D-01 -1.3578044095985D-01  4.4596125813884D-01
92  9.1000000000000D-01 -1.6511653202561D-01  3.4684850813063D-01
93  9.2000000000000D-01 -1.9276250946942D-01  2.4795547689274D-01
94  9.3000000000000D-01 -2.1865486954513D-01  1.4992162465818D-01
95  9.4000000000000D-01 -2.4273657349971D-01  5.3376027071758D-02
96  9.5000000000000D-01 -2.6495749704171D-01 -4.1067777483316D-02
97  9.6000000000000D-01 -2.8527485218744D-01 -1.3281683234275D-01
98  9.7000000000000D-01 -3.0365357678849D-01 -2.2130365109329D-01
99  9.8000000000000D-01 -3.2006668719770D-01 -3.0599090345268D-01
100  9.9000000000000D-01 -3.3449558972631D-01 -3.8637585318616D-01
101  1.0000000000000D+00 -3.4693034679594D-01 -4.6199450465822D-01
102  1.0100000000000D+00 -3.5736989398625D-01 -5.3242541698013D-01
103  1.0200000000000D+00 -3.6582220452059D-01 -5.9729314749229D-01
104  1.0300000000000D+00 -3.7230439813759D-01 -6.5627128969115D-01
105  1.0400000000000D+00 -3.7684279168425D-01 -7.0908507396861D-01
106  1.0500000000000D+00 -3.7947288928374D-01 -7.5551350393986D-01
107  1.0600000000000D+00 -3.8023931039598D-01 -7.9539100513211D-01
108  1.0700000000000D+00 -3.7919565462539D-01 -8.2860856745224D-01
109  1.0800000000000D+00 -3.7640430270915D-01 -8.5511436789974D-01
110  1.0900000000000D+00 -3.7193615362805D-01 -8.7491386445259D-01
111  1.1000000000000D+00 -3.6587029843396D-01 -8.8806935780018D-01
112  1.1100000000000D+00 -3.5829363194653D-01 -8.9469902255353D-01
113  1.1200000000000D+00 -3.4930040408165D-01 -8.9497541499296D-01
114  1.1300000000000D+00 -3.3899171315494D-01 -8.8912346961796D-01
115  1.1400000000000D+00 -3.2747494405150D-01 -8.7741800167982D-01
116  1.1500000000000D+00 -3.1486315479876D-01 -8.6018073872133D-01
117  1.1600000000000D+00 -3.0127441556891D-01 -8.3777690860674D-01
118  1.1700000000000D+00 -2.8683110463915D-01 -8.1061141611766D-01
119  1.1800000000000D+00 -2.7165916632521D-01 -7.7912464466357D-01
120  1.1900000000000D+00 -2.5588733640034D-01 -7.4378792428397D-01
121  1.2000000000000D+00 -2.3964634087995D-01 -7.0509871061412D-01
122  1.2100000000000D+00 -2.2306807431311D-01 -6.6357552193247D-01
123  1.2200000000000D+00 -2.0628476418988D-01 -6.1975268593418D-01
124  1.2300000000000D+00 -1.8942812820700D-01 -5.7417494930829D-01
125  1.2400000000000D+00 -1.7262853130447D-01 -5.2739200494195D-01
126  1.2500000000000D+00 -1.5601414958804D-01 -4.7995299370064D-01
127  1.2600000000000D+00 -1.3971014825784D-01 -4.3240103822630D-01
128  1.2700000000000D+00 -1.2383788062784D-01 -3.8526786610431D-01
129  1.2800000000000D+00 -1.0851411537694D-01 -3.3906858056191D-01
130  1.2900000000000D+00 -9.3850298861883D-02 -2.9429663476302D-01
131  1.3000000000000D+00 -7.9951859205075D-02 -2.5141906485428D-01
132  1.3100000000000D+00 -6.6917558766979D-02 -2.1087203638462D-01
133  1.3200000000000D+00 -5.4838900869359D-02 -1.7305675295210D-01
134  1.3300000000000D+00 -4.3799596692388D-02 -1.3833577634949D-01
135  1.3400000000000D+00 -3.3875097758203D-02 -1.0702980361117D-01
136  1.3500000000000D+00 -2.5132198338002D-02 -7.9414937661571D-02
137  1.3600000000000D+00 -1.7628712703273D-02 -5.5720493009413D-02
138  1.3700000000000D+00 -1.1417587927300D-02 -3.6141451341899D-02
139  1.3800000000000D+00 -6.5129927500987D-03 -2.0726802847507D-02
140  1.3900000000000D+00 -2.9723863826123D-03 -9.6498653210343D-03
141  1.4000000000000D+00 -9.1742584825372D-04 -3.2931698545383D-03
142  1.4100000000000D+00 -9.0769597751734D-05 -7.0915144741116D-04
143  1.4200000000000D+00  5.3464647037145D-05 -2.1027733407890D-05
144  1.4300000000000D+00 -1.2010677434457D-05 -1.0094672032888D-05
145  1.4400000000000D+00 -1.5587122480879D-05 -1.9709907662124D-05
146  1.4500000000000D+00  3.3006450592927D-06  1.1780718093252D-06
147  1.4600000000000D+00  1.2346335585950D-06  7.6401812600756D-07
148  1.4700000000000D+00  2.0293692101194D-07  1.8241610386671D-06
149  1.4800000000000D+00  0.0000000000000D+00  0.0000000000000D+00
150  1.4900000000000D+00  0.0000000000000D+00  0.0000000000000D+00
151  1.5000000000000D+00  0.0000000000000D+00  0.0000000000000D+00
152  1.5100000000000D+00  0.0000000000000D+00  0.0000000000000D+00
153  1.5200000000000D+00  0.0000000000000D+00  0.0000000000000D+00
154  1.5300000000000D+00  0.0000000000000D+00  0.0000000000000D+00
155  1.5400000000000D+00  0.0000000000000D+00  0.0000000000000D+00
156  1.5500000000000D+00  0.0000000000000D+00  0.0000000000000D+00
157  1.5600000000000D+00  0.0000000000000D+00  0.0000000000000D+00
158  1.5700000000000D+00  0.0000000000000D+00  0.0000000000000D+00
159  1.5800000000000D+00  0.0000000000000D+00  0.0000000000000D+00
160  1.5900000000000D+00  0.0000000000000D+00  0.0000000000000D+00
161  1.6000000000000D+00  0.0000000000000D+00  0.0000000000000D+00
162  1.6100000000000D+00  0.0000000000000D+00  0.0000000000000D+00
163  1.6200000000000D+00  0.0000000000000D+00  0.0000000000000D+00
164  1.6300000000000D+00  0.0000000000000D+00  0.0000000000000D+00
165  1.6400000000000D+00  0.0000000000000D+00  0.0000000000000D+00
166  1.6500000000000D+00  0.0000000000000D+00  0.0000000000000D+00
167  1.6600000000000D+00  0.0000000000000D+00  0.0000000000000D+00
168  1.6700000000000D+00  0.0000000000000D+00  0.0000000000000D+00
169  1.6800000000000D+00  0.0000000000000D+00  0.0000000000000D+00
170  1.6900000000000D+00  0.0000000000000D+00  0.0000000000000D+00
171  1.7000000000000D+00  0.0000000000000D+00  0.0000000000000D+00
172  1.7100000000000D+00  0.0000000000000D+00  0.0000000000000D+00
173  1.7200000000000D+00  0.0000000000000D+00  0.0000000000000D+00
174  1.7300000000000D+00  0.0000000000000D+00  0.0000000000000D+00
175  1.7400000000000D+00  0.0000000000000D+00  0.0000000000000D+00
176  1.7500000000000D+00  0.0000000000000D+00  0.0000000000000D+00
177  1.7600000000000D+00  0.0000000000000D+00  0.0000000000000D+00
178  1.7700000000000D+00  0.0000000000000D+00  0.0000000000000D+00
179  1.7800000000000D+00  0.0000000000000D+00  0.0000000000000D+00
180  1.7900000000000D+00  0.0000000000000D+00  0.0000000000000D+00
181  1.8000000000000D+00  0.0000000000000D+00  0.0000000000000D+00
182  1.8100000000000D+00  0.0000000000000D+00  0.0000000000000D+00
183  1.8200000000000D+00  0.0000000000000D+00  0.0000000000000D+00
184  1.8300000000000D+00  0.0000000000000D+00  0.0000000000000D+00
185  1.8400000000000D+00  0.0000000000000D+00  0.0000000000000D+00
186  1.8500000000000D+00  0.0000000000000D+00  0.0000000000000D+00
187  1.8600000000000D+00  0.0000000000000D+00  0.0000000000000D+00
188  1.8700000000000D+00  0.0000000000000D+00  0.0000000000000D+00
189  1.8800000000000D+00  0.0000000000000D+00  0.0000000000000D+00
190  1.8900000000000D+00  0.0000000000000D+00  0.0000000000000D+00
191  1.9000000000000D+00  0.0000000000000D+00  0.0000000000000D+00
192  1.9100000000000D+00  0.0000000000000D+00  0.0000000000000D+00
193  1.9200000000000D+00  0.0000000000000D+00  0.0000000000000D+00
194  1.9300000000000D+00  0.0000000000000D+00  0.0000000000000D+00
195  1.9400000000000D+00  0.0000000000000D+00  0.0000000000000D+00
196  1.9500000000000D+00  0.0000000000000D+00  0.0000000000000D+00
197  1.9600000000000D+00  0.0000000000000D+00  0.0000000000000D+00
198  1.9700000000000D+00  0.0000000000000D+00  0.0000000000000D+00
199  1.9800000000000D+00  0.0000000000000D+00  0.0000000000000D+00
200  1.9900000000000D+00  0.0000000000000D+00  0.0000000000000D+00
201  2.0000000000000D+00  0.0000000000000D+00  0.0000000000000D+00
202  2.0100000000000D+00  0.0000000000000D+00  0.0000000000000D+00
203  2.0200000000000D+00  0.0000000000000D+00  0.0000000000000D+00
204  2.0300000000000D+00  0.0000000000000D+00  0.0000000000000D+00
205  2.0400000000000D+00  0.0000000000000D+00  0.0000000000000D+00
206  2.0500000000000D+00  0.0000000000000D+00  0.0000000000000D+00
207  2.0600000000000D+00  0.0000000000000D+00  0.0000000000000D+00
208  2.0700000000000D+00  0.0000000000000D+00  0.0000000000000D+00
209  2.0800000000000D+00  0.0000000000000D+00  0.0000000000000D+00
210  2.0900000000000D+00  0.0000000000000D+00  0.0000000000000D+00
211  2.1000000000000D+00  0.0000000000000D+00  0.0000000000000D+00
212  2.1100000000000D+00  0.0000000000000D+00  0.0000000000000D+00
213  2.1200000000000D+00  0.0000000000000D+00  0.0000000000000D+00
214  2.1300000000000D+00  0.0000000000000D+00  0.0000000000000D+00
215  2.1400000000000D+00  0.0000000000000D+00  0.0000000000000D+00
216  2.1500000000000D+00  0.0000000000000D+00  0.0000000000000D+00
217  2.1600000000000D+00  0.0000000000000D+00  0.0000000000000D+00
218  2.1700000000000D+00  0.0000000000000D+00  0.0000000000000D+00
219  2.1800000000000D+00  0.0000000000000D+00  0.0000000000000D+00
220  2.1900000000000D+00  0.0000000000000D+00  0.0000000000000D+00
221  2.2000000000000D+00  0.0000000000000D+00  0.0000000000000D+00
222  2.2100000000000D+00  0.0000000000000D+00  0.0000000000000D+00
223  2.2200000000000D+00  0.0000000000000D+00  0.0000000000000D+00
224  2.2300000000000D+00  0.0000000000000D+00  0.0000000000000D+00
225  2.2400000000000D+00  0.0000000000000D+00  0.0000000000000D+00
226  2.2500000000000D+00  0.0000000000000D+00  0.0000000000000D+00
227  2.2600000000000D+00  0.0000000000000D+00  0.0000000000000D+00
228  2.2700000000000D+00  0.0000000000000D+00  0.0000000000000D+00
229  2.2800000000000D+00  0.0000000000000D+00  0.0000000000000D+00
230  2.2900000000000D+00  0.0000000000000D+00  0.0000000000000D+00
231  2.3000000000000D+00  0.0000000000000D+00  0.0000000000000D+00
232  2.3100000000000D+00  0.0000000000000D+00  0.0000000000000D+00
233  2.3200000000000D+00  0.0000000000000D+00  0.0000000000000D+00
234  2.3300000000000D+00  0.0000000000000D+00  0.0000000000000D+00
235  2.3400000000000D+00  0.0000000000000D+00  0.0000000000000D+00
236  2.3500000000000D+00  0.0000000000000D+00  0.0000000000000D+00
237  2.3600000000000D+00  0.0000000000000D+00  0.0000000000000D+00
238  2.3700000000000D+00  0.0000000000000D+00  0.0000000000000D+00
239  2.3800000000000D+00  0.0000000000000D+00  0.0000000000000D+00
240  2.3900000000000D+00  0.0000000000000D+00  0.0000000000000D+00
241  2.4000000000000D+00  0.0000000000000D+00  0.0000000000000D+00
242  2.4100000000000D+00  0.0000000000000D+00  0.0000000000000D+00
243  2.4200000000000D+00  0.0000000000000D+00  0.0000000000000D+00
244  2.4300000000000D+00  0.0000000000000D+00  0.0000000000000D+00
245  2.4400000000000D+00  0.0000000000000D+00  0.0000000000000D+00
246  2.4500000000000D+00  0.0000000000000D+00  0.0000000000000D+00
247  2.4600000000000D+00  0.0000000000000D+00  0.0000000000000D+00
248  2.4700000000000D+00  0.0000000000000D+00  0.0000000000000D+00
249  2.4800000000000D+00  0.0000000000000D+00  0.0000000000000D+00
250  2.4900000000000D+00  0.0000000000000D+00  0.0000000000000D+00
251  2.5000000000000D+00  0.0000000000000D+00  0.0000000000000D+00
252  2.5100000000000D+00  0.0000000000000D+00  0.0000000000000D+00
253  2.5200000000000D+00  0.0000000000000D+00  0.0000000000000D+00
254  2.5300000000000D+00  0.0000000000000D+00  0.0000000000000D+00
255  2.5400000000000D+00  0.0000000000000D+00  0.0000000000000D+00
256  2.5500000000000D+00  0.0000000000000D+00  0.0000000000000D+00
257  2.5600000000000D+00  0.0000000000000D+00  0.0000000000000D+00
258  2.5700000000000D+00  0.0000000000000D+00  0.0000000000000D+00
259  2.5800000000000D+00  0.0000000000000D+00  0.0000000000000D+00
260  2.5900000000000D+00  0.0000000000000D+00  0.0000000000000D+00
261  2.6000000000000D+00  0.0000000000000D+00  0.0000000000000D+00
262  2.6100000000000D+00  0.0000000000000D+00  0.0000000000000D+00
263  2.6200000000000D+00  0.0000000000000D+00  0.0000000000000D+00
264  2.6300000000000D+00  0.0000000000000D+00  0.0000000000000D+00
265  2.6400000000000D+00  0.0000000000000D+00  0.0000000000000D+00
266  2.6500000000000D+00  0.0000000000000D+00  0.0000000000000D+00
267  2.6600000000000D+00  0.0000000000000D+00  0.0000000000000D+00
268  2.6700000000000D+00  0.0000000000000D+00  0.0000000000000D+00
269  2.6800000000000D+00  0.0000000000000D+00  0.0000000000000D+00
270  2.6900000000000D+00  0.0000000000000D+00  0.0000000000000D+00
271  2.7000000000000D+00  0.0000000000000D+00  0.0000000000000D+00
272  2.7100000000000D+00  0.0000000000000D+00  0.0000000000000D+00
273  2.7200000000000D+00  0.0000000000000D+00  0.0000000000000D+00
274  2.7300000000000D+00  0.0000000000000D+00  0.0000000000000D+00
275  2.7400000000000D+00  0.0000000000000D+00  0.0000000000000D+00
276  2.7500000000000D+00  0.0000000000000D+00  0.0000000000000D+00
277  2.7600000000000D+00  0.0000000000000D+00  0.0000000000000D+00
278  2.7700000000000D+00  0.0000000000000D+00  0.0000000000000D+00
279  2.7800000000000D+00  0.0000000000000D+00  0.0000000000000D+00
280  2.7900000000000D+00  0.0000000000000D+00  0.0000000000000D+00
281  2.8000000000000D+00  0.0000000000000D+00  0.0000000000000D+00
282  2.8100000000000D+00  0.0000000000000D+00  0.0000000000000D+00
283  2.8200000000000D+00  0.0000000000000D+00  0.0000000000000D+00
284  2.8300000000000D+00  0.0000000000000D+00  0.0000000000000D+00
285  2.8400000000000D+00  0.0000000000000D+00  0.0000000000000D+00
286  2.8500000000000D+00  0.0000000000000D+00  0.0000000000000D+00
287  2.8600000000000D+00  0.0000000000000D+00  0.0000000000000D+00
288  2.8700000000000D+00  0.0000000000000D+00  0.0000000000000D+00
289  2.8800000000000D+00  0.0000000000000D+00  0.0000000000000D+00
290  2.8900000000000D+00  0.0000000000000D+00  0.0000000000000D+00
291  2.9000000000000D+00  0.0000000000000D+00  0.0000000000000D+00
292  2.9100000000000D+00  0.0000000000000D+00  0.0000000000000D+00
293  2.9200000000000D+00  0.0000000000000D+00  0.0000000000000D+00
294  2.9300000000000D+00  0.0000000000000D+00  0.0000000000000D+00
295  2.9400000000000D+00  0.0000000000000D+00  0.0000000000000D+00
296  2.9500000000000D+00  0.0000000000000D+00  0.0000000000000D+00
297  2.9600000000000D+00  0.0000000000000D+00  0.0000000000000D+00
298  2.9700000000000D+00  0.0000000000000D+00  0.0000000000000D+00
299  2.9800000000000D+00  0.0000000000000D+00  0.0000000000000D+00
300  2.9900000000000D+00  0.0000000000000D+00  0.0000000000000D+00
301  3.0000000000000D+00  0.0000000000000D+00  0.0000000000000D+00
302  3.0100000000000D+00  0.0000000000000D+00  0.0000000000000D+00
303  3.0200000000000D+00  0.0000000000000D+00  0.0000000000000D+00
304  3.0300000000000D+00  0.0000000000000D+00  0.0000000000000D+00
305  3.0400000000000D+00  0.0000000000000D+00  0.0000000000000D+00
306  3.0500000000000D+00  0.0000000000000D+00  0.0000000000000D+00
307  3.0600000000000D+00  0.0000000000000D+00  0.0000000000000D+00
308  3.0700000000000D+00  0.0000000000000D+00  0.0000000000000D+00
309  3.0800000000000D+00  0.0000000000000D+00  0.0000000000000D+00
310  3.0900000000000D+00  0.0000000000000D+00  0.0000000000000D+00
311  3.1000000000000D+00  0.0000000000000D+00  0.0000000000000D+00
312  3.1100000000000D+00  0.0000000000000D+00  0.0000000000000D+00
313  3.1200000000000D+00  0.0000000000000D+00  0.0000000000000D+00
314  3.1300000000000D+00  0.0000000000000D+00  0.0000000000000D+00
315  3.1400000000000D+00  0.0000000000000D+00  0.0000000000000D+00
316  3.1500000000000D+00  0.0000000000000D+00  0.0000000000000D+00
317  3.1600000000000D+00  0.0000000000000D+00  0.0000000000000D+00
318  3.1700000000000D+00  0.0000000000000D+00  0.0000000000000D+00
319  3.1800000000000D+00  0.0000000000000D+00  0.0000000000000D+00
320  3.1900000000000D+00  0.0000000000000D+00  0.0000000000000D+00
321  3.2000000000000D+00  0.0000000000000D+00  0.0000000000000D+00
322  3.2100000000000D+00  0.0000000000000D+00  0.0000000000000D+00
323  3.2200000000000D+00  0.0000000000000D+00  0.0000000000000D+00
324  3.2300000000000D+00  0.0000000000000D+00  0.0000000000000D+00
325  3.2400000000000D+00  0.0000000000000D+00  0.0000000000000D+00
326  3.2500000000000D+00  0.0000000000000D+00  0.0000000000000D+00
327  3.2600000000000D+00  0.0000000000000D+00  0.0000000000000D+00
328  3.2700000000000D+00  0.0000000000000D+00  0.0000000000000D+00
329  3.2800000000000D+00  0.0000000000000D+00  0.0000000000000D+00
330  3.2900000000000D+00  0.0000000000000D+00  0.0000000000000D+00
331  3.3000000000000D+00  0.0000000000000D+00  0.0000000000000D+00
332  3.3100000000000D+00  0.0000000000000D+00  0.0000000000000D+00
333  3.3200000000000D+00  0.0000000000000D+00  0.0000000000000D+00
334  3.3300000000000D+00  0.0000000000000D+00  0.0000000000000D+00
335  3.3400000000000D+00  0.0000000000000D+00  0.0000000000000D+00
336  3.3500000000000D+00  0.0000000000000D+00  0.0000000000000D+00
337  3.3600000000000D+00  0.0000000000000D+00  0.0000000000000D+00
338  3.3700000000000D+00  0.0000000000000D+00  0.0000000000000D+00
339  3.3800000000000D+00  0.0000000000000D+00  0.0000000000000D+00
340  3.3900000000000D+00  0.0000000000000D+00  0.0000000000000D+00
341  3.4000000000000D+00  0.0000000000000D+00  0.0000000000000D+00
342  3.4100000000000D+00  0.0000000000000D+00  0.0000000000000D+00
343  3.4200000000000D+00  0.0000000000000D+00  0.0000000000000D+00
344  3.4300000000000D+00  0.0000000000000D+00  0.0000000000000D+00
345  3.4400000000000D+00  0.0000000000000D+00  0.0000000000000D+00
346  3.4500000000000D+00  0.0000000000000D+00  0.0000000000000D+00
347  3.4600000000000D+00  0.0000000000000D+00  0.0000000000000D+00
348  3.4700000000000D+00  0.0000000000000D+00  0.0000000000000D+00
349  3.4800000000000D+00  0.0000000000000D+00  0.0000000000000D+00
350  3.4900000000000D+00  0.0000000000000D+00  0.0000000000000D+00
351  3.5000000000000D+00  0.0000000000000D+00  0.0000000000000D+00
352  3.5100000000000D+00  0.0000000000000D+00  0.0000000000000D+00
353  3.5200000000000D+00  0.0000000000000D+00  0.0000000000000D+00
354  3.5300000000000D+00  0.0000000000000D+00  0.0000000000000D+00
355  3.5400000000000D+00  0.0000000000000D+00  0.0000000000000D+00
356  3.5500000000000D+00  0.0000000000000D+00  0.0000000000000D+00
357  3.5600000000000D+00  0.0000000000000D+00  0.0000000000000D+00
358  3.5700000000000D+00  0.0000000000000D+00  0.0000000000000D+00
359  3.5800000000000D+00  0.0000000000000D+00  0.0000000000000D+00
360  3.5900000000000D+00  0.0000000000000D+00  0.0000000000000D+00
361  3.6000000000000D+00  0.0000000000000D+00  0.0000000000000D+00
362  3.6100000000000D+00  0.0000000000000D+00  0.0000000000000D+00
363  3.6200000000000D+00  0.0000000000000D+00  0.0000000000000D+00
364  3.6300000000000D+00  0.0000000000000D+00  0.0000000000000D+00
365  3.6400000000000D+00  0.0000000000000D+00  0.0000000000000D+00
366  3.6500000000000D+00  0.0000000000000D+00  0.0000000000000D+00
367  3.6600000000000D+00  0.0000000000000D+00  0.0000000000000D+00
368  3.6700000000000D+00  0.0000000000000D+00  0.0000000000000D+00
369  3.6800000000000D+00  0.0000000000000D+00  0.0000000000000D+00
370  3.6900000000000D+00  0.0000000000000D+00  0.0000000000000D+00
371  3.7000000000000D+00  0.0000000000000D+00  0.0000000000000D+00
372  3.7100000000000D+00  0.0000000000000D+00  0.0000000000000D+00
373  3.7200000000000D+00  0.0000000000000D+00  0.0000000000000D+00
374  3.7300000000000D+00  0.0000000000000D+00  0.0000000000000D+00
375  3.7400000000000D+00  0.0000000000000D+00  0.0000000000000D+00
376  3.7500000000000D+00  0.0000000000000D+00  0.0000000000000D+00
377  3.7600000000000D+00  0.0000000000000D+00  0.0000000000000D+00
378  3.7700000000000D+00  0.0000000000000D+00  0.0000000000000D+00
379  3.7800000000000D+00  0.0000000000000D+00  0.0000000000000D+00
380  3.7900000000000D+00  0.0000000000000D+00  0.0000000000000D+00
381  3.8000000000000D+00  0.0000000000000D+00  0.0000000000000D+00
382  3.8100000000000D+00  0.0000000000000D+00  0.0000000000000D+00
383  3.8200000000000D+00  0.0000000000000D+00  0.0000000000000D+00
384  3.8300000000000D+00  0.0000000000000D+00  0.0000000000000D+00
385  3.8400000000000D+00  0.0000000000000D+00  0.0000000000000D+00
386  3.8500000000000D+00  0.0000000000000D+00  0.0000000000000D+00
387  3.8600000000000D+00  0.0000000000000D+00  0.0000000000000D+00
388  3.8700000000000D+00  0.0000000000000D+00  0.0000000000000D+00
389  3.8800000000000D+00  0.0000000000000D+00  0.0000000000000D+00
390  3.8900000000000D+00  0.0000000000000D+00  0.0000000000000D+00
391  3.9000000000000D+00  0.0000000000000D+00  0.0000000000000D+00
392  3.9100000000000D+00  0.0000000000000D+00  0.0000000000000D+00
393  3.9200000000000D+00  0.0000000000000D+00  0.0000000000000D+00
394  3.9300000000000D+00  0.0000000000000D+00  0.0000000000000D+00
395  3.9400000000000D+00  0.0000000000000D+00  0.0000000000000D+00
396  3.9500000000000D+00  0.0000000000000D+00  0.0000000000000D+00
397  3.9600000000000D+00  0.0000000000000D+00  0.0000000000000D+00
398  3.9700000000000D+00  0.0000000000000D+00  0.0000000000000D+00
399  3.9800000000000D+00  0.0000000000000D+00  0.0000000000000D+00
400  3.9900000000000D+00  0.0000000000000D+00  0.0000000000000D+00
401  4.0000000000000D+00  0.0000000000000D+00  0.0000000000000D+00
402  4.0100000000000D+00  0.0000000000000D+00  0.0000000000000D+00
403  4.0200000000000D+00  0.0000000000000D+00  0.0000000000000D+00
404  4.0300000000000D+00  0.0000000000000D+00  0.0000000000000D+00
405  4.0400000000000D+00  0.0000000000000D+00  0.0000000000000D+00
406  4.0500000000000D+00  0.0000000000000D+00  0.0000000000000D+00
407  4.0600000000000D+00  0.0000000000000D+00  0.0000000000000D+00
408  4.0700000000000D+00  0.0000000000000D+00  0.0000000000000D+00
409  4.0800000000000D+00  0.0000000000000D+00  0.0000000000000D+00
410  4.0900000000000D+00  0.0000000000000D+00  0.0000000000000D+00
411  4.1000000000000D+00  0.0000000000000D+00  0.0000000000000D+00
412  4.1100000000000D+00  0.0000000000000D+00  0.0000000000000D+00
413  4.1200000000000D+00  0.0000000000000D+00  0.0000000000000D+00
414  4.1300000000000D+00  0.0000000000000D+00  0.0000000000000D+00
415  4.1400000000000D+00  0.0000000000000D+00  0.0000000000000D+00
416  4.1500000000000D+00  0.0000000000000D+00  0.0000000000000D+00
417  4.1600000000000D+00  0.0000000000000D+00  0.0000000000000D+00
418  4.1700000000000D+00  0.0000000000000D+00  0.0000000000000D+00
419  4.1800000000000D+00  0.0000000000000D+00  0.0000000000000D+00
420  4.1900000000000D+00  0.0000000000000D+00  0.0000000000000D+00
421  4.2000000000000D+00  0.0000000000000D+00  0.0000000000000D+00
422  4.2100000000000D+00  0.0000000000000D+00  0.0000000000000D+00
423  4.2200000000000D+00  0.0000000000000D+00  0.0000000000000D+00
424  4.2300000000000D+00  0.0000000000000D+00  0.0000000000000D+00
425  4.2400000000000D+00  0.0000000000000D+00  0.0000000000000D+00
426  4.2500000000000D+00  0.0000000000000D+00  0.0000000000000D+00
427  4.2600000000000D+00  0.0000000000000D+00  0.0000000000000D+00
428  4.2700000000000D+00  0.0000000000000D+00  0.0000000000000D+00
429  4.2800000000000D+00  0.0000000000000D+00  0.0000000000000D+00
430  4.2900000000000D+00  0.0000000000000D+00  0.0000000000000D+00
431  4.3000000000000D+00  0.0000000000000D+00  0.0000000000000D+00
432  4.3100000000000D+00  0.0000000000000D+00  0.0000000000000D+00
433  4.3200000000000D+00  0.0000000000000D+00  0.0000000000000D+00
434  4.3300000000000D+00  0.0000000000000D+00  0.0000000000000D+00
435  4.3400000000000D+00  0.0000000000000D+00  0.0000000000000D+00
436  4.3500000000000D+00  0.0000000000000D+00  0.0000000000000D+00
437  4.3600000000000D+00  0.0000000000000D+00  0.0000000000000D+00
438  4.3700000000000D+00  0.0000000000000D+00  0.0000000000000D+00
439  4.3800000000000D+00  0.0000000000000D+00  0.0000000000000D+00
440  4.3900000000000D+00  0.0000000000000D+00  0.0000000000000D+00
441  4.4000000000000D+00  0.0000000000000D+00  0.0000000000000D+00
442  4.4100000000000D+00  0.0000000000000D+00  0.0000000000000D+00
443  4.4200000000000D+00  0.0000000000000D+00  0.0000000000000D+00
444  4.4300000000000D+00  0.0000000000000D+00  0.0000000000000D+00