Ir    ONCVPSP-3.3.0  r_core=   1.60470   1.60470   1.51179   2.26792
77.0000     17.0000      180112    zatom,zion,pspd
8 -116133   3     4   500     0    pspcod,pspxc,lmax,lloc,mmax,r2well
4.99000000  5.00000000  0.00000000    rchrg fchrg qchrg
2     2     2     2     0    nproj
1     1           extension_switch
0                        -3.1862486455802D+02  3.0073950753949D+00
1  0.0000000000000D+00 -4.0085723629346D-10  4.5127355324803D-10
2  1.0000000000000D-02  7.9032688891431D-02  3.9155853826548D-03
3  2.0000000000000D-02  1.5782839567294D-01  7.9439437545381D-03
4  3.0000000000000D-02  2.3615125878534D-01  1.2196874555591D-02
5  4.0000000000000D-02  3.1376764848934D-01  1.6784240173408D-02
6  5.0000000000000D-02  3.9044725967498D-01  2.1813022416443D-02
7  6.0000000000000D-02  4.6596417723809D-01  2.7386408662563D-02
8  7.0000000000000D-02  5.4009790535553D-01  3.3602917038868D-02
9  8.0000000000000D-02  6.1263435239187D-01  4.0555569537394D-02
10  9.0000000000000D-02  6.8336676366235D-01  4.8331121416980D-02
11  1.0000000000000D-01  7.5209659485504D-01  5.7009354590854D-02
12  1.1000000000000D-01  8.1863431957190D-01  6.6662441959576D-02
13  1.2000000000000D-01  8.8280016517663D-01  7.7354388828916D-02
14  1.3000000000000D-01  9.4442477192817D-01  8.9140556661037D-02
15  1.4000000000000D-01  1.0033497712229D+00  1.0206727345601D-01
16  1.5000000000000D-01  1.0594282796564D+00  1.1617153405974D-01
17  1.6000000000000D-01  1.1125253065375D+00  1.3148079265595D-01
18  1.7000000000000D-01  1.1625180734287D+00  1.4801284863606D-01
19  1.8000000000000D-01  1.2092962452439D+00  1.6577582596378D-01
20  1.9000000000000D-01  1.2527620733863D+00  1.8476824507469D-01
21  2.0000000000000D-01  1.2928304523537D+00  2.0497918528636D-01
22  2.1000000000000D-01  1.3294288921559D+00  2.2638853465579D-01
23  2.2000000000000D-01  1.3624974097775D+00  2.4896732321962D-01
24  2.3000000000000D-01  1.3919883437582D+00  2.7267813460110D-01
25  2.4000000000000D-01  1.4178660967506D+00  2.9747559007759D-01
26  2.5000000000000D-01  1.4401068116369D+00  3.2330689838462D-01
27  2.6000000000000D-01  1.4586979874362D+00  3.5011246379668D-01
28  2.7000000000000D-01  1.4736380417993D+00  3.7782654438084D-01
29  2.8000000000000D-01  1.4849358273708D+00  4.0637795177455D-01
30  2.9000000000000D-01  1.4926101096800D+00  4.3569078340100D-01
31  3.0000000000000D-01  1.4966890145101D+00  4.6568517770937D-01
32  3.1000000000000D-01  1.4972094528766D+00  4.9627808281880D-01
33  3.2000000000000D-01  1.4942165318221D+00  5.2738402885526D-01
34  3.3000000000000D-01  1.4877629592073D+00  5.5891589430358D-01
35  3.4000000000000D-01  1.4779084505361D+00  5.9078565685089D-01
36  3.5000000000000D-01  1.4647191456139D+00  6.2290511947278D-01
37  3.6000000000000D-01  1.4482670424913D+00  6.5518660290667D-01
38  3.7000000000000D-01  1.4286294556980D+00  6.8754359616297D-01
39  3.8000000000000D-01  1.4058885052362D+00  7.1989135734003D-01
40  3.9000000000000D-01  1.3801306421742D+00  7.5214745772501D-01
41  4.0000000000000D-01  1.3514462159751D+00  7.8423226297147D-01
42  4.1000000000000D-01  1.3199290879178D+00  8.1606934603827D-01
43  4.2000000000000D-01  1.2856762941290D+00  8.4758582753923D-01
44  4.3000000000000D-01  1.2487877608531D+00  8.7871264018133D-01
45  4.4000000000000D-01  1.2093660736581D+00  9.0938471504479D-01
46  4.5000000000000D-01  1.1675163013171D+00  9.3954108857104D-01
47  4.6000000000000D-01  1.1233458741302D+00  9.6912493025862D-01
48  4.7000000000000D-01  1.0769645154776D+00  9.9808349220885D-01
49  4.8000000000000D-01  1.0284842244263D+00  1.0263679827986D+00
50  4.9000000000000D-01  9.7801930627244D-01  1.0539333678711D+00
51  5.0000000000000D-01  9.2568644699188D-01  1.0807381039137D+00
52  5.1000000000000D-01  8.7160482671803D-01  1.1067438087198D+00
53  5.2000000000000D-01  8.1589626656564D-01  1.1319148759948D+00
54  5.3000000000000D-01  7.5868540239865D-01  1.1562180412549D+00
55  5.4000000000000D-01  7.0009987849894D-01  1.1796219071608D+00
56  5.5000000000000D-01  6.4027055354680D-01  1.2020964371281D+00
57  5.6000000000000D-01  5.7933171088128D-01  1.2236124266369D+00
58  5.7000000000000D-01  5.1742126467461D-01  1.2441409621287D+00
59  5.8000000000000D-01  4.5468095343999D-01  1.2636528777111D+00
60  5.9000000000000D-01  3.9125651219781D-01  1.2821182200922D+00
61  6.0000000000000D-01  3.2729781465811D-01  1.2995057322255D+00
62  6.1000000000000D-01  2.6295897693748D-01  1.3157823660627D+00
63  6.2000000000000D-01  1.9839841461692D-01  1.3309128345874D+00
64  6.3000000000000D-01  1.3377884536556D-01  1.3448592129278D+00
65  6.4000000000000D-01  6.9267229894290D-02  1.3575805978391D+00
66  6.5000000000000D-01  5.0346446666316D-03  1.3690328341957D+00
67  6.6000000000000D-01 -5.8743919428301D-02  1.3791683163506D+00
68  6.7000000000000D-01 -1.2188983735656D-01  1.3879358713218D+00
69  6.8000000000000D-01 -1.8422121310492D-01  1.3952807297407D+00
70  6.9000000000000D-01 -2.4555332859606D-01  1.4011445893806D+00
71  7.0000000000000D-01 -3.0569918007344D-01  1.4054657748693D+00
72  7.1000000000000D-01 -3.6447010247490D-01  1.4081794959042D+00
73  7.2000000000000D-01 -4.2167648105381D-01  1.4092182049317D+00
74  7.3000000000000D-01 -4.7712854822523D-01  1.4085120538616D+00
75  7.4000000000000D-01 -5.3063726230936D-01  1.4059894479582D+00
76  7.5000000000000D-01 -5.8201526353898D-01  1.4015776936137D+00
77  7.6000000000000D-01 -6.3107790141350D-01  1.3952037352831D+00
78  7.7000000000000D-01 -6.7764432622248D-01  1.3867949754501D+00
79  7.8000000000000D-01 -7.2153863635841D-01  1.3762801701372D+00
80  7.9000000000000D-01 -7.6259107190051D-01  1.3635903911740D+00
81  8.0000000000000D-01 -8.0063924389416D-01  1.3486600452172D+00
82  8.1000000000000D-01 -8.3552938779404D-01  1.3314279383990D+00
83  8.2000000000000D-01 -8.6711762869375D-01  1.3118383744663D+00
84  8.3000000000000D-01 -8.9527124524696D-01  1.2898422734012D+00
85  8.4000000000000D-01 -9.1986991860591D-01  1.2653982967686D+00
86  8.5000000000000D-01 -9.4080695227323D-01  1.2384739654615D+00
87  8.6000000000000D-01 -9.5799044849254D-01  1.2090467550932D+00
88  8.7000000000000D-01 -9.7134442669915D-01  1.1771051540457D+00
89  8.8000000000000D-01 -9.8080986961960D-01  1.1426496691229D+00
90  8.9000000000000D-01 -9.8634568285258D-01  1.1056937638813D+00
91  9.0000000000000D-01 -9.8792955418380D-01  1.0662647150251D+00
92  9.1000000000000D-01 -9.8555869948509D-01  1.0244043727569D+00
93  9.2000000000000D-01 -9.7925048281813D-01  9.8016981166102D-01
94  9.3000000000000D-01 -9.6904289930364D-01  9.3363385957297D-01
95  9.4000000000000D-01 -9.5499491041796D-01  8.8488549293308D-01
96  9.5000000000000D-01 -9.3718662263231D-01  8.3403008833720D-01
97  9.6000000000000D-01 -9.1571930170354D-01  7.8118952136589D-01
98  9.7000000000000D-01 -8.9071521646019D-01  7.2650210529728D-01
99  9.8000000000000D-01 -8.6231730754171D-01  6.7012236392595D-01
100  9.9000000000000D-01 -8.3068867829224D-01  6.1222063446934D-01
101  1.0000000000000D+00 -7.9601190683130D-01  5.5298249839460D-01
102  1.0100000000000D+00 -7.5848818017406D-01  4.9260803988943D-01
103  1.0200000000000D+00 -7.1833625318963D-01  4.3131093366939D-01
104  1.0300000000000D+00 -6.7579123709560D-01  3.6931736578603D-01
105  1.0400000000000D+00 -6.3110322416974D-01  3.0686479315807D-01
106  1.0500000000000D+00 -5.8453575708597D-01  2.4420054934625D-01
107  1.0600000000000D+00 -5.3636415332391D-01  1.8158030623001D-01
108  1.0700000000000D+00 -4.8687369672801D-01  1.1926640295703D-01
109  1.0800000000000D+00 -4.3635770999683D-01  5.7526055336935D-02
110  1.0900000000000D+00 -3.8511552350033D-01 -3.3705394280824D-03
111  1.1000000000000D+00 -3.3345035705609D-01 -6.3152186466368D-02
112  1.1100000000000D+00 -2.8166713279922D-01 -1.2154874758404D-01
113  1.1200000000000D+00 -2.3007023820182D-01 -1.7829324740136D-01
114  1.1300000000000D+00 -1.7896125926762D-01 -2.3312401137312D-01
115  1.1400000000000D+00 -1.2863670455112D-01 -2.8578681508543D-01
116  1.1500000000000D+00 -7.9385741237778D-02 -3.3603702354314D-01
117  1.1600000000000D+00 -3.1487964737635D-02 -3.8364169887083D-01
118  1.1700000000000D+00  1.4788776805608D-02 -4.2838165483316D-01
119  1.1800000000000D+00  5.9190481756339D-02 -4.7005343659982D-01
120  1.1900000000000D+00  1.0147899712958D-01 -5.0847120459736D-01
121  1.2000000000000D+00  1.4143390352500D-01 -5.4346850200088D-01
122  1.2100000000000D+00  1.7885426374422D-01 -5.7489988639292D-01
123  1.2200000000000D+00  2.1356021658746D-01 -6.0264240669776D-01
124  1.2300000000000D+00  2.4539439932500D-01 -6.2659690848891D-01
125  1.2400000000000D+00  2.7422318396064D-01 -6.4668915240828D-01
126  1.2500000000000D+00  2.9993771291143D-01 -6.6287073093242D-01
127  1.2600000000000D+00  3.2245472314287D-01 -6.7511977217834D-01
128  1.2700000000000D+00  3.4171714963221D-01 -6.8344142132037D-01
129  1.2800000000000D+00  3.5769449967684D-01 -6.8786809083625D-01
130  1.2900000000000D+00  3.7038299372326D-01 -6.8845947504823D-01
131  1.3000000000000D+00  3.7980547080236D-01 -6.8530232691136D-01
132  1.3100000000000D+00  3.8601105654092D-01 -6.7850999487047D-01
133  1.3200000000000D+00  3.8907459733314D-01 -6.6822172338051D-01
134  1.3300000000000D+00  3.8909586611529D-01 -6.5460172261554D-01
135  1.3400000000000D+00  3.8619854434239D-01 -6.3783801200683D-01
136  1.3500000000000D+00  3.8052899257861D-01 -6.1814105032539D-01
137  1.3600000000000D+00  3.7225482052639D-01 -5.9574216339303D-01
138  1.3700000000000D+00  3.6156326953496D-01 -5.7089178278679D-01
139  1.3800000000000D+00  3.4865942640370D-01 -5.4385751489774D-01
140  1.3900000000000D+00  3.3376428410525D-01 -5.1492205639350D-01
141  1.4000000000000D+00  3.1711267078407D-01 -4.8438097807985D-01
142  1.4100000000000D+00  2.9895106897427D-01 -4.5254039977907D-01
143  1.4200000000000D+00  2.7953534603121D-01 -4.1971457784535D-01
144  1.4300000000000D+00  2.5912842220413D-01 -3.8622343260154D-01
145  1.4400000000000D+00  2.3799789916385D-01 -3.5239003921651D-01
146  1.4500000000000D+00  2.1641367591674D-01 -3.1853810983339D-01
147  1.4600000000000D+00  1.9464557916627D-01 -2.8498949515632D-01
148  1.4700000000000D+00  1.7296102881233D-01 -2.5206172610415D-01
149  1.4800000000000D+00  1.5162278401145D-01 -2.2006564460468D-01
150  1.4900000000000D+00  1.3088667708078D-01 -1.8930301564080D-01
151  1.5000000000000D+00  1.1099939459607D-01 -1.6006418167259D-01
152  1.5100000000000D+00  9.2197811533491D-02 -1.3262749363581D-01
153  1.5200000000000D+00  7.4705036338049D-02 -1.0725494476034D-01
154  1.5300000000000D+00  5.8724930091361D-02 -8.4186022581043D-02
155  1.5400000000000D+00  4.4437461370198D-02 -6.3632576219742D-02
156  1.5500000000000D+00  3.1995416161755D-02 -4.5775865804417D-02
157  1.5600000000000D+00  2.1520968547084D-02 -3.0761956904373D-02
158  1.5700000000000D+00  1.3061889328462D-02 -1.8640007078292D-02
159  1.5800000000000D+00  6.7222877568937D-03 -9.5479780178743D-03
160  1.5900000000000D+00  2.7041305211185D-03 -3.7679892594497D-03
161  1.6000000000000D+00  7.4712014391983D-04 -9.4687418962351D-04
162  1.6100000000000D+00  6.8636663043272D-05 -7.5520042857561D-06
163  1.6200000000000D+00 -2.2330742533487D-05  5.4922365679418D-05
164  1.6300000000000D+00  2.0936110707946D-05 -4.2254097109149D-05
165  1.6400000000000D+00  1.2633656147374D-05 -2.3759602958822D-05
166  1.6500000000000D+00 -2.6050870973004D-06  6.4075937345022D-06
167  1.6600000000000D+00 -1.5242305309303D-06  3.4488863902587D-06
168  1.6700000000000D+00 -8.5050422806460D-07  9.1032147097281D-07
169  1.6800000000000D+00 -4.1136144593640D-07  4.4029311578905D-07
170  1.6900000000000D+00  0.0000000000000D+00  0.0000000000000D+00
171  1.7000000000000D+00  0.0000000000000D+00  0.0000000000000D+00
172  1.7100000000000D+00  0.0000000000000D+00  0.0000000000000D+00
173  1.7200000000000D+00  0.0000000000000D+00  0.0000000000000D+00
174  1.7300000000000D+00  0.0000000000000D+00  0.0000000000000D+00
175  1.7400000000000D+00  0.0000000000000D+00  0.0000000000000D+00
176  1.7500000000000D+00  0.0000000000000D+00  0.0000000000000D+00
177  1.7600000000000D+00  0.0000000000000D+00  0.0000000000000D+00
178  1.7700000000000D+00  0.0000000000000D+00  0.0000000000000D+00
179  1.7800000000000D+00  0.0000000000000D+00  0.0000000000000D+00
180  1.7900000000000D+00  0.0000000000000D+00  0.0000000000000D+00
181  1.8000000000000D+00  0.0000000000000D+00  0.0000000000000D+00
182  1.8100000000000D+00  0.0000000000000D+00  0.0000000000000D+00
183  1.8200000000000D+00  0.0000000000000D+00  0.0000000000000D+00
184  1.8300000000000D+00  0.0000000000000D+00  0.0000000000000D+00
185  1.8400000000000D+00  0.0000000000000D+00  0.0000000000000D+00
186  1.8500000000000D+00  0.0000000000000D+00  0.0000000000000D+00
187  1.8600000000000D+00  0.0000000000000D+00  0.0000000000000D+00
188  1.8700000000000D+00  0.0000000000000D+00  0.0000000000000D+00
189  1.8800000000000D+00  0.0000000000000D+00  0.0000000000000D+00
190  1.8900000000000D+00  0.0000000000000D+00  0.0000000000000D+00
191  1.9000000000000D+00  0.0000000000000D+00  0.0000000000000D+00
192  1.9100000000000D+00  0.0000000000000D+00  0.0000000000000D+00
193  1.9200000000000D+00  0.0000000000000D+00  0.0000000000000D+00
194  1.9300000000000D+00  0.0000000000000D+00  0.0000000000000D+00
195  1.9400000000000D+00  0.0000000000000D+00  0.0000000000000D+00
196  1.9500000000000D+00  0.0000000000000D+00  0.0000000000000D+00
197  1.9600000000000D+00  0.0000000000000D+00  0.0000000000000D+00
198  1.9700000000000D+00  0.0000000000000D+00  0.0000000000000D+00
199  1.9800000000000D+00  0.0000000000000D+00  0.0000000000000D+00
200  1.9900000000000D+00  0.0000000000000D+00  0.0000000000000D+00
201  2.0000000000000D+00  0.0000000000000D+00  0.0000000000000D+00
202  2.0100000000000D+00  0.0000000000000D+00  0.0000000000000D+00
203  2.0200000000000D+00  0.0000000000000D+00  0.0000000000000D+00
204  2.0300000000000D+00  0.0000000000000D+00  0.0000000000000D+00
205  2.0400000000000D+00  0.0000000000000D+00  0.0000000000000D+00
206  2.0500000000000D+00  0.0000000000000D+00  0.0000000000000D+00
207  2.0600000000000D+00  0.0000000000000D+00  0.0000000000000D+00
208  2.0700000000000D+00  0.0000000000000D+00  0.0000000000000D+00
209  2.0800000000000D+00  0.0000000000000D+00  0.0000000000000D+00
210  2.0900000000000D+00  0.0000000000000D+00  0.0000000000000D+00
211  2.1000000000000D+00  0.0000000000000D+00  0.0000000000000D+00
212  2.1100000000000D+00  0.0000000000000D+00  0.0000000000000D+00
213  2.1200000000000D+00  0.0000000000000D+00  0.0000000000000D+00
214  2.1300000000000D+00  0.0000000000000D+00  0.0000000000000D+00
215  2.1400000000000D+00  0.0000000000000D+00  0.0000000000000D+00
216  2.1500000000000D+00  0.0000000000000D+00  0.0000000000000D+00
217  2.1600000000000D+00  0.0000000000000D+00  0.0000000000000D+00
218  2.1700000000000D+00  0.0000000000000D+00  0.0000000000000D+00
219  2.1800000000000D+00  0.0000000000000D+00  0.0000000000000D+00
220  2.1900000000000D+00  0.0000000000000D+00  0.0000000000000D+00
221  2.2000000000000D+00  0.0000000000000D+00  0.0000000000000D+00
222  2.2100000000000D+00  0.0000000000000D+00  0.0000000000000D+00
223  2.2200000000000D+00  0.0000000000000D+00  0.0000000000000D+00
224  2.2300000000000D+00  0.0000000000000D+00  0.0000000000000D+00
225  2.2400000000000D+00  0.0000000000000D+00  0.0000000000000D+00
226  2.2500000000000D+00  0.0000000000000D+00  0.0000000000000D+00
227  2.2600000000000D+00  0.0000000000000D+00  0.0000000000000D+00
228  2.2700000000000D+00  0.0000000000000D+00  0.0000000000000D+00
229  2.2800000000000D+00  0.0000000000000D+00  0.0000000000000D+00
230  2.2900000000000D+00  0.0000000000000D+00  0.0000000000000D+00
231  2.3000000000000D+00  0.0000000000000D+00  0.0000000000000D+00
232  2.3100000000000D+00  0.0000000000000D+00  0.0000000000000D+00
233  2.3200000000000D+00  0.0000000000000D+00  0.0000000000000D+00
234  2.3300000000000D+00  0.0000000000000D+00  0.0000000000000D+00
235  2.3400000000000D+00  0.0000000000000D+00  0.0000000000000D+00
236  2.3500000000000D+00  0.0000000000000D+00  0.0000000000000D+00
237  2.3600000000000D+00  0.0000000000000D+00  0.0000000000000D+00
238  2.3700000000000D+00  0.0000000000000D+00  0.0000000000000D+00
239  2.3800000000000D+00  0.0000000000000D+00  0.0000000000000D+00
240  2.3900000000000D+00  0.0000000000000D+00  0.0000000000000D+00
241  2.4000000000000D+00  0.0000000000000D+00  0.0000000000000D+00
242  2.4100000000000D+00  0.0000000000000D+00  0.0000000000000D+00
243  2.4200000000000D+00  0.0000000000000D+00  0.0000000000000D+00
244  2.4300000000000D+00  0.0000000000000D+00  0.0000000000000D+00
245  2.4400000000000D+00  0.0000000000000D+00  0.0000000000000D+00
246  2.4500000000000D+00  0.0000000000000D+00  0.0000000000000D+00
247  2.4600000000000D+00  0.0000000000000D+00  0.0000000000000D+00
248  2.4700000000000D+00  0.0000000000000D+00  0.0000000000000D+00
249  2.4800000000000D+00  0.0000000000000D+00  0.0000000000000D+00
250  2.4900000000000D+00  0.0000000000000D+00  0.0000000000000D+00
251  2.5000000000000D+00  0.0000000000000D+00  0.0000000000000D+00
252  2.5100000000000D+00  0.0000000000000D+00  0.0000000000000D+00
253  2.5200000000000D+00  0.0000000000000D+00  0.0000000000000D+00
254  2.5300000000000D+00  0.0000000000000D+00  0.0000000000000D+00
255  2.5400000000000D+00  0.0000000000000D+00  0.0000000000000D+00
256  2.5500000000000D+00  0.0000000000000D+00  0.0000000000000D+00
257  2.5600000000000D+00  0.0000000000000D+00  0.0000000000000D+00
258  2.5700000000000D+00  0.0000000000000D+00  0.0000000000000D+00
259  2.5800000000000D+00  0.0000000000000D+00  0.0000000000000D+00
260  2.5900000000000D+00  0.0000000000000D+00  0.0000000000000D+00
261  2.6000000000000D+00  0.0000000000000D+00  0.0000000000000D+00
262  2.6100000000000D+00  0.0000000000000D+00  0.0000000000000D+00
263  2.6200000000000D+00  0.0000000000000D+00  0.0000000000000D+00
264  2.6300000000000D+00  0.0000000000000D+00  0.0000000000000D+00
265  2.6400000000000D+00  0.0000000000000D+00  0.0000000000000D+00
266  2.6500000000000D+00  0.0000000000000D+00  0.0000000000000D+00
267  2.6600000000000D+00  0.0000000000000D+00  0.0000000000000D+00
268  2.6700000000000D+00  0.0000000000000D+00  0.0000000000000D+00
269  2.6800000000000D+00  0.0000000000000D+00  0.0000000000000D+00
270  2.6900000000000D+00  0.0000000000000D+00  0.0000000000000D+00
271  2.7000000000000D+00  0.0000000000000D+00  0.0000000000000D+00
272  2.7100000000000D+00  0.0000000000000D+00  0.0000000000000D+00
273  2.7200000000000D+00  0.0000000000000D+00  0.0000000000000D+00
274  2.7300000000000D+00  0.0000000000000D+00  0.0000000000000D+00
275  2.7400000000000D+00  0.0000000000000D+00  0.0000000000000D+00
276  2.7500000000000D+00  0.0000000000000D+00  0.0000000000000D+00
277  2.7600000000000D+00  0.0000000000000D+00  0.0000000000000D+00
278  2.7700000000000D+00  0.0000000000000D+00  0.0000000000000D+00
279  2.7800000000000D+00  0.0000000000000D+00  0.0000000000000D+00
280  2.7900000000000D+00  0.0000000000000D+00  0.0000000000000D+00
281  2.8000000000000D+00  0.0000000000000D+00  0.0000000000000D+00
282  2.8100000000000D+00  0.0000000000000D+00  0.0000000000000D+00
283  2.8200000000000D+00  0.0000000000000D+00  0.0000000000000D+00
284  2.8300000000000D+00  0.0000000000000D+00  0.0000000000000D+00
285  2.8400000000000D+00  0.0000000000000D+00  0.0000000000000D+00
286  2.8500000000000D+00  0.0000000000000D+00  0.0000000000000D+00
287  2.8600000000000D+00  0.0000000000000D+00  0.0000000000000D+00
288  2.8700000000000D+00  0.0000000000000D+00  0.0000000000000D+00
289  2.8800000000000D+00  0.0000000000000D+00  0.0000000000000D+00
290  2.8900000000000D+00  0.0000000000000D+00  0.0000000000000D+00
291  2.9000000000000D+00  0.0000000000000D+00  0.0000000000000D+00
292  2.9100000000000D+00  0.0000000000000D+00  0.0000000000000D+00
293  2.9200000000000D+00  0.0000000000000D+00  0.0000000000000D+00
294  2.9300000000000D+00  0.0000000000000D+00  0.0000000000000D+00
295  2.9400000000000D+00  0.0000000000000D+00  0.0000000000000D+00
296  2.9500000000000D+00  0.0000000000000D+00  0.0000000000000D+00
297  2.9600000000000D+00  0.0000000000000D+00  0.0000000000000D+00
298  2.9700000000000D+00  0.0000000000000D+00  0.0000000000000D+00
299  2.9800000000000D+00  0.0000000000000D+00  0.0000000000000D+00
300  2.9900000000000D+00  0.0000000000000D+00  0.0000000000000D+00
301  3.0000000000000D+00  0.0000000000000D+00  0.0000000000000D+00
302  3.0100000000000D+00  0.0000000000000D+00  0.0000000000000D+00
303  3.0200000000000D+00  0.0000000000000D+00  0.0000000000000D+00
304  3.0300000000000D+00  0.0000000000000D+00  0.0000000000000D+00
305  3.0400000000000D+00  0.0000000000000D+00  0.0000000000000D+00
306  3.0500000000000D+00  0.0000000000000D+00  0.0000000000000D+00
307  3.0600000000000D+00  0.0000000000000D+00  0.0000000000000D+00
308  3.0700000000000D+00  0.0000000000000D+00  0.0000000000000D+00
309  3.0800000000000D+00  0.0000000000000D+00  0.0000000000000D+00
310  3.0900000000000D+00  0.0000000000000D+00  0.0000000000000D+00
311  3.1000000000000D+00  0.0000000000000D+00  0.0000000000000D+00
312  3.1100000000000D+00  0.0000000000000D+00  0.0000000000000D+00
313  3.1200000000000D+00  0.0000000000000D+00  0.0000000000000D+00
314  3.1300000000000D+00  0.0000000000000D+00  0.0000000000000D+00
315  3.1400000000000D+00  0.0000000000000D+00  0.0000000000000D+00
316  3.1500000000000D+00  0.0000000000000D+00  0.0000000000000D+00
317  3.1600000000000D+00  0.0000000000000D+00  0.0000000000000D+00
318  3.1700000000000D+00  0.0000000000000D+00  0.0000000000000D+00
319  3.1800000000000D+00  0.0000000000000D+00  0.0000000000000D+00
320  3.1900000000000D+00  0.0000000000000D+00  0.0000000000000D+00
321  3.2000000000000D+00  0.0000000000000D+00  0.0000000000000D+00
322  3.2100000000000D+00  0.0000000000000D+00  0.0000000000000D+00
323  3.2200000000000D+00  0.0000000000000D+00  0.0000000000000D+00
324  3.2300000000000D+00  0.0000000000000D+00  0.0000000000000D+00
325  3.2400000000000D+00  0.0000000000000D+00  0.0000000000000D+00
326  3.2500000000000D+00  0.0000000000000D+00  0.0000000000000D+00
327  3.2600000000000D+00  0.0000000000000D+00  0.0000000000000D+00
328  3.2700000000000D+00  0.0000000000000D+00  0.0000000000000D+00
329  3.2800000000000D+00  0.0000000000000D+00  0.0000000000000D+00
330  3.2900000000000D+00  0.0000000000000D+00  0.0000000000000D+00
331  3.3000000000000D+00  0.0000000000000D+00  0.0000000000000D+00
332  3.3100000000000D+00  0.0000000000000D+00  0.0000000000000D+00
333  3.3200000000000D+00  0.0000000000000D+00  0.0000000000000D+00
334  3.3300000000000D+00  0.0000000000000D+00  0.0000000000000D+00
335  3.3400000000000D+00  0.0000000000000D+00  0.0000000000000D+00
336  3.3500000000000D+00  0.0000000000000D+00  0.0000000000000D+00
337  3.3600000000000D+00  0.0000000000000D+00  0.0000000000000D+00
338  3.3700000000000D+00  0.0000000000000D+00  0.0000000000000D+00
339  3.3800000000000D+00  0.0000000000000D+00  0.0000000000000D+00
340  3.3900000000000D+00  0.0000000000000D+00  0.0000000000000D+00
341  3.4000000000000D+00  0.0000000000000D+00  0.0000000000000D+00
342  3.4100000000000D+00  0.0000000000000D+00  0.0000000000000D+00
343  3.4200000000000D+00  0.0000000000000D+00  0.0000000000000D+00
344  3.4300000000000D+00  0.0000000000000D+00  0.0000000000000D+00
345  3.4400000000000D+00  0.0000000000000D+00  0.0000000000000D+00
346  3.4500000000000D+00  0.0000000000000D+00  0.0000000000000D+00
347  3.4600000000000D+00  0.0000000000000D+00  0.0000000000000D+00
348  3.4700000000000D+00  0.0000000000000D+00  0.0000000000000D+00
349  3.4800000000000D+00  0.0000000000000D+00  0.0000000000000D+00
350  3.4900000000000D+00  0.0000000000000D+00  0.0000000000000D+00
351  3.5000000000000D+00  0.0000000000000D+00  0.0000000000000D+00
352  3.5100000000000D+00  0.0000000000000D+00  0.0000000000000D+00
353  3.5200000000000D+00  0.0000000000000D+00  0.0000000000000D+00
354  3.5300000000000D+00  0.0000000000000D+00  0.0000000000000D+00
355  3.5400000000000D+00  0.0000000000000D+00  0.0000000000000D+00
356  3.5500000000000D+00  0.0000000000000D+00  0.0000000000000D+00
357  3.5600000000000D+00  0.0000000000000D+00  0.0000000000000D+00
358  3.5700000000000D+00  0.0000000000000D+00  0.0000000000000D+00
359  3.5800000000000D+00  0.0000000000000D+00  0.0000000000000D+00
360  3.5900000000000D+00  0.0000000000000D+00  0.0000000000000D+00
361  3.6000000000000D+00  0.0000000000000D+00  0.0000000000000D+00
362  3.6100000000000D+00  0.0000000000000D+00  0.0000000000000D+00
363  3.6200000000000D+00  0.0000000000000D+00  0.0000000000000D+00
364  3.6300000000000D+00  0.0000000000000D+00  0.0000000000000D+00
365  3.6400000000000D+00  0.0000000000000D+00  0.0000000000000D+00
366  3.6500000000000D+00  0.0000000000000D+00  0.0000000000000D+00
367  3.6600000000000D+00  0.0000000000000D+00  0.0000000000000D+00
368  3.6700000000000D+00  0.0000000000000D+00  0.0000000000000D+00
369  3.6800000000000D+00  0.0000000000000D+00  0.0000000000000D+00
370  3.6900000000000D+00  0.0000000000000D+00  0.0000000000000D+00
371  3.7000000000000D+00  0.0000000000000D+00  0.0000000000000D+00
372  3.7100000000000D+00  0.0000000000000D+00  0.0000000000000D+00
373  3.7200000000000D+00  0.0000000000000D+00  0.0000000000000D+00
374  3.7300000000000D+00  0.0000000000000D+00  0.0000000000000D+00
375  3.7400000000000D+00  0.0000000000000D+00  0.0000000000000D+00
376  3.7500000000000D+00  0.0000000000000D+00  0.0000000000000D+00
377  3.7600000000000D+00  0.0000000000000D+00  0.0000000000000D+00
378  3.7700000000000D+00  0.0000000000000D+00  0.0000000000000D+00
379  3.7800000000000D+00  0.0000000000000D+00  0.0000000000000D+00
380  3.7900000000000D+00  0.0000000000000D+00  0.0000000000000D+00
381  3.8000000000000D+00  0.0000000000000D+00  0.0000000000000D+00
382  3.8100000000000D+00  0.0000000000000D+00  0.0000000000000D+00
383  3.8200000000000D+00  0.0000000000000D+00  0.0000000000000D+00
384  3.8300000000000D+00  0.0000000000000D+00  0.0000000000000D+00
385  3.8400000000000D+00  0.0000000000000D+00  0.0000000000000D+00
386  3.8500000000000D+00  0.0000000000000D+00  0.0000000000000D+00
387  3.8600000000000D+00  0.0000000000000D+00  0.0000000000000D+00
388  3.8700000000000D+00  0.0000000000000D+00  0.0000000000000D+00
389  3.8800000000000D+00  0.0000000000000D+00  0.0000000000000D+00
390  3.8900000000000D+00  0.0000000000000D+00  0.0000000000000D+00
391  3.9000000000000D+00  0.0000000000000D+00  0.0000000000000D+00
392  3.9100000000000D+00  0.0000000000000D+00  0.0000000000000D+00
393  3.9200000000000D+00  0.0000000000000D+00  0.0000000000000D+00
394  3.9300000000000D+00  0.0000000000000D+00  0.0000000000000D+00
395  3.9400000000000D+00  0.0000000000000D+00  0.0000000000000D+00
396  3.9500000000000D+00  0.0000000000000D+00  0.0000000000000D+00
397  3.9600000000000D+00  0.0000000000000D+00  0.0000000000000D+00
398  3.9700000000000D+00  0.0000000000000D+00  0.0000000000000D+00
399  3.9800000000000D+00  0.0000000000000D+00  0.0000000000000D+00
400  3.9900000000000D+00  0.0000000000000D+00  0.0000000000000D+00
401  4.0000000000000D+00  0.0000000000000D+00  0.0000000000000D+00
402  4.0100000000000D+00  0.0000000000000D+00  0.0000000000000D+00
403  4.0200000000000D+00  0.0000000000000D+00  0.0000000000000D+00
404  4.0300000000000D+00  0.0000000000000D+00  0.0000000000000D+00
405  4.0400000000000D+00  0.0000000000000D+00  0.0000000000000D+00
406  4.0500000000000D+00  0.0000000000000D+00  0.0000000000000D+00
407  4.0600000000000D+00  0.0000000000000D+00  0.0000000000000D+00
408  4.0700000000000D+00  0.0000000000000D+00  0.0000000000000D+00
409  4.0800000000000D+00  0.0000000000000D+00  0.0000000000000D+00
410  4.0900000000000D+00  0.0000000000000D+00  0.0000000000000D+00
411  4.1000000000000D+00  0.0000000000000D+00  0.0000000000000D+00
412  4.1100000000000D+00  0.0000000000000D+00  0.0000000000000D+00
413  4.1200000000000D+00  0.0000000000000D+00  0.0000000000000D+00
414  4.1300000000000D+00  0.0000000000000D+00  0.0000000000000D+00
415  4.1400000000000D+00  0.0000000000000D+00  0.0000000000000D+00
416  4.1500000000000D+00  0.0000000000000D+00  0.0000000000000D+00
417  4.1600000000000D+00  0.0000000000000D+00  0.0000000000000D+00
418  4.1700000000000D+00  0.0000000000000D+00  0.0000000000000D+00
419  4.1800000000000D+00  0.0000000000000D+00  0.0000000000000D+00
420  4.1900000000000D+00  0.0000000000000D+00  0.0000000000000D+00
421  4.2000000000000D+00  0.0000000000000D+00  0.0000000000000D+00
422  4.2100000000000D+00  0.0000000000000D+00  0.0000000000000D+00
423  4.2200000000000D+00  0.0000000000000D+00  0.0000000000000D+00
424  4.2300000000000D+00  0.0000000000000D+00  0.0000000000000D+00
425  4.2400000000000D+00  0.0000000000000D+00  0.0000000000000D+00
426  4.2500000000000D+00  0.0000000000000D+00  0.0000000000000D+00
427  4.2600000000000D+00  0.0000000000000D+00  0.0000000000000D+00
428  4.2700000000000D+00  0.0000000000000D+00  0.0000000000000D+00
429  4.2800000000000D+00  0.0000000000000D+00  0.0000000000000D+00
430  4.2900000000000D+00  0.0000000000000D+00  0.0000000000000D+00
431  4.3000000000000D+00  0.0000000000000D+00  0.0000000000000D+00
432  4.3100000000000D+00  0.0000000000000D+00  0.0000000000000D+00
433  4.3200000000000D+00  0.0000000000000D+00  0.0000000000000D+00
434  4.3300000000000D+00  0.0000000000000D+00  0.0000000000000D+00
435  4.3400000000000D+00  0.0000000000000D+00  0.0000000000000D+00
436  4.3500000000000D+00  0.0000000000000D+00  0.0000000000000D+00
437  4.3600000000000D+00  0.0000000000000D+00  0.0000000000000D+00
438  4.3700000000000D+00  0.0000000000000D+00  0.0000000000000D+00
439  4.3800000000000D+00  0.0000000000000D+00  0.0000000000000D+00
440  4.3900000000000D+00  0.0000000000000D+00  0.0000000000000D+00
441  4.4000000000000D+00  0.0000000000000D+00  0.0000000000000D+00
442  4.4100000000000D+00  0.0000000000000D+00  0.0000000000000D+00
443  4.4200000000000D+00  0.0000000000000D+00  0.0000000000000D+00