Bi    ONCVPSP-3.3.0  r_core=   1.40250   1.50656   1.40250
83.0000     23.0000      171114    zatom,zion,pspd
8   -1012   2     4   600     0    pspcod,pspxc,lmax,lloc,mmax,r2well
5.99000000  6.00000000  0.00000000    rchrg fchrg qchrg
2     2     2     0     0    nproj
1     1           extension_switch
0                         1.7362499761127D+01  2.3686249411506D+00
1  0.0000000000000D+00 -8.7621221389611D-10  2.1683690953900D-09
2  1.0000000000000D-02  8.6733743580726D-02 -2.1974020319463D-02
3  2.0000000000000D-02  1.7320756099956D-01 -4.3690466761258D-02
4  3.0000000000000D-02  2.5916289483833D-01 -6.4894347556896D-02
5  4.0000000000000D-02  3.4434391018644D-01 -8.5335798945949D-02
6  5.0000000000000D-02  4.2849881867283D-01 -1.0477255921759D-01
7  6.0000000000000D-02  5.1138115846589D-01 -1.2297233636548D-01
8  7.0000000000000D-02  5.9275101661038D-01 -1.3971503648237D-01
9  8.0000000000000D-02  6.7237618094688D-01 -1.5479482218935D-01
10  9.0000000000000D-02  7.5003320992858D-01 -1.6802197304269D-01
11  1.0000000000000D-01  8.2550840989756D-01 -1.7922452294970D-01
12  1.1000000000000D-01  8.9859871078627D-01 -1.8824965310595D-01
13  1.2000000000000D-01  9.6911243275087D-01 -1.9496482278675D-01
14  1.3000000000000D-01  1.0368699378946D+00 -1.9925862442819D-01
15  1.4000000000000D-01  1.1017041629781D+00 -2.0104135375344D-01
16  1.5000000000000D-01  1.1634610308093D+00 -2.0024529017214D-01
17  1.6000000000000D-01  1.2219997398343D+00 -1.9682468723559D-01
18  1.7000000000000D-01  1.2771929332779D+00 -1.9075547749650D-01
19  1.8000000000000D-01  1.3289267509831D+00 -1.8203470062786D-01
20  1.9000000000000D-01  1.3771007688431D+00 -1.7067966803023D-01
21  2.0000000000000D-01  1.4216278323767D+00 -1.5672688132960D-01
22  2.1000000000000D-01  1.4624337925447D+00 -1.4023072607294D-01
23  2.2000000000000D-01  1.4994571533099D+00 -1.2126196550097D-01
24  2.3000000000000D-01  1.5326486416917D+00 -9.9906062458592D-02
25  2.4000000000000D-01  1.5619707121230D+00 -7.6261360239607D-02
26  2.5000000000000D-01  1.5873969977801D+00 -5.0437155405450D-02
27  2.6000000000000D-01  1.6089117221940D+00 -2.2551697328999D-02
28  2.7000000000000D-01  1.6265090848615D+00  7.2698496402637D-03
29  2.8000000000000D-01  1.6401926347452D+00  3.8897444936220D-02
30  2.9000000000000D-01  1.6499746454747D+00  7.2198175055069D-02
31  3.0000000000000D-01  1.6558755057412D+00  1.0703818560348D-01
32  3.1000000000000D-01  1.6579231378098D+00  1.4328450762914D-01
33  3.2000000000000D-01  1.6561524562759D+00  1.8080674560114D-01
34  3.3000000000000D-01  1.6506048781555D+00  2.1947859683248D-01
35  3.4000000000000D-01  1.6413278941658D+00  2.5917917509772D-01
36  3.5000000000000D-01  1.6283747096108D+00  2.9979411465584D-01
37  3.6000000000000D-01  1.6118039616813D+00  3.4121643479131D-01
38  3.7000000000000D-01  1.5916795182240D+00  3.8334714927651D-01
39  3.8000000000000D-01  1.5680703611555D+00  4.2609560977252D-01
40  3.9000000000000D-01  1.5410505557353D+00  4.6937957705063D-01
41  4.0000000000000D-01  1.5106993048886D+00  5.1312501895720D-01
42  4.1000000000000D-01  1.4771010857215D+00  5.5726563918010D-01
43  4.2000000000000D-01  1.4403458633406D+00  6.0174214602049D-01
44  4.3000000000000D-01  1.4005293750995D+00  6.4650127544547D-01
45  4.4000000000000D-01  1.3577534764917D+00  6.9149458760834D-01
46  4.5000000000000D-01  1.3121265381227D+00  7.3667706068909D-01
47  4.6000000000000D-01  1.2637638815597D+00  7.8200551024599D-01
48  4.7000000000000D-01  1.2127882404071D+00  8.2743686620112D-01
49  4.8000000000000D-01  1.1593302317192D+00  8.7292634303346D-01
50  4.9000000000000D-01  1.1035288218653D+00  9.1842554165634D-01
51  5.0000000000000D-01  1.0455317702311D+00  9.6388052375133D-01
52  5.1000000000000D-01  9.8549603369443D-01  1.0092299009648D+00
53  5.2000000000000D-01  9.2358811466613D-01  1.0544029823090D+00
54  5.3000000000000D-01  8.5998433565202D-01  1.0993180233078D+00
55  5.4000000000000D-01  7.9487102377527D-01  1.1438806198797D+00
56  5.5000000000000D-01  7.2844458949859D-01  1.1879822886334D+00
57  5.6000000000000D-01  6.6091148490493D-01  1.2314992731850D+00
58  5.7000000000000D-01  5.9248802831256D-01  1.2742916132988D+00
59  5.8000000000000D-01  5.2340008371989D-01  1.3162025101227D+00
60  5.9000000000000D-01  4.5388258554985D-01  1.3570580166167D+00
61  6.0000000000000D-01  3.8417890140490D-01  1.3966670774413D+00
62  6.1000000000000D-01  3.1454002797563D-01  1.4348219372428D+00
63  6.2000000000000D-01  2.4522361788900D-01  1.4712989304037D+00
64  6.3000000000000D-01  1.7649283804363D-01  1.5058596591245D+00
65  6.4000000000000D-01  1.0861506285993D-01  1.5382525601634D+00
66  6.5000000000000D-01  4.1860408812946D-02  1.5682148538204D+00
67  6.6000000000000D-01 -2.3499880447748D-02  1.5954748619580D+00
68  6.7000000000000D-01 -8.7195186164071D-02  1.6197546750190D+00
69  6.8000000000000D-01 -1.4895738866868D-01  1.6407731413324D+00
70  6.9000000000000D-01 -2.0852284596906D-01  1.6582491455609D+00
71  7.0000000000000D-01 -2.6563445645439D-01  1.6719051370646D+00
72  7.1000000000000D-01 -3.2004378316491D-01  1.6814708633094D+00
73  7.2000000000000D-01 -3.7151321505081D-01  1.6866872584036D+00
74  7.3000000000000D-01 -4.1981813893362D-01  1.6873104324324D+00
75  7.4000000000000D-01 -4.6474909452380D-01  1.6831157036121D+00
76  7.5000000000000D-01 -5.0611388386132D-01  1.6739016124474D+00
77  7.6000000000000D-01 -5.4373960597059D-01  1.6594938551424D+00
78  7.7000000000000D-01 -5.7747458737126D-01  1.6397490725242D+00
79  7.8000000000000D-01 -6.0719017937729D-01  1.6145584307323D+00
80  7.9000000000000D-01 -6.3278239385906D-01  1.5838509309284D+00
81  8.0000000000000D-01 -6.5417335033566D-01  1.5475963873078D+00
82  8.1000000000000D-01 -6.7131250890314D-01  1.5058080157261D+00
83  8.2000000000000D-01 -6.8417766557377D-01  1.4585445792764D+00
84  8.3000000000000D-01 -6.9277568908419D-01  1.4059120421241D+00
85  8.4000000000000D-01 -6.9714298109572D-01  1.3480646887670D+00
86  8.5000000000000D-01 -6.9734564492403D-01  1.2852056725630D+00
87  8.6000000000000D-01 -6.9347935146636D-01  1.2175869647913D+00
88  8.7000000000000D-01 -6.8566889477863D-01  1.1455086835501D+00
89  8.8000000000000D-01 -6.7406743376474D-01  1.0693177903755D+00
90  8.9000000000000D-01 -6.5885542058393D-01  9.8940615140208D-01
91  9.0000000000000D-01 -6.4023922065499D-01  9.0620796915568D-01
92  9.1000000000000D-01 -6.1844943341355D-01  8.2019660040220D-01
93  9.2000000000000D-01 -5.9373892724339D-01  7.3188078483214D-01
94  9.3000000000000D-01 -5.6638060616691D-01  6.4180031854232D-01
95  9.4000000000000D-01 -5.3666492988576D-01  5.5052121515404D-01
96  9.5000000000000D-01 -5.0489721254426D-01  4.5863040583320D-01
97  9.6000000000000D-01 -4.7139472908563D-01  3.6673003731385D-01
98  9.7000000000000D-01 -4.3648366122453D-01  2.7543143414018D-01
99  9.8000000000000D-01 -4.0049591781484D-01  1.8534879760629D-01
100  9.9000000000000D-01 -3.6376586670859D-01  9.7092719196835D-02
101  1.0000000000000D+00 -3.2662701700480D-01  1.1263590542131D-02
102  1.0100000000000D+00 -2.8940869189631D-01 -7.1555004966286D-02
103  1.0200000000000D+00 -2.5243273307460D-01 -1.5080283182463D-01
104  1.0300000000000D+00 -2.1601027779779D-01 -2.2594938567482D-01
105  1.0400000000000D+00 -1.8043864932874D-01 -2.9650003312064D-01
106  1.0500000000000D+00 -1.4599840041403D-01 -3.6200182306501D-01
107  1.0600000000000D+00 -1.1295054787169D-01 -4.2204888780486D-01
108  1.0700000000000D+00 -8.1534034333511D-02 -4.7628735633054D-01
109  1.0800000000000D+00 -5.1963450262280D-02 -5.2441970846820D-01
110  1.0900000000000D+00 -2.4427046347212D-02 -5.6620850494434D-01
111  1.1000000000000D+00  9.1493756385191D-04 -6.0147943692462D-01
112  1.1100000000000D+00  2.3931604580200D-02 -6.3012364665507D-01
113  1.1200000000000D+00  4.4522376190228D-02 -6.5209928095006D-01
114  1.1300000000000D+00  6.2617598135530D-02 -6.6743224989494D-01
115  1.1400000000000D+00  7.8178768876714D-02 -6.7621617400926D-01
116  1.1500000000000D+00  9.1198387760698D-02 -6.7861151396244D-01
117  1.1600000000000D+00  1.0169942514736D-01 -6.7484388818310D-01
118  1.1700000000000D+00  1.0973442267965D-01 -6.6520159668339D-01
119  1.1800000000000D+00  1.1538423690544D-01 -6.5003238043978D-01
120  1.1900000000000D+00  1.1875644355000D-01 -6.2973945464320D-01
121  1.2000000000000D+00  1.1998342590360D-01 -6.0477686767419D-01
122  1.2100000000000D+00  1.1922017497197D-01 -5.7564424686036D-01
123  1.2200000000000D+00  1.1664183298154D-01 -5.4288100074328D-01
124  1.2300000000000D+00  1.1244101509356D-01 -5.0706005476049D-01
125  1.2400000000000D+00  1.0682494904636D-01 -4.6878120795160D-01
126  1.2500000000000D+00  1.0001247390760D-01 -4.2866420150295D-01
127  1.2600000000000D+00  9.2230941192588D-02 -3.8734159459320D-01
128  1.2700000000000D+00  8.3713067299857D-02 -3.4545155625615D-01
129  1.2800000000000D+00  7.4693783562756D-02 -3.0363067473768D-01
130  1.2900000000000D+00  6.5407030198418D-02 -2.6250664056678D-01
131  1.3000000000000D+00  5.6082809595529D-02 -2.2269156463663D-01
132  1.3100000000000D+00  4.6944823190497D-02 -1.8477676573638D-01
133  1.3200000000000D+00  3.8204442456385D-02 -1.4931826804015D-01
134  1.3300000000000D+00  3.0054971935292D-02 -1.1682313706099D-01
135  1.3400000000000D+00  2.2665666670088D-02 -8.7735319438505D-02
136  1.3500000000000D+00  1.6179397567835D-02 -6.2430624986070D-02
137  1.3600000000000D+00  1.0714466683276D-02 -4.1226589415715D-02
138  1.3700000000000D+00  6.3434238927952D-03 -2.4304658038376D-02
139  1.3800000000000D+00  3.1136000861088D-03 -1.1792363815070D-02
140  1.3900000000000D+00  1.1596856491765D-03 -4.1714402969123D-03
141  1.4000000000000D+00  3.1036179507068D-04 -8.5177873957301D-04
142  1.4100000000000D+00  4.2948152374387D-05  2.8223802161513D-05
143  1.4200000000000D+00 -2.0325081418633D-07 -6.0259408749030D-06
144  1.4300000000000D+00  2.6086860051102D-06 -4.0591770328458D-05
145  1.4400000000000D+00  5.0467847449421D-07  3.7688871892563D-06
146  1.4500000000000D+00  2.1190653625494D-07  3.7170203647360D-06
147  1.4600000000000D+00 -5.6865956507599D-07  1.3019258440985D-06
148  1.4700000000000D+00 -1.0535772239907D-07  2.4121275731708D-07
149  1.4800000000000D+00  0.0000000000000D+00  0.0000000000000D+00
150  1.4900000000000D+00  0.0000000000000D+00  0.0000000000000D+00
151  1.5000000000000D+00  0.0000000000000D+00  0.0000000000000D+00
152  1.5100000000000D+00  0.0000000000000D+00  0.0000000000000D+00
153  1.5200000000000D+00  0.0000000000000D+00  0.0000000000000D+00
154  1.5300000000000D+00  0.0000000000000D+00  0.0000000000000D+00
155  1.5400000000000D+00  0.0000000000000D+00  0.0000000000000D+00
156  1.5500000000000D+00  0.0000000000000D+00  0.0000000000000D+00
157  1.5600000000000D+00  0.0000000000000D+00  0.0000000000000D+00
158  1.5700000000000D+00  0.0000000000000D+00  0.0000000000000D+00
159  1.5800000000000D+00  0.0000000000000D+00  0.0000000000000D+00
160  1.5900000000000D+00  0.0000000000000D+00  0.0000000000000D+00
161  1.6000000000000D+00  0.0000000000000D+00  0.0000000000000D+00
162  1.6100000000000D+00  0.0000000000000D+00  0.0000000000000D+00
163  1.6200000000000D+00  0.0000000000000D+00  0.0000000000000D+00
164  1.6300000000000D+00  0.0000000000000D+00  0.0000000000000D+00
165  1.6400000000000D+00  0.0000000000000D+00  0.0000000000000D+00
166  1.6500000000000D+00  0.0000000000000D+00  0.0000000000000D+00
167  1.6600000000000D+00  0.0000000000000D+00  0.0000000000000D+00
168  1.6700000000000D+00  0.0000000000000D+00  0.0000000000000D+00
169  1.6800000000000D+00  0.0000000000000D+00  0.0000000000000D+00
170  1.6900000000000D+00  0.0000000000000D+00  0.0000000000000D+00
171  1.7000000000000D+00  0.0000000000000D+00  0.0000000000000D+00
172  1.7100000000000D+00  0.0000000000000D+00  0.0000000000000D+00
173  1.7200000000000D+00  0.0000000000000D+00  0.0000000000000D+00
174  1.7300000000000D+00  0.0000000000000D+00  0.0000000000000D+00
175  1.7400000000000D+00  0.0000000000000D+00  0.0000000000000D+00
176  1.7500000000000D+00  0.0000000000000D+00  0.0000000000000D+00
177  1.7600000000000D+00  0.0000000000000D+00  0.0000000000000D+00
178  1.7700000000000D+00  0.0000000000000D+00  0.0000000000000D+00
179  1.7800000000000D+00  0.0000000000000D+00  0.0000000000000D+00
180  1.7900000000000D+00  0.0000000000000D+00  0.0000000000000D+00
181  1.8000000000000D+00  0.0000000000000D+00  0.0000000000000D+00
182  1.8100000000000D+00  0.0000000000000D+00  0.0000000000000D+00
183  1.8200000000000D+00  0.0000000000000D+00  0.0000000000000D+00
184  1.8300000000000D+00  0.0000000000000D+00  0.0000000000000D+00
185  1.8400000000000D+00  0.0000000000000D+00  0.0000000000000D+00
186  1.8500000000000D+00  0.0000000000000D+00  0.0000000000000D+00
187  1.8600000000000D+00  0.0000000000000D+00  0.0000000000000D+00
188  1.8700000000000D+00  0.0000000000000D+00  0.0000000000000D+00
189  1.8800000000000D+00  0.0000000000000D+00  0.0000000000000D+00
190  1.8900000000000D+00  0.0000000000000D+00  0.0000000000000D+00
191  1.9000000000000D+00  0.0000000000000D+00  0.0000000000000D+00
192  1.9100000000000D+00  0.0000000000000D+00  0.0000000000000D+00
193  1.9200000000000D+00  0.0000000000000D+00  0.0000000000000D+00
194  1.9300000000000D+00  0.0000000000000D+00  0.0000000000000D+00
195  1.9400000000000D+00  0.0000000000000D+00  0.0000000000000D+00
196  1.9500000000000D+00  0.0000000000000D+00  0.0000000000000D+00
197  1.9600000000000D+00  0.0000000000000D+00  0.0000000000000D+00
198  1.9700000000000D+00  0.0000000000000D+00  0.0000000000000D+00
199  1.9800000000000D+00  0.0000000000000D+00  0.0000000000000D+00
200  1.9900000000000D+00  0.0000000000000D+00  0.0000000000000D+00
201  2.0000000000000D+00  0.0000000000000D+00  0.0000000000000D+00
202  2.0100000000000D+00  0.0000000000000D+00  0.0000000000000D+00
203  2.0200000000000D+00  0.0000000000000D+00  0.0000000000000D+00
204  2.0300000000000D+00  0.0000000000000D+00  0.0000000000000D+00
205  2.0400000000000D+00  0.0000000000000D+00  0.0000000000000D+00
206  2.0500000000000D+00  0.0000000000000D+00  0.0000000000000D+00
207  2.0600000000000D+00  0.0000000000000D+00  0.0000000000000D+00
208  2.0700000000000D+00  0.0000000000000D+00  0.0000000000000D+00
209  2.0800000000000D+00  0.0000000000000D+00  0.0000000000000D+00
210  2.0900000000000D+00  0.0000000000000D+00  0.0000000000000D+00
211  2.1000000000000D+00  0.0000000000000D+00  0.0000000000000D+00
212  2.1100000000000D+00  0.0000000000000D+00  0.0000000000000D+00
213  2.1200000000000D+00  0.0000000000000D+00  0.0000000000000D+00
214  2.1300000000000D+00  0.0000000000000D+00  0.0000000000000D+00
215  2.1400000000000D+00  0.0000000000000D+00  0.0000000000000D+00
216  2.1500000000000D+00  0.0000000000000D+00  0.0000000000000D+00
217  2.1600000000000D+00  0.0000000000000D+00  0.0000000000000D+00
218  2.1700000000000D+00  0.0000000000000D+00  0.0000000000000D+00
219  2.1800000000000D+00  0.0000000000000D+00  0.0000000000000D+00
220  2.1900000000000D+00  0.0000000000000D+00  0.0000000000000D+00
221  2.2000000000000D+00  0.0000000000000D+00  0.0000000000000D+00
222  2.2100000000000D+00  0.0000000000000D+00  0.0000000000000D+00
223  2.2200000000000D+00  0.0000000000000D+00  0.0000000000000D+00
224  2.2300000000000D+00  0.0000000000000D+00  0.0000000000000D+00
225  2.2400000000000D+00  0.0000000000000D+00  0.0000000000000D+00
226  2.2500000000000D+00  0.0000000000000D+00  0.0000000000000D+00
227  2.2600000000000D+00  0.0000000000000D+00  0.0000000000000D+00
228  2.2700000000000D+00  0.0000000000000D+00  0.0000000000000D+00
229  2.2800000000000D+00  0.0000000000000D+00  0.0000000000000D+00
230  2.2900000000000D+00  0.0000000000000D+00  0.0000000000000D+00
231  2.3000000000000D+00  0.0000000000000D+00  0.0000000000000D+00
232  2.3100000000000D+00  0.0000000000000D+00  0.0000000000000D+00
233  2.3200000000000D+00  0.0000000000000D+00  0.0000000000000D+00
234  2.3300000000000D+00  0.0000000000000D+00  0.0000000000000D+00
235  2.3400000000000D+00  0.0000000000000D+00  0.0000000000000D+00
236  2.3500000000000D+00  0.0000000000000D+00  0.0000000000000D+00
237  2.3600000000000D+00  0.0000000000000D+00  0.0000000000000D+00
238  2.3700000000000D+00  0.0000000000000D+00  0.0000000000000D+00
239  2.3800000000000D+00  0.0000000000000D+00  0.0000000000000D+00
240  2.3900000000000D+00  0.0000000000000D+00  0.0000000000000D+00
241  2.4000000000000D+00  0.0000000000000D+00  0.0000000000000D+00
242  2.4100000000000D+00  0.0000000000000D+00  0.0000000000000D+00
243  2.4200000000000D+00  0.0000000000000D+00  0.0000000000000D+00
244  2.4300000000000D+00  0.0000000000000D+00  0.0000000000000D+00
245  2.4400000000000D+00  0.0000000000000D+00  0.0000000000000D+00
246  2.4500000000000D+00  0.0000000000000D+00  0.0000000000000D+00
247  2.4600000000000D+00  0.0000000000000D+00  0.0000000000000D+00
248  2.4700000000000D+00  0.0000000000000D+00  0.0000000000000D+00
249  2.4800000000000D+00  0.0000000000000D+00  0.0000000000000D+00
250  2.4900000000000D+00  0.0000000000000D+00  0.0000000000000D+00
251  2.5000000000000D+00  0.0000000000000D+00  0.0000000000000D+00
252  2.5100000000000D+00  0.0000000000000D+00  0.0000000000000D+00
253  2.5200000000000D+00  0.0000000000000D+00  0.0000000000000D+00
254  2.5300000000000D+00  0.0000000000000D+00  0.0000000000000D+00
255  2.5400000000000D+00  0.0000000000000D+00  0.0000000000000D+00
256  2.5500000000000D+00  0.0000000000000D+00  0.0000000000000D+00
257  2.5600000000000D+00  0.0000000000000D+00  0.0000000000000D+00
258  2.5700000000000D+00  0.0000000000000D+00  0.0000000000000D+00
259  2.5800000000000D+00  0.0000000000000D+00  0.0000000000000D+00
260  2.5900000000000D+00  0.0000000000000D+00  0.0000000000000D+00
261  2.6000000000000D+00  0.0000000000000D+00  0.0000000000000D+00
262  2.6100000000000D+00  0.0000000000000D+00  0.0000000000000D+00
263  2.6200000000000D+00  0.0000000000000D+00  0.0000000000000D+00
264  2.6300000000000D+00  0.0000000000000D+00  0.0000000000000D+00
265  2.6400000000000D+00  0.0000000000000D+00  0.0000000000000D+00
266  2.6500000000000D+00  0.0000000000000D+00  0.0000000000000D+00
267  2.6600000000000D+00  0.0000000000000D+00  0.0000000000000D+00
268  2.6700000000000D+00  0.0000000000000D+00  0.0000000000000D+00
269  2.6800000000000D+00  0.0000000000000D+00  0.0000000000000D+00
270  2.6900000000000D+00  0.0000000000000D+00  0.0000000000000D+00
271  2.7000000000000D+00  0.0000000000000D+00  0.0000000000000D+00
272  2.7100000000000D+00  0.0000000000000D+00  0.0000000000000D+00
273  2.7200000000000D+00  0.0000000000000D+00  0.0000000000000D+00
274  2.7300000000000D+00  0.0000000000000D+00  0.0000000000000D+00
275  2.7400000000000D+00  0.0000000000000D+00  0.0000000000000D+00
276  2.7500000000000D+00  0.0000000000000D+00  0.0000000000000D+00
277  2.7600000000000D+00  0.0000000000000D+00  0.0000000000000D+00
278  2.7700000000000D+00  0.0000000000000D+00  0.0000000000000D+00
279  2.7800000000000D+00  0.0000000000000D+00  0.0000000000000D+00
280  2.7900000000000D+00  0.0000000000000D+00  0.0000000000000D+00
281  2.8000000000000D+00  0.0000000000000D+00  0.0000000000000D+00
282  2.8100000000000D+00  0.0000000000000D+00  0.0000000000000D+00
283  2.8200000000000D+00  0.0000000000000D+00  0.0000000000000D+00
284  2.8300000000000D+00  0.0000000000000D+00  0.0000000000000D+00
285  2.8400000000000D+00  0.0000000000000D+00  0.0000000000000D+00
286  2.8500000000000D+00  0.0000000000000D+00  0.0000000000000D+00
287  2.8600000000000D+00  0.0000000000000D+00  0.0000000000000D+00
288  2.8700000000000D+00  0.0000000000000D+00  0.0000000000000D+00
289  2.8800000000000D+00  0.0000000000000D+00  0.0000000000000D+00
290  2.8900000000000D+00  0.0000000000000D+00  0.0000000000000D+00
291  2.9000000000000D+00  0.0000000000000D+00  0.0000000000000D+00
292  2.9100000000000D+00  0.0000000000000D+00  0.0000000000000D+00
293  2.9200000000000D+00  0.0000000000000D+00  0.0000000000000D+00
294  2.9300000000000D+00  0.0000000000000D+00  0.0000000000000D+00
295  2.9400000000000D+00  0.0000000000000D+00  0.0000000000000D+00
296  2.9500000000000D+00  0.0000000000000D+00  0.0000000000000D+00
297  2.9600000000000D+00  0.0000000000000D+00  0.0000000000000D+00
298  2.9700000000000D+00  0.0000000000000D+00  0.0000000000000D+00
299  2.9800000000000D+00  0.0000000000000D+00  0.0000000000000D+00
300  2.9900000000000D+00  0.0000000000000D+00  0.0000000000000D+00
301  3.0000000000000D+00  0.0000000000000D+00  0.0000000000000D+00
302  3.0100000000000D+00  0.0000000000000D+00  0.0000000000000D+00
303  3.0200000000000D+00  0.0000000000000D+00  0.0000000000000D+00
304  3.0300000000000D+00  0.0000000000000D+00  0.0000000000000D+00
305  3.0400000000000D+00  0.0000000000000D+00  0.0000000000000D+00
306  3.0500000000000D+00  0.0000000000000D+00  0.0000000000000D+00
307  3.0600000000000D+00  0.0000000000000D+00  0.0000000000000D+00
308  3.0700000000000D+00  0.0000000000000D+00  0.0000000000000D+00
309  3.0800000000000D+00  0.0000000000000D+00  0.0000000000000D+00
310  3.0900000000000D+00  0.0000000000000D+00  0.0000000000000D+00
311  3.1000000000000D+00  0.0000000000000D+00  0.0000000000000D+00
312  3.1100000000000D+00  0.0000000000000D+00  0.0000000000000D+00
313  3.1200000000000D+00  0.0000000000000D+00  0.0000000000000D+00
314  3.1300000000000D+00  0.0000000000000D+00  0.0000000000000D+00
315  3.1400000000000D+00  0.0000000000000D+00  0.0000000000000D+00
316  3.1500000000000D+00  0.0000000000000D+00  0.0000000000000D+00
317  3.1600000000000D+00  0.0000000000000D+00  0.0000000000000D+00
318  3.1700000000000D+00  0.0000000000000D+00  0.0000000000000D+00
319  3.1800000000000D+00  0.0000000000000D+00  0.0000000000000D+00
320  3.1900000000000D+00  0.0000000000000D+00  0.0000000000000D+00
321  3.2000000000000D+00  0.0000000000000D+00  0.0000000000000D+00
322  3.2100000000000D+00  0.0000000000000D+00  0.0000000000000D+00
323  3.2200000000000D+00  0.0000000000000D+00  0.0000000000000D+00
324  3.2300000000000D+00  0.0000000000000D+00  0.0000000000000D+00
325  3.2400000000000D+00  0.0000000000000D+00  0.0000000000000D+00
326  3.2500000000000D+00  0.0000000000000D+00  0.0000000000000D+00
327  3.2600000000000D+00  0.0000000000000D+00  0.0000000000000D+00
328  3.2700000000000D+00  0.0000000000000D+00  0.0000000000000D+00
329  3.2800000000000D+00  0.0000000000000D+00  0.0000000000000D+00
330  3.2900000000000D+00  0.0000000000000D+00  0.0000000000000D+00
331  3.3000000000000D+00  0.0000000000000D+00  0.0000000000000D+00
332  3.3100000000000D+00  0.0000000000000D+00  0.0000000000000D+00
333  3.3200000000000D+00  0.0000000000000D+00  0.0000000000000D+00
334  3.3300000000000D+00  0.0000000000000D+00  0.0000000000000D+00
335  3.3400000000000D+00  0.0000000000000D+00  0.0000000000000D+00
336  3.3500000000000D+00  0.0000000000000D+00  0.0000000000000D+00
337  3.3600000000000D+00  0.0000000000000D+00  0.0000000000000D+00
338  3.3700000000000D+00  0.0000000000000D+00  0.0000000000000D+00
339  3.3800000000000D+00  0.0000000000000D+00  0.0000000000000D+00
340  3.3900000000000D+00  0.0000000000000D+00  0.0000000000000D+00
341  3.4000000000000D+00  0.0000000000000D+00  0.0000000000000D+00
342  3.4100000000000D+00  0.0000000000000D+00  0.0000000000000D+00
343  3.4200000000000D+00  0.0000000000000D+00  0.0000000000000D+00
344  3.4300000000000D+00  0.0000000000000D+00  0.0000000000000D+00
345  3.4400000000000D+00  0.0000000000000D+00  0.0000000000000D+00
346  3.4500000000000D+00  0.0000000000000D+00  0.0000000000000D+00
347  3.4600000000000D+00  0.0000000000000D+00  0.0000000000000D+00
348  3.4700000000000D+00  0.0000000000000D+00  0.0000000000000D+00
349  3.4800000000000D+00  0.0000000000000D+00  0.0000000000000D+00
350  3.4900000000000D+00  0.0000000000000D+00  0.0000000000000D+00
351  3.5000000000000D+00  0.0000000000000D+00  0.0000000000000D+00
352  3.5100000000000D+00  0.0000000000000D+00  0.0000000000000D+00
353  3.5200000000000D+00  0.0000000000000D+00  0.0000000000000D+00
354  3.5300000000000D+00  0.0000000000000D+00  0.0000000000000D+00
355  3.5400000000000D+00  0.0000000000000D+00  0.0000000000000D+00
356  3.5500000000000D+00  0.0000000000000D+00  0.0000000000000D+00
357  3.5600000000000D+00  0.0000000000000D+00  0.0000000000000D+00
358  3.5700000000000D+00  0.0000000000000D+00  0.0000000000000D+00
359  3.5800000000000D+00  0.0000000000000D+00  0.0000000000000D+00
360  3.5900000000000D+00  0.0000000000000D+00  0.0000000000000D+00
361  3.6000000000000D+00  0.0000000000000D+00  0.0000000000000D+00
362  3.6100000000000D+00  0.0000000000000D+00  0.0000000000000D+00
363  3.6200000000000D+00  0.0000000000000D+00  0.0000000000000D+00
364  3.6300000000000D+00  0.0000000000000D+00  0.0000000000000D+00
365  3.6400000000000D+00  0.0000000000000D+00  0.0000000000000D+00
366  3.6500000000000D+00  0.0000000000000D+00  0.0000000000000D+00
367  3.6600000000000D+00  0.0000000000000D+00  0.0000000000000D+00
368  3.6700000000000D+00  0.0000000000000D+00  0.0000000000000D+00
369  3.6800000000000D+00  0.0000000000000D+00  0.0000000000000D+00
370  3.6900000000000D+00  0.0000000000000D+00  0.0000000000000D+00
371  3.7000000000000D+00  0.0000000000000D+00  0.0000000000000D+00
372  3.7100000000000D+00  0.0000000000000D+00  0.0000000000000D+00
373  3.7200000000000D+00  0.0000000000000D+00  0.0000000000000D+00
374  3.7300000000000D+00  0.0000000000000D+00  0.0000000000000D+00
375  3.7400000000000D+00  0.0000000000000D+00  0.0000000000000D+00
376  3.7500000000000D+00  0.0000000000000D+00  0.0000000000000D+00
377  3.7600000000000D+00  0.0000000000000D+00  0.0000000000000D+00
378  3.7700000000000D+00  0.0000000000000D+00  0.0000000000000D+00
379  3.7800000000000D+00  0.0000000000000D+00  0.0000000000000D+00
380  3.7900000000000D+00  0.0000000000000D+00  0.0000000000000D+00
381  3.8000000000000D+00  0.0000000000000D+00  0.0000000000000D+00
382  3.8100000000000D+00  0.0000000000000D+00  0.0000000000000D+00
383  3.8200000000000D+00  0.0000000000000D+00  0.0000000000000D+00
384  3.8300000000000D+00  0.0000000000000D+00  0.0000000000000D+00
385  3.8400000000000D+00  0.0000000000000D+00  0.0000000000000D+00
386  3.8500000000000D+00  0.0000000000000D+00  0.0000000000000D+00
387  3.8600000000000D+00  0.0000000000000D+00  0.0000000000000D+00
388  3.8700000000000D+00  0.0000000000000D+00  0.0000000000000D+00
389  3.8800000000000D+00  0.0000000000000D+00  0.0000000000000D+00
390  3.8900000000000D+00  0.0000000000000D+00  0.0000000000000D+00
391  3.9000000000000D+00  0.0000000000000D+00  0.0000000000000D+00
392  3.9100000000000D+00  0.0000000000000D+00  0.0000000000000D+00
393  3.9200000000000D+00  0.0000000000000D+00  0.0000000000000D+00
394  3.9300000000000D+00  0.0000000000000D+00  0.0000000000000D+00
395  3.9400000000000D+00  0.0000000000000D+00  0.0000000000000D+00
396  3.9500000000000D+00  0.0000000000000D+00  0.0000000000000D+00
397  3.9600000000000D+00  0.0000000000000D+00  0.0000000000000D+00
398  3.9700000000000D+00  0.0000000000000D+00  0.0000000000000D+00
399  3.9800000000000D+00  0.0000000000000D+00  0.0000000000000D+00
400  3.9900000000000D+00  0.0000000000000D+00  0.0000000000000D+00
401  4.0000000000000D+00  0.0000000000000D+00  0.0000000000000D+00
402  4.0100000000000D+00  0.0000000000000D+00  0.0000000000000D+00
403  4.0200000000000D+00  0.0000000000000D+00  0.0000000000000D+00
404  4.0300000000000D+00  0.0000000000000D+00  0.0000000000000D+00
405  4.0400000000000D+00  0.0000000000000D+00  0.0000000000000D+00
406  4.0500000000000D+00  0.0000000000000D+00  0.0000000000000D+00
407  4.0600000000000D+00  0.0000000000000D+00  0.0000000000000D+00
408  4.0700000000000D+00  0.0000000000000D+00  0.0000000000000D+00
409  4.0800000000000D+00  0.0000000000000D+00  0.0000000000000D+00
410  4.0900000000000D+00  0.0000000000000D+00  0.0000000000000D+00
411  4.1000000000000D+00  0.0000000000000D+00  0.0000000000000D+00
412  4.1100000000000D+00  0.0000000000000D+00  0.0000000000000D+00
413  4.1200000000000D+00  0.0000000000000D+00  0.0000000000000D+00
414  4.1300000000000D+00  0.0000000000000D+00  0.0000000000000D+00
415  4.1400000000000D+00  0.0000000000000D+00  0.0000000000000D+00
416  4.1500000000000D+00  0.0000000000000D+00  0.0000000000000D+00
417  4.1600000000000D+00  0.0000000000000D+00  0.0000000000000D+00
418  4.1700000000000D+00  0.0000000000000D+00  0.0000000000000D+00
419  4.1800000000000D+00  0.0000000000000D+00  0.0000000000000D+00
420  4.1900000000000D+00  0.0000000000000D+00  0.0000000000000D+00
421  4.2000000000000D+00  0.0000000000000D+00  0.0000000000000D+00
422  4.2100000000000D+00  0.0000000000000D+00  0.0000000000000D+00
423  4.2200000000000D+00  0.0000000000000D+00  0.0000000000000D+00
424  4.2300000000000D+00  0.0000000000000D+00  0.0000000000000D+00
425  4.2400000000000D+00  0.0000000000000D+00  0.0000000000000D+00
426  4.2500000000000D+00  0.0000000000000D+00  0.0000000000000D+00
427  4.2600000000000D+00  0.0000000000000D+00  0.0000000000000D+00
428  4.2700000000000D+00  0.0000000000000D+00  0.0000000000000D+00
429  4.2800000000000D+00  0.0000000000000D+00  0.0000000000000D+00
430  4.2900000000000D+00  0.0000000000000D+00  0.0000000000000D+00
431  4.3000000000000D+00  0.0000000000000D+00  0.0000000000000D+00
432  4.3100000000000D+00  0.0000000000000D+00  0.0000000000000D+00
433  4.3200000000000D+00  0.0000000000000D+00  0.0000000000000D+00
434  4.3300000000000D+00  0.0000000000000D+00  0.0000000000000D+00
435  4.3400000000000D+00  0.0000000000000D+00  0.0000000000000D+00
436  4.3500000000000D+00  0.0000000000000D+00  0.0000000000000D+00
437  4.3600000000000D+00  0.0000000000000D+00  0.0000000000000D+00
438  4.3700000000000D+00  0.0000000000000D+00  0.0000000000000D+00
439  4.3800000000000D+00  0.0000000000000D+00  0.0000000000000D+00
440  4.3900000000000D+00  0.0000000000000D+00  0.0000000000000D+00
441  4.4000000000000D+00  0.0000000000000D+00  0.0000000000000D+00
442  4.4100000000000D+00  0.0000000000000D+00  0.0000000000000D+00
443  4.4200000000000D+00  0.0000000000000D+00  0.0000000000000D+00