Tb    ONCVPSP-3.2.3.1  r_core=   1.81238   1.51545   1.66719   1.70744
65.0000     19.0000      170524    zatom,zion,pspd
8      11   3     4   600     0    pspcod,pspxc,lmax,lloc,mmax,r2well
5.99000000  0.25000000  0.00000000    rchrg fchrg qchrg
2     2     2     2     0    nproj
1     1           extension_switch
0                         8.7985509339007D+00  5.6109715156575D-01
1  0.0000000000000D+00 -4.6462056424446D-11  3.4000227633335D-10
2  1.0000000000000D-02  4.7485829350928D-02 -2.3869682489074D-02
3  2.0000000000000D-02  9.4912935938118D-02 -4.7602080411352D-02
4  3.0000000000000D-02  1.4222274406223D-01 -7.1060942823310D-02
5  4.0000000000000D-02  1.8935697102780D-01 -9.4112076557925D-02
6  5.0000000000000D-02  2.3625777084487D-01 -1.1662435152467D-01
7  6.0000000000000D-02  2.8286787460334D-01 -1.3847067794604D-01
8  7.0000000000000D-02  3.2913072646607D-01 -1.5952894657788D-01
9  8.0000000000000D-02  3.7499061427312D-01 -1.7968292330104D-01
10  9.0000000000000D-02  4.2039279380663D-01 -1.9882308989114D-01
11  1.0000000000000D-01  4.6528360583355D-01 -2.1684742326898D-01
12  1.1000000000000D-01  5.0961058512029D-01 -2.3366210610136D-01
13  1.2000000000000D-01  5.5332256069916D-01 -2.4918216225601D-01
14  1.3000000000000D-01  5.9636974676045D-01 -2.6333201130993D-01
15  1.4000000000000D-01  6.3870382364469D-01 -2.7604593706110D-01
16  1.5000000000000D-01  6.8027800851671D-01 -2.8726846579330D-01
17  1.6000000000000D-01  7.2104711541503D-01 -2.9695465088509D-01
18  1.7000000000000D-01  7.6096760448574D-01 -3.0507026122986D-01
19  1.8000000000000D-01  7.9999762032875D-01 -3.1159187183661D-01
20  1.9000000000000D-01  8.3809701950414D-01 -3.1650685590232D-01
21  2.0000000000000D-01  8.7522738736645D-01 -3.1981327857827D-01
22  2.1000000000000D-01  9.1135204451414D-01 -3.2151969358641D-01
23  2.2000000000000D-01  9.4643604325810D-01 -3.2164484476919D-01
24  2.3000000000000D-01  9.8044615462658D-01 -3.2021727556793D-01
25  2.4000000000000D-01  1.0133508465323D+00 -3.1727485031354D-01
26  2.5000000000000D-01  1.0451202538298D+00 -3.1286419207013D-01
27  2.6000000000000D-01  1.0757261410871D+00 -3.0704004258807D-01
28  2.7000000000000D-01  1.1051418589813D+00 -2.9986455069229D-01
29  2.8000000000000D-01  1.1333422953066D+00 -2.9140649614372D-01
30  2.9000000000000D-01  1.1603038216490D+00 -2.8174045666293D-01
31  3.0000000000000D-01  1.1860042368395D+00 -2.7094592638511D-01
32  3.1000000000000D-01  1.2104227083387D+00 -2.5910639452146D-01
33  3.2000000000000D-01  1.2335397127391D+00 -2.4630839342606D-01
34  3.3000000000000D-01  1.2553369765863D+00 -2.3264052560583D-01
35  3.4000000000000D-01  1.2757974187262D+00 -2.1819247945994D-01
36  3.5000000000000D-01  1.2949050953725D+00 -2.0305404368914D-01
37  3.6000000000000D-01  1.3126451490649D+00 -1.8731413037629D-01
38  3.7000000000000D-01  1.3290037626472D+00 -1.7105981669929D-01
39  3.8000000000000D-01  1.3439681193434D+00 -1.5437541510245D-01
40  3.9000000000000D-01  1.3575263699380D+00 -1.3734158151661D-01
41  4.0000000000000D-01  1.3696676079880D+00 -1.2003447088710D-01
42  4.1000000000000D-01  1.3803818538973D+00 -1.0252494884142D-01
43  4.2000000000000D-01  1.3896600485777D+00 -8.4877867810289D-02
44  4.3000000000000D-01  1.3974940573009D+00 -6.7151415308319D-02
45  4.4000000000000D-01  1.4038766842179D+00 -4.9396541391276D-02
46  4.5000000000000D-01  1.4088016978815D+00 -3.1656471539037D-02
47  4.6000000000000D-01  1.4122638679625D+00 -1.3966310376000D-02
48  4.7000000000000D-01  1.4142590131943D+00  3.6472592610159D-03
49  4.8000000000000D-01  1.4147840604263D+00  2.1166178352764D-02
50  4.9000000000000D-01  1.4138371144979D+00  3.8581112273525D-02
51  5.0000000000000D-01  1.4114175384884D+00  5.5891448398558D-02
52  5.1000000000000D-01  1.4075260437280D+00  7.3105190293998D-02
53  5.2000000000000D-01  1.4021647887973D+00  9.0238749119301D-02
54  5.3000000000000D-01  1.3953374865845D+00  1.0731663395694D-01
55  5.4000000000000D-01  1.3870495183147D+00  1.2437104386199D-01
56  5.5000000000000D-01  1.3773080533243D+00  1.4144136548320D-01
57  5.6000000000000D-01  1.3661221732184D+00  1.5857358113622D-01
58  5.7000000000000D-01  1.3535029989237D+00  1.7581959319940D-01
59  5.8000000000000D-01  1.3394638190423D+00  1.9323647163591D-01
60  5.9000000000000D-01  1.3240202178159D+00  2.1088563232164D-01
61  6.0000000000000D-01  1.3071902009307D+00  2.2883195465340D-01
62  6.1000000000000D-01  1.2889943173358D+00  2.4714284763047D-01
63  6.2000000000000D-01  1.2694557752047D+00  2.6588727422150D-01
64  6.3000000000000D-01  1.2486005501521D+00  2.8513474435217D-01
65  6.4000000000000D-01  1.2264574838174D+00  3.0495428725999D-01
66  6.5000000000000D-01  1.2030583709543D+00  3.2541341426001D-01
67  6.6000000000000D-01  1.1784380332071D+00  3.4657708314349D-01
68  6.7000000000000D-01  1.1526343778318D+00  3.6850667548270D-01
69  6.8000000000000D-01  1.1256884397066D+00  3.9125899804457D-01
70  6.9000000000000D-01  1.0976444050967D+00  4.1488531931090D-01
71  7.0000000000000D-01  1.0685496157774D+00  4.3943045177665D-01
72  7.1000000000000D-01  1.0384545522766D+00  4.6493189024059D-01
73  7.2000000000000D-01  1.0074127951817D+00  4.9141901572854D-01
74  7.3000000000000D-01  9.7548096365536D-01  5.1891237399036D-01
75  7.4000000000000D-01  9.4271863051958D-01  5.4742303670883D-01
76  7.5000000000000D-01  9.0918821350461D-01  5.7695205264776D-01
77  7.6000000000000D-01  8.7495484250169D-01  6.0748999496338D-01
78  7.7000000000000D-01  8.4008620291787D-01  6.3901660981708D-01
79  7.8000000000000D-01  8.0465235549520D-01  6.7150057027211D-01
80  7.9000000000000D-01  7.6872553322805D-01  7.0489933823880D-01
81  8.0000000000000D-01  7.3237991628424D-01  7.3915913597814D-01
82  8.1000000000000D-01  6.9569138610733D-01  7.7421502738824D-01
83  8.2000000000000D-01  6.5873726014475D-01  8.0999110800122D-01
84  8.3000000000000D-01  6.2159600890536D-01  8.4640080132819D-01
85  8.4000000000000D-01  5.8434695729803D-01  8.8334725792216D-01
86  8.5000000000000D-01  5.4706997243540D-01  9.2072385230177D-01
87  8.6000000000000D-01  5.0984514030174D-01  9.5841477171013D-01
88  8.7000000000000D-01  4.7275243387583D-01  9.9629568958926D-01
89  8.8000000000000D-01  4.3587137546785D-01  1.0342345156500D+00
90  8.9000000000000D-01  3.9928069616774D-01  1.0720922135250D+00
91  9.0000000000000D-01  3.6305799541070D-01  1.1097236762241D+00
92  9.1000000000000D-01  3.2727940373964D-01  1.1469786489811D+00
93  9.2000000000000D-01  2.9201925188173D-01  1.1837026886033D+00
94  9.3000000000000D-01  2.5734974925621D-01  1.2197381481149D+00
95  9.4000000000000D-01  2.2334067499006D-01  1.2549251753440D+00
96  9.5000000000000D-01  1.9005908443645D-01  1.2891027141327D+00
97  9.6000000000000D-01  1.5756903406712D-01  1.3221094970712D+00
98  9.7000000000000D-01  1.2593132744723D-01  1.3537850190494D+00
99  9.8000000000000D-01  9.5203284789789D-02  1.3839704815223D+00
100  9.9000000000000D-01  6.5438538341959D-02  1.4125096981482D+00
101  1.0000000000000D+00  3.6686855566497D-02  1.4392499534129D+00
102  1.0100000000000D+00  8.9939917568613D-03  1.4640428069724D+00
103  1.0200000000000D+00 -1.7598426634754D-02  1.4867448377192D+00
104  1.0300000000000D+00 -4.3052987080851D-02  1.5072183230448D+00
105  1.0400000000000D+00 -6.7336543986296D-02  1.5253318501997D+00
106  1.0500000000000D+00 -9.0420239619094D-02  1.5409608584618D+00
107  1.0600000000000D+00 -1.1227949339574D-01  1.5539881124545D+00
108  1.0700000000000D+00 -1.3289396043614D-01  1.5643041087750D+00
109  1.0800000000000D+00 -1.5224746080925D-01  1.5718074200030D+00
110  1.0900000000000D+00 -1.7032788131590D-01  1.5764049817605D+00
111  1.1000000000000D+00 -1.8712705220354D-01  1.5780123305437D+00
112  1.1100000000000D+00 -2.0264060162957D-01  1.5765538016024D+00
113  1.1200000000000D+00 -2.1686779115445D-01  1.5719626978235D+00
114  1.1300000000000D+00 -2.2981133593920D-01  1.5641814419556D+00
115  1.1400000000000D+00 -2.4147721370244D-01  1.5531617258171D+00
116  1.1500000000000D+00 -2.5187446685464D-01  1.5388646712703D+00
117  1.1600000000000D+00 -2.6101500246889D-01  1.5212610183788D+00
118  1.1700000000000D+00 -2.6891339494860D-01  1.5003313566013D+00
119  1.1800000000000D+00 -2.7558669642990D-01  1.4760664151517D+00
120  1.1900000000000D+00 -2.8105426000419D-01  1.4484674282518D+00
121  1.2000000000000D+00 -2.8533758073050D-01  1.4175465898239D+00
122  1.2100000000000D+00 -2.8846015941558D-01  1.3833276118621D+00
123  1.2200000000000D+00 -2.9044739379450D-01  1.3458463981179D+00
124  1.2300000000000D+00 -2.9132650130577D-01  1.3051518421303D+00
125  1.2400000000000D+00 -2.9112647731626D-01  1.2613067564899D+00
126  1.2500000000000D+00 -2.8987809203938D-01  1.2143889365333D+00
127  1.2600000000000D+00 -2.8761392826836D-01  1.1644923554439D+00
128  1.2700000000000D+00 -2.8436846141849D-01  1.1117284842924D+00
129  1.2800000000000D+00 -2.8017818254864D-01  1.0562277259066D+00
130  1.2900000000000D+00 -2.7508176276097D-01  9.9814093935844D-01
131  1.3000000000000D+00 -2.6912025681731D-01  9.3764102892331D-01
132  1.3100000000000D+00 -2.6233734246546D-01  8.7492456410091D-01
133  1.3200000000000D+00 -2.5477958814641D-01  8.1021337737097D-01
134  1.3300000000000D+00 -2.4649674215647D-01  7.4375608846157D-01
135  1.3400000000000D+00 -2.3754203320839D-01  6.7582948751260D-01
136  1.3500000000000D+00 -2.2797246704322D-01  6.0673968226337D-01
137  1.3600000000000D+00 -2.1784910693160D-01  5.3682293077873D-01
138  1.3700000000000D+00 -2.0723731693868D-01  4.6644603496517D-01
139  1.3800000000000D+00 -1.9620694451381D-01  3.9600615832275D-01
140  1.3900000000000D+00 -1.8483242190232D-01  3.2592994639528D-01
141  1.4000000000000D+00 -1.7319274954989D-01  2.5667174447949D-01
142  1.4100000000000D+00 -1.6137133303508D-01  1.8871075013236D-01
143  1.4200000000000D+00 -1.4945563453880D-01  1.2254688395803D-01
144  1.4300000000000D+00 -1.3753658841598D-01  5.8695103197212D-02
145  1.4400000000000D+00 -1.2570774573522D-01 -2.3220385011317D-03
146  1.4500000000000D+00 -1.1406407667246D-01 -5.9983967057253D-02
147  1.4600000000000D+00 -1.0270038389736D-01 -1.1378405673286D-01
148  1.4700000000000D+00 -9.1709225785021D-02 -1.6324458543241D-01
149  1.4800000000000D+00 -8.1178453432299D-02 -2.0793377768111D-01
150  1.4900000000000D+00 -7.1187564362382D-02 -2.4749051818371D-01
151  1.5000000000000D+00 -6.1805391394904D-02 -2.8163871619491D-01
152  1.5100000000000D+00 -5.3082255704955D-02 -3.1023966299631D-01
153  1.5200000000000D+00 -4.5045660192929D-02 -3.3331858088528D-01
154  1.5300000000000D+00 -3.7703917336965D-02 -3.5103064520681D-01
155  1.5400000000000D+00 -3.1050077511121D-02 -3.6362811136108D-01
156  1.5500000000000D+00 -2.5071452786112D-02 -3.7139036651471D-01
157  1.5600000000000D+00 -1.9751770116410D-02 -3.7460786597034D-01
158  1.5700000000000D+00 -1.5069179344275D-02 -3.7359788480556D-01
159  1.5800000000000D+00 -1.0997495888657D-02 -3.6869579363417D-01
160  1.5900000000000D+00 -7.5065066385894D-03 -3.6025343936054D-01
161  1.6000000000000D+00 -4.5625191502809D-03 -3.4863583719716D-01
162  1.6100000000000D+00 -2.1288497379960D-03 -3.3421835372754D-01
163  1.6200000000000D+00 -1.6634017087822D-04 -3.1738372473183D-01
164  1.6300000000000D+00  1.3661100352120D-03 -2.9851899345266D-01
165  1.6400000000000D+00  2.5110004585437D-03 -2.7801239890599D-01
166  1.6500000000000D+00  3.3116830601137D-03 -2.5625025627564D-01
167  1.6600000000000D+00  3.8118190856162D-03 -2.3361387149421D-01
168  1.6700000000000D+00  4.0548400383711D-03 -2.1047648752052D-01
169  1.6800000000000D+00  4.0834151048333D-03 -1.8720027230655D-01
170  1.6900000000000D+00  3.9389339015169D-03 -1.6413340217631D-01
171  1.7000000000000D+00  3.6610108268722D-03 -1.4160727590593D-01
172  1.7100000000000D+00  3.2870106067360D-03 -1.1993385312576D-01
173  1.7200000000000D+00  2.8516005223064D-03 -9.9403146693757D-02
174  1.7300000000000D+00  2.3863327530736D-03 -8.0280889459567D-02
175  1.7400000000000D+00  1.9192626894784D-03 -6.2806406819245D-02
176  1.7500000000000D+00  1.4746795596820D-03 -4.7192989393332D-02
177  1.7600000000000D+00  1.0728415338666D-03 -3.3627361731692D-02
178  1.7700000000000D+00  7.2821540256698D-04 -2.2224422585601D-02
179  1.7800000000000D+00  4.5010126938511D-04 -1.3066687251091D-02
180  1.7900000000000D+00  2.5340993349641D-04 -6.4418714049510D-03
181  1.8000000000000D+00  1.4425925317184D-04 -2.4649806573561D-03
182  1.8100000000000D+00  8.8884100352464D-05 -5.6377831251385D-04
183  1.8200000000000D+00  4.6022645950899D-05  5.5158341502534D-05
184  1.8300000000000D+00  1.0519371937821D-05  5.7275443350566D-05
185  1.8400000000000D+00 -5.3980122845005D-06 -4.2123339283190D-05
186  1.8500000000000D+00 -3.8651605431229D-06 -3.8073731472465D-05
187  1.8600000000000D+00  8.8852632436726D-07  4.4286818996512D-06
188  1.8700000000000D+00  1.2693444364250D-06  7.3127581454112D-06
189  1.8800000000000D+00 -5.8359964160572D-08  2.4559682328397D-07
190  1.8900000000000D+00 -2.2375342433413D-07  9.4162378277298D-07
191  1.9000000000000D+00 -2.7968093185878D-08  1.1769840743669D-07
192  1.9100000000000D+00  0.0000000000000D+00  0.0000000000000D+00
193  1.9200000000000D+00  0.0000000000000D+00  0.0000000000000D+00
194  1.9300000000000D+00  0.0000000000000D+00  0.0000000000000D+00
195  1.9400000000000D+00  0.0000000000000D+00  0.0000000000000D+00
196  1.9500000000000D+00  0.0000000000000D+00  0.0000000000000D+00
197  1.9600000000000D+00  0.0000000000000D+00  0.0000000000000D+00
198  1.9700000000000D+00  0.0000000000000D+00  0.0000000000000D+00
199  1.9800000000000D+00  0.0000000000000D+00  0.0000000000000D+00
200  1.9900000000000D+00  0.0000000000000D+00  0.0000000000000D+00
201  2.0000000000000D+00  0.0000000000000D+00  0.0000000000000D+00
202  2.0100000000000D+00  0.0000000000000D+00  0.0000000000000D+00
203  2.0200000000000D+00  0.0000000000000D+00  0.0000000000000D+00
204  2.0300000000000D+00  0.0000000000000D+00  0.0000000000000D+00
205  2.0400000000000D+00  0.0000000000000D+00  0.0000000000000D+00
206  2.0500000000000D+00  0.0000000000000D+00  0.0000000000000D+00
207  2.0600000000000D+00  0.0000000000000D+00  0.0000000000000D+00
208  2.0700000000000D+00  0.0000000000000D+00  0.0000000000000D+00
209  2.0800000000000D+00  0.0000000000000D+00  0.0000000000000D+00
210  2.0900000000000D+00  0.0000000000000D+00  0.0000000000000D+00
211  2.1000000000000D+00  0.0000000000000D+00  0.0000000000000D+00
212  2.1100000000000D+00  0.0000000000000D+00  0.0000000000000D+00
213  2.1200000000000D+00  0.0000000000000D+00  0.0000000000000D+00
214  2.1300000000000D+00  0.0000000000000D+00  0.0000000000000D+00
215  2.1400000000000D+00  0.0000000000000D+00  0.0000000000000D+00
216  2.1500000000000D+00  0.0000000000000D+00  0.0000000000000D+00
217  2.1600000000000D+00  0.0000000000000D+00  0.0000000000000D+00
218  2.1700000000000D+00  0.0000000000000D+00  0.0000000000000D+00
219  2.1800000000000D+00  0.0000000000000D+00  0.0000000000000D+00
220  2.1900000000000D+00  0.0000000000000D+00  0.0000000000000D+00
221  2.2000000000000D+00  0.0000000000000D+00  0.0000000000000D+00
222  2.2100000000000D+00  0.0000000000000D+00  0.0000000000000D+00
223  2.2200000000000D+00  0.0000000000000D+00  0.0000000000000D+00
224  2.2300000000000D+00  0.0000000000000D+00  0.0000000000000D+00
225  2.2400000000000D+00  0.0000000000000D+00  0.0000000000000D+00
226  2.2500000000000D+00  0.0000000000000D+00  0.0000000000000D+00
227  2.2600000000000D+00  0.0000000000000D+00  0.0000000000000D+00
228  2.2700000000000D+00  0.0000000000000D+00  0.0000000000000D+00
229  2.2800000000000D+00  0.0000000000000D+00  0.0000000000000D+00
230  2.2900000000000D+00  0.0000000000000D+00  0.0000000000000D+00
231  2.3000000000000D+00  0.0000000000000D+00  0.0000000000000D+00
232  2.3100000000000D+00  0.0000000000000D+00  0.0000000000000D+00
233  2.3200000000000D+00  0.0000000000000D+00  0.0000000000000D+00
234  2.3300000000000D+00  0.0000000000000D+00  0.0000000000000D+00
235  2.3400000000000D+00  0.0000000000000D+00  0.0000000000000D+00
236  2.3500000000000D+00  0.0000000000000D+00  0.0000000000000D+00
237  2.3600000000000D+00  0.0000000000000D+00  0.0000000000000D+00
238  2.3700000000000D+00  0.0000000000000D+00  0.0000000000000D+00
239  2.3800000000000D+00  0.0000000000000D+00  0.0000000000000D+00
240  2.3900000000000D+00  0.0000000000000D+00  0.0000000000000D+00
241  2.4000000000000D+00  0.0000000000000D+00  0.0000000000000D+00
242  2.4100000000000D+00  0.0000000000000D+00  0.0000000000000D+00
243  2.4200000000000D+00  0.0000000000000D+00  0.0000000000000D+00
244  2.4300000000000D+00  0.0000000000000D+00  0.0000000000000D+00
245  2.4400000000000D+00  0.0000000000000D+00  0.0000000000000D+00
246  2.4500000000000D+00  0.0000000000000D+00  0.0000000000000D+00
247  2.4600000000000D+00  0.0000000000000D+00  0.0000000000000D+00
248  2.4700000000000D+00  0.0000000000000D+00  0.0000000000000D+00
249  2.4800000000000D+00  0.0000000000000D+00  0.0000000000000D+00
250  2.4900000000000D+00  0.0000000000000D+00  0.0000000000000D+00
251  2.5000000000000D+00  0.0000000000000D+00  0.0000000000000D+00
252  2.5100000000000D+00  0.0000000000000D+00  0.0000000000000D+00
253  2.5200000000000D+00  0.0000000000000D+00  0.0000000000000D+00
254  2.5300000000000D+00  0.0000000000000D+00  0.0000000000000D+00
255  2.5400000000000D+00  0.0000000000000D+00  0.0000000000000D+00
256  2.5500000000000D+00  0.0000000000000D+00  0.0000000000000D+00
257  2.5600000000000D+00  0.0000000000000D+00  0.0000000000000D+00
258  2.5700000000000D+00  0.0000000000000D+00  0.0000000000000D+00
259  2.5800000000000D+00  0.0000000000000D+00  0.0000000000000D+00
260  2.5900000000000D+00  0.0000000000000D+00  0.0000000000000D+00
261  2.6000000000000D+00  0.0000000000000D+00  0.0000000000000D+00
262  2.6100000000000D+00  0.0000000000000D+00  0.0000000000000D+00
263  2.6200000000000D+00  0.0000000000000D+00  0.0000000000000D+00
264  2.6300000000000D+00  0.0000000000000D+00  0.0000000000000D+00
265  2.6400000000000D+00  0.0000000000000D+00  0.0000000000000D+00
266  2.6500000000000D+00  0.0000000000000D+00  0.0000000000000D+00
267  2.6600000000000D+00  0.0000000000000D+00  0.0000000000000D+00
268  2.6700000000000D+00  0.0000000000000D+00  0.0000000000000D+00
269  2.6800000000000D+00  0.0000000000000D+00  0.0000000000000D+00
270  2.6900000000000D+00  0.0000000000000D+00  0.0000000000000D+00
271  2.7000000000000D+00  0.0000000000000D+00  0.0000000000000D+00
272  2.7100000000000D+00  0.0000000000000D+00  0.0000000000000D+00
273  2.7200000000000D+00  0.0000000000000D+00  0.0000000000000D+00
274  2.7300000000000D+00  0.0000000000000D+00  0.0000000000000D+00
275  2.7400000000000D+00  0.0000000000000D+00  0.0000000000000D+00
276  2.7500000000000D+00  0.0000000000000D+00  0.0000000000000D+00
277  2.7600000000000D+00  0.0000000000000D+00  0.0000000000000D+00
278  2.7700000000000D+00  0.0000000000000D+00  0.0000000000000D+00
279  2.7800000000000D+00  0.0000000000000D+00  0.0000000000000D+00
280  2.7900000000000D+00  0.0000000000000D+00  0.0000000000000D+00
281  2.8000000000000D+00  0.0000000000000D+00  0.0000000000000D+00
282  2.8100000000000D+00  0.0000000000000D+00  0.0000000000000D+00
283  2.8200000000000D+00  0.0000000000000D+00  0.0000000000000D+00
284  2.8300000000000D+00  0.0000000000000D+00  0.0000000000000D+00
285  2.8400000000000D+00  0.0000000000000D+00  0.0000000000000D+00
286  2.8500000000000D+00  0.0000000000000D+00  0.0000000000000D+00
287  2.8600000000000D+00  0.0000000000000D+00  0.0000000000000D+00
288  2.8700000000000D+00  0.0000000000000D+00  0.0000000000000D+00
289  2.8800000000000D+00  0.0000000000000D+00  0.0000000000000D+00
290  2.8900000000000D+00  0.0000000000000D+00  0.0000000000000D+00
291  2.9000000000000D+00  0.0000000000000D+00  0.0000000000000D+00
292  2.9100000000000D+00  0.0000000000000D+00  0.0000000000000D+00
293  2.9200000000000D+00  0.0000000000000D+00  0.0000000000000D+00
294  2.9300000000000D+00  0.0000000000000D+00  0.0000000000000D+00
295  2.9400000000000D+00  0.0000000000000D+00  0.0000000000000D+00
296  2.9500000000000D+00  0.0000000000000D+00  0.0000000000000D+00
297  2.9600000000000D+00  0.0000000000000D+00  0.0000000000000D+00
298  2.9700000000000D+00  0.0000000000000D+00  0.0000000000000D+00
299  2.9800000000000D+00  0.0000000000000D+00  0.0000000000000D+00
300  2.9900000000000D+00  0.0000000000000D+00  0.0000000000000D+00
301  3.0000000000000D+00  0.0000000000000D+00  0.0000000000000D+00
302  3.0100000000000D+00  0.0000000000000D+00  0.0000000000000D+00
303  3.0200000000000D+00  0.0000000000000D+00  0.0000000000000D+00
304  3.0300000000000D+00  0.0000000000000D+00  0.0000000000000D+00
305  3.0400000000000D+00  0.0000000000000D+00  0.0000000000000D+00
306  3.0500000000000D+00  0.0000000000000D+00  0.0000000000000D+00
307  3.0600000000000D+00  0.0000000000000D+00  0.0000000000000D+00
308  3.0700000000000D+00  0.0000000000000D+00  0.0000000000000D+00
309  3.0800000000000D+00  0.0000000000000D+00  0.0000000000000D+00
310  3.0900000000000D+00  0.0000000000000D+00  0.0000000000000D+00
311  3.1000000000000D+00  0.0000000000000D+00  0.0000000000000D+00
312  3.1100000000000D+00  0.0000000000000D+00  0.0000000000000D+00
313  3.1200000000000D+00  0.0000000000000D+00  0.0000000000000D+00
314  3.1300000000000D+00  0.0000000000000D+00  0.0000000000000D+00
315  3.1400000000000D+00  0.0000000000000D+00  0.0000000000000D+00
316  3.1500000000000D+00  0.0000000000000D+00  0.0000000000000D+00
317  3.1600000000000D+00  0.0000000000000D+00  0.0000000000000D+00
318  3.1700000000000D+00  0.0000000000000D+00  0.0000000000000D+00
319  3.1800000000000D+00  0.0000000000000D+00  0.0000000000000D+00
320  3.1900000000000D+00  0.0000000000000D+00  0.0000000000000D+00
321  3.2000000000000D+00  0.0000000000000D+00  0.0000000000000D+00
322  3.2100000000000D+00  0.0000000000000D+00  0.0000000000000D+00
323  3.2200000000000D+00  0.0000000000000D+00  0.0000000000000D+00
324  3.2300000000000D+00  0.0000000000000D+00  0.0000000000000D+00
325  3.2400000000000D+00  0.0000000000000D+00  0.0000000000000D+00
326  3.2500000000000D+00  0.0000000000000D+00  0.0000000000000D+00
327  3.2600000000000D+00  0.0000000000000D+00  0.0000000000000D+00
328  3.2700000000000D+00  0.0000000000000D+00  0.0000000000000D+00
329  3.2800000000000D+00  0.0000000000000D+00  0.0000000000000D+00
330  3.2900000000000D+00  0.0000000000000D+00  0.0000000000000D+00
331  3.3000000000000D+00  0.0000000000000D+00  0.0000000000000D+00
332  3.3100000000000D+00  0.0000000000000D+00  0.0000000000000D+00
333  3.3200000000000D+00  0.0000000000000D+00  0.0000000000000D+00
334  3.3300000000000D+00  0.0000000000000D+00  0.0000000000000D+00
335  3.3400000000000D+00  0.0000000000000D+00  0.0000000000000D+00
336  3.3500000000000D+00  0.0000000000000D+00  0.0000000000000D+00
337  3.3600000000000D+00  0.0000000000000D+00  0.0000000000000D+00
338  3.3700000000000D+00  0.0000000000000D+00  0.0000000000000D+00
339  3.3800000000000D+00  0.0000000000000D+00  0.0000000000000D+00
340  3.3900000000000D+00  0.0000000000000D+00  0.0000000000000D+00
341  3.4000000000000D+00  0.0000000000000D+00  0.0000000000000D+00
342  3.4100000000000D+00  0.0000000000000D+00  0.0000000000000D+00
343  3.4200000000000D+00  0.0000000000000D+00  0.0000000000000D+00
344  3.4300000000000D+00  0.0000000000000D+00  0.0000000000000D+00
345  3.4400000000000D+00  0.0000000000000D+00  0.0000000000000D+00
346  3.4500000000000D+00  0.0000000000000D+00  0.0000000000000D+00
347  3.4600000000000D+00  0.0000000000000D+00  0.0000000000000D+00
348  3.4700000000000D+00  0.0000000000000D+00  0.0000000000000D+00
349  3.4800000000000D+00  0.0000000000000D+00  0.0000000000000D+00
350  3.4900000000000D+00  0.0000000000000D+00  0.0000000000000D+00
351  3.5000000000000D+00  0.0000000000000D+00  0.0000000000000D+00
352  3.5100000000000D+00  0.0000000000000D+00  0.0000000000000D+00
353  3.5200000000000D+00  0.0000000000000D+00  0.0000000000000D+00
354  3.5300000000000D+00  0.0000000000000D+00  0.0000000000000D+00
355  3.5400000000000D+00  0.0000000000000D+00  0.0000000000000D+00
356  3.5500000000000D+00  0.0000000000000D+00  0.0000000000000D+00
357  3.5600000000000D+00  0.0000000000000D+00  0.0000000000000D+00
358  3.5700000000000D+00  0.0000000000000D+00  0.0000000000000D+00
359  3.5800000000000D+00  0.0000000000000D+00  0.0000000000000D+00
360  3.5900000000000D+00  0.0000000000000D+00  0.0000000000000D+00
361  3.6000000000000D+00  0.0000000000000D+00  0.0000000000000D+00
362  3.6100000000000D+00  0.0000000000000D+00  0.0000000000000D+00
363  3.6200000000000D+00  0.0000000000000D+00  0.0000000000000D+00
364  3.6300000000000D+00  0.0000000000000D+00  0.0000000000000D+00
365  3.6400000000000D+00  0.0000000000000D+00  0.0000000000000D+00
366  3.6500000000000D+00  0.0000000000000D+00  0.0000000000000D+00
367  3.6600000000000D+00  0.0000000000000D+00  0.0000000000000D+00
368  3.6700000000000D+00  0.0000000000000D+00  0.0000000000000D+00
369  3.6800000000000D+00  0.0000000000000D+00  0.0000000000000D+00
370  3.6900000000000D+00  0.0000000000000D+00  0.0000000000000D+00
371  3.7000000000000D+00  0.0000000000000D+00  0.0000000000000D+00
372  3.7100000000000D+00  0.0000000000000D+00  0.0000000000000D+00
373  3.7200000000000D+00  0.0000000000000D+00  0.0000000000000D+00
374  3.7300000000000D+00  0.0000000000000D+00  0.0000000000000D+00
375  3.7400000000000D+00  0.0000000000000D+00  0.0000000000000D+00
376  3.7500000000000D+00  0.0000000000000D+00  0.0000000000000D+00
377  3.7600000000000D+00  0.0000000000000D+00  0.0000000000000D+00
378  3.7700000000000D+00  0.0000000000000D+00  0.0000000000000D+00
379  3.7800000000000D+00  0.0000000000000D+00  0.0000000000000D+00
380  3.7900000000000D+00  0.0000000000000D+00  0.0000000000000D+00
381  3.8000000000000D+00  0.0000000000000D+00  0.0000000000000D+00
382  3.8100000000000D+00  0.0000000000000D+00  0.0000000000000D+00
383  3.8200000000000D+00  0.0000000000000D+00  0.0000000000000D+00
384  3.8300000000000D+00  0.0000000000000D+00  0.0000000000000D+00
385  3.8400000000000D+00  0.0000000000000D+00  0.0000000000000D+00
386  3.8500000000000D+00  0.0000000000000D+00  0.0000000000000D+00
387  3.8600000000000D+00  0.0000000000000D+00  0.0000000000000D+00
388  3.8700000000000D+00  0.0000000000000D+00  0.0000000000000D+00
389  3.8800000000000D+00  0.0000000000000D+00  0.0000000000000D+00
390  3.8900000000000D+00  0.0000000000000D+00  0.0000000000000D+00
391  3.9000000000000D+00  0.0000000000000D+00  0.0000000000000D+00
392  3.9100000000000D+00  0.0000000000000D+00  0.0000000000000D+00
393  3.9200000000000D+00  0.0000000000000D+00  0.0000000000000D+00
394  3.9300000000000D+00  0.0000000000000D+00  0.0000000000000D+00
395  3.9400000000000D+00  0.0000000000000D+00  0.0000000000000D+00
396  3.9500000000000D+00  0.0000000000000D+00  0.0000000000000D+00
397  3.9600000000000D+00  0.0000000000000D+00  0.0000000000000D+00
398  3.9700000000000D+00  0.0000000000000D+00  0.0000000000000D+00
399  3.9800000000000D+00  0.0000000000000D+00  0.0000000000000D+00
400  3.9900000000000D+00  0.0000000000000D+00  0.0000000000000D+00
401  4.0000000000000D+00  0.0000000000000D+00  0.0000000000000D+00
402  4.0100000000000D+00  0.0000000000000D+00  0.0000000000000D+00
403  4.0200000000000D+00  0.0000000000000D+00  0.0000000000000D+00
404  4.0300000000000D+00  0.0000000000000D+00  0.0000000000000D+00
405  4.0400000000000D+00  0.0000000000000D+00  0.0000000000000D+00
406  4.0500000000000D+00  0.0000000000000D+00  0.0000000000000D+00
407  4.0600000000000D+00  0.0000000000000D+00  0.0000000000000D+00
408  4.0700000000000D+00  0.0000000000000D+00  0.0000000000000D+00
409  4.0800000000000D+00  0.0000000000000D+00  0.0000000000000D+00
410  4.0900000000000D+00  0.0000000000000D+00  0.0000000000000D+00
411  4.1000000000000D+00  0.0000000000000D+00  0.0000000000000D+00
412  4.1100000000000D+00  0.0000000000000D+00  0.0000000000000D+00
413  4.1200000000000D+00  0.0000000000000D+00  0.0000000000000D+00
414  4.1300000000000D+00  0.0000000000000D+00  0.0000000000000D+00
415  4.1400000000000D+00  0.0000000000000D+00  0.0000000000000D+00
416  4.1500000000000D+00  0.0000000000000D+00  0.0000000000000D+00
417  4.1600000000000D+00  0.0000000000000D+00  0.0000000000000D+00
418  4.1700000000000D+00  0.0000000000000D+00  0.0000000000000D+00
419  4.1800000000000D+00  0.0000000000000D+00  0.0000000000000D+00
420  4.1900000000000D+00  0.0000000000000D+00  0.0000000000000D+00
421  4.2000000000000D+00  0.0000000000000D+00  0.0000000000000D+00
422  4.2100000000000D+00  0.0000000000000D+00  0.0000000000000D+00
423  4.2200000000000D+00  0.0000000000000D+00  0.0000000000000D+00
424  4.2300000000000D+00  0.0000000000000D+00  0.0000000000000D+00
425  4.2400000000000D+00  0.0000000000000D+00  0.0000000000000D+00
426  4.2500000000000D+00  0.0000000000000D+00  0.0000000000000D+00
427  4.2600000000000D+00  0.0000000000000D+00  0.0000000000000D+00
428  4.2700000000000D+00  0.0000000000000D+00  0.0000000000000D+00
429  4.2800000000000D+00  0.0000000000000D+00  0.0000000000000D+00
430  4.2900000000000D+00  0.0000000000000D+00  0.0000000000000D+00
431  4.3000000000000D+00  0.0000000000000D+00  0.0000000000000D+00
432  4.3100000000000D+00  0.0000000000000D+00  0.0000000000000D+00
433  4.3200000000000D+00  0.0000000000000D+00  0.0000000000000D+00
434  4.3300000000000D+00  0.0000000000000D+00  0.0000000000000D+00
435  4.3400000000000D+00  0.0000000000000D+00  0.0000000000000D+00
436  4.3500000000000D+00  0.0000000000000D+00  0.0000000000000D+00
437  4.3600000000000D+00  0.0000000000000D+00  0.0000000000000D+00
438  4.3700000000000D+00  0.0000000000000D+00  0.0000000000000D+00
439  4.3800000000000D+00  0.0000000000000D+00  0.0000000000000D+00
440  4.3900000000000D+00  0.0000000000000D+00  0.0000000000000D+00
441  4.4000000000000D+00  0.0000000000000D+00  0.0000000000000D+00
442  4.4100000000000D+00  0.0000000000000D+00  0.0000000000000D+00
443  4.4200000000000D+00  0.0000000000000D+00  0.0000000000000D+00