Xe    ONCVPSP-3.3.0  r_core=   1.40310   1.40310   1.40310
54.0000     26.0000      180112    zatom,zion,pspd
8 -116133   2     4   600     0    pspcod,pspxc,lmax,lloc,mmax,r2well
5.99000000  3.00000000  0.00000000    rchrg fchrg qchrg
2     2     2     0     0    nproj
1     1           extension_switch
0                         1.1832555181591D+01  1.9117260565420D+00
1  0.0000000000000D+00 -4.4563963630395D-10  9.2130676698776D-10
2  1.0000000000000D-02  9.7199651258662D-02 -1.2685534480921D-02
3  2.0000000000000D-02  1.9406821639141D-01 -2.5154795324446D-02
4  3.0000000000000D-02  2.9027609235750D-01 -3.7193188010085D-02
5  4.0000000000000D-02  3.8549663200540D-01 -4.8589458651472D-02
6  5.0000000000000D-02  4.7940759642987D-01 -5.9137320552947D-02
7  6.0000000000000D-02  5.7169257694525D-01 -6.8637028918594D-02
8  7.0000000000000D-02  6.6204237707794D-01 -7.6896887529564D-02
9  8.0000000000000D-02  7.5015634542655D-01 -8.3734672126801D-02
10  9.0000000000000D-02  8.3574365078399D-01 -8.8978956363278D-02
11  1.0000000000000D-01  9.1852449155363D-01 -9.2470327506197D-02
12  1.1000000000000D-01  9.9823123221376D-01 -9.4062480556776D-02
13  1.2000000000000D-01  1.0746094603800D+00 -9.3623181091751D-02
14  1.3000000000000D-01  1.1474189588745D+00 -9.1035088893152D-02
15  1.4000000000000D-01  1.2164345881195D+00 -8.6196436295690D-02
16  1.5000000000000D-01  1.2814470751235D+00 -7.9021557117259D-02
17  1.6000000000000D-01  1.3422637062988D+00 -6.9441264019588D-02
18  1.7000000000000D-01  1.3987089223396D+00 -5.7403074143298D-02
19  1.8000000000000D-01  1.4506248143698D+00 -4.2871284845815D-02
20  1.9000000000000D-01  1.4978715215426D+00 -2.5826903311853D-02
21  2.0000000000000D-01  1.5403275312113D+00 -6.2674356750386D-03
22  2.1000000000000D-01  1.5778898836922D+00  1.5793456941344D-02
23  2.2000000000000D-01  1.6104742844808D+00  4.0326426415066D-02
24  2.3000000000000D-01  1.6380151275648D+00  6.7287019108295D-02
25  2.4000000000000D-01  1.6604654341741D+00  9.6616358991232D-02
26  2.5000000000000D-01  1.6777967119266D+00  1.2824191943687D-01
27  2.6000000000000D-01  1.6899987398451D+00  1.6207836981515D-01
28  2.7000000000000D-01  1.6970792851394D+00  1.9802848234219D-01
29  2.8000000000000D-01  1.6990637579597D+00  2.3598408420786D-01
30  2.9000000000000D-01  1.6959948105249D+00  2.7582703982247D-01
31  3.0000000000000D-01  1.6879318871184D+00  3.1743024809261D-01
32  3.1000000000000D-01  1.6749507314177D+00  3.6065863995920D-01
33  3.2000000000000D-01  1.6571428574869D+00  4.0537016200265D-01
34  3.3000000000000D-01  1.6346149905185D+00  4.5141673273293D-01
35  3.4000000000000D-01  1.6074884830635D+00  4.9864515922384D-01
36  3.5000000000000D-01  1.5758987120499D+00  5.4689800300648D-01
37  3.6000000000000D-01  1.5399944613620D+00  5.9601438558423D-01
38  3.7000000000000D-01  1.4999372941530D+00  6.4583072555085D-01
39  3.8000000000000D-01  1.4559009183990D+00  6.9618140105470D-01
40  3.9000000000000D-01  1.4080705484890D+00  7.4689933322878D-01
41  4.0000000000000D-01  1.3566422648960D+00  7.9781648816497D-01
42  4.1000000000000D-01  1.3018223732081D+00  8.4876429701791D-01
43  4.2000000000000D-01  1.2438267630210D+00  8.9957399584510D-01
44  4.3000000000000D-01  1.1828802664408D+00  9.5007688878649D-01
45  4.4000000000000D-01  1.1192160152070D+00  1.0001045401246D+00
46  4.5000000000000D-01  1.0530747947667D+00  1.0494889026073D+00
47  4.6000000000000D-01  9.8470439300116D-01  1.0980623911233D+00
48  4.7000000000000D-01  9.1435894076139D-01  1.1456579123642D+00
49  4.8000000000000D-01  8.4229824090807D-01  1.1921088624478D+00
50  4.9000000000000D-01  7.6878708219845D-01  1.2372491055958D+00
51  5.0000000000000D-01  6.9409453411972D-01  1.2809129478148D+00
52  5.1000000000000D-01  6.1849321865210D-01  1.3229351201178D+00
53  5.2000000000000D-01  5.4225855495714D-01  1.3631507861057D+00
54  5.3000000000000D-01  4.6566797313600D-01  1.4013955887091D+00
55  5.4000000000000D-01  3.8900009348959D-01  1.4375057505499D+00
56  5.5000000000000D-01  3.1253386813782D-01  1.4713182417221D+00
57  5.6000000000000D-01  2.3654768241794D-01  1.5026710278078D+00
58  5.7000000000000D-01  1.6131841417213D-01  1.5314034096600D+00
59  5.8000000000000D-01  8.7120449853037D-02  1.5573564648896D+00
60  5.9000000000000D-01  1.4224657298819D-02  1.5803735991362D+00
61  6.0000000000000D-01 -5.7102683938175D-02  1.6003012130753D+00
62  6.1000000000000D-01 -1.2660099272061D-01  1.6169894887884D+00
63  6.2000000000000D-01 -1.9401653374202D-01  1.6302932965816D+00
64  6.3000000000000D-01 -2.5910359783817D-01  1.6400732206719D+00
65  6.4000000000000D-01 -3.2162570955309D-01  1.6461966993835D+00
66  6.5000000000000D-01 -3.8135685506411D-01  1.6485392726480D+00
67  6.6000000000000D-01 -4.3808272234344D-01  1.6469859267726D+00
68  6.7000000000000D-01 -4.9160194424437D-01  1.6414325236253D+00
69  6.8000000000000D-01 -5.4172733408410D-01  1.6317872986814D+00
70  6.9000000000000D-01 -5.8828710227252D-01  1.6179724098099D+00
71  7.0000000000000D-01 -6.3112604163273D-01  1.5999255163208D+00
72  7.1000000000000D-01 -6.7010666828993D-01  1.5776013656596D+00
73  7.2000000000000D-01 -7.0511030440453D-01  1.5509733633214D+00
74  7.3000000000000D-01 -7.3603808860034D-01  1.5200351000580D+00
75  7.4000000000000D-01 -7.6281189971278D-01  1.4848018093425D+00
76  7.5000000000000D-01 -7.8537517946617D-01  1.4453117273415D+00
77  7.6000000000000D-01 -8.0369363989786D-01  1.4016273273801D+00
78  7.7000000000000D-01 -8.1775584178451D-01  1.3538364010695D+00
79  7.8000000000000D-01 -8.2757363099837D-01  1.3020529589257D+00
80  7.9000000000000D-01 -8.3318242062944D-01  1.2464179244483D+00
81  8.0000000000000D-01 -8.3464130784846D-01  1.1870995972374D+00
82  8.1000000000000D-01 -8.3203301584921D-01  1.1242938628169D+00
83  8.2000000000000D-01 -8.2546365278492D-01  1.0582241293574D+00
84  8.3000000000000D-01 -8.1506228138683D-01  9.8914097445725D-01
85  8.4000000000000D-01 -8.0098029490480D-01  9.1732148848372D-01
86  8.5000000000000D-01 -7.8339059711684D-01  8.4306830468132D-01
87  8.6000000000000D-01 -7.6248658639042D-01  7.6670831025346D-01
88  8.7000000000000D-01 -7.3848094611528D-01  6.8859103687704D-01
89  8.8000000000000D-01 -7.1160424623182D-01  6.0908673354793D-01
90  8.9000000000000D-01 -6.8210336301879D-01  5.2858412921929D-01
91  9.0000000000000D-01 -6.5023972674228D-01  4.4748789731196D-01
92  9.1000000000000D-01 -6.1628740916879D-01  3.6621583877895D-01
93  9.2000000000000D-01 -5.8053106527102D-01  2.8519580491756D-01
94  9.3000000000000D-01 -5.4326374566904D-01  2.0486238547291D-01
95  9.4000000000000D-01 -5.0478459841489D-01  1.2565339169020D-01
96  9.5000000000000D-01 -4.6539648061038D-01  4.8006167780721D-02
97  9.6000000000000D-01 -4.2540350201265D-01 -2.7646232299836D-02
98  9.7000000000000D-01 -3.8510852419887D-01 -1.0087896286567D-01
99  9.8000000000000D-01 -3.4481064000285D-01 -1.7127935691128D-01
100  9.9000000000000D-01 -3.0480265877765D-01 -2.3845090456115D-01
101  1.0000000000000D+00 -2.6536862355160D-01 -3.0201719385798D-01
102  1.0100000000000D+00 -2.2678138634682D-01 -3.6162576740893D-01
103  1.0200000000000D+00 -1.8930026775209D-01 -4.1695184834497D-01
104  1.0300000000000D+00 -1.5316882633274D-01 -4.6770188961676D-01
105  1.0400000000000D+00 -1.1861276260061D-01 -5.1361690187890D-01
106  1.0500000000000D+00 -8.5837981005275D-02 -5.5447551720580D-01
107  1.0600000000000D+00 -5.5028831919072D-02 -5.9009674833718D-01
108  1.0700000000000D+00 -2.6346553700631D-02 -6.2034240635057D-01
109  1.0800000000000D+00  7.2067327829508D-05 -6.4511914356640D-01
110  1.0900000000000D+00  2.4115803502563D-02 -6.6438009262475D-01
111  1.1000000000000D+00  4.5699846467770D-02 -6.7812607787041D-01
112  1.1100000000000D+00  6.4766411791138D-02 -6.8640637969105D-01
113  1.1200000000000D+00  8.1285080962721D-02 -6.8931903875012D-01
114  1.1300000000000D+00  9.5252877222634D-02 -6.8701069258464D-01
115  1.1400000000000D+00  1.0669407513988D-01 -6.7967594341279D-01
116  1.1500000000000D+00  1.1565974682175D-01 -6.6755626143949D-01
117  1.1600000000000D+00  1.2222705173872D-01 -6.5093843579810D-01
118  1.1700000000000D+00  1.2649827913189D-01 -6.3015258822152D-01
119  1.1800000000000D+00  1.2859967051963D-01 -6.0556980635435D-01
120  1.1900000000000D+00  1.2867986809449D-01 -5.7759902349359D-01
121  1.2000000000000D+00  1.2690872536065D-01 -5.4668488324036D-01
122  1.2100000000000D+00  1.2347489836042D-01 -5.1330280706474D-01
123  1.2200000000000D+00  1.1858022375974D-01 -4.7794644539835D-01
124  1.2300000000000D+00  1.1243396348883D-01 -4.4111521800256D-01
125  1.2400000000000D+00  1.0524843245712D-01 -4.0330536605585D-01
126  1.2500000000000D+00  9.7237277792526D-02 -3.6500748112549D-01
127  1.2600000000000D+00  8.8612834593238D-02 -3.2670176521066D-01
128  1.2700000000000D+00  7.9583750796807D-02 -2.8885392624334D-01
129  1.2800000000000D+00  7.0352599488230D-02 -2.5191100214041D-01
130  1.2900000000000D+00  6.1113579914396D-02 -2.1629734461672D-01
131  1.3000000000000D+00  5.2050305628412D-02 -1.8241074507031D-01
132  1.3100000000000D+00  4.3333704986670D-02 -1.5061875063843D-01
133  1.3200000000000D+00  3.5120055185790D-02 -1.2125520876920D-01
134  1.3300000000000D+00  2.7549168919908D-02 -9.4617076274263D-02
135  1.3400000000000D+00  2.0742752684215D-02 -7.0961528530550D-02
136  1.3500000000000D+00  1.4802955454820D-02 -5.0503404578622D-02
137  1.3600000000000D+00  9.8139526867426D-03 -3.3422787516549D-02
138  1.3700000000000D+00  5.8267950529332D-03 -1.9814435396293D-02
139  1.3800000000000D+00  2.8662079611051D-03 -9.7139278630927D-03
140  1.3900000000000D+00  1.0414283404846D-03 -3.4700886428757D-03
141  1.4000000000000D+00  2.3150274872665D-04 -6.8958662844305D-04
142  1.4100000000000D+00  3.6017173568619D-06  4.9041840791944D-05
143  1.4200000000000D+00  1.0864077555790D-07 -5.6679605591106D-07
144  1.4300000000000D+00  8.7383657976502D-06 -3.9414882874649D-05
145  1.4400000000000D+00 -5.8967415809219D-07  3.4673375234982D-06
146  1.4500000000000D+00 -8.1493137978763D-07  4.3080235722962D-06
147  1.4600000000000D+00 -3.1233225228962D-07  8.1655932886028D-07
148  1.4700000000000D+00 -9.6273902673006D-08  2.5169784028751D-07
149  1.4800000000000D+00  0.0000000000000D+00  0.0000000000000D+00
150  1.4900000000000D+00  0.0000000000000D+00  0.0000000000000D+00
151  1.5000000000000D+00  0.0000000000000D+00  0.0000000000000D+00
152  1.5100000000000D+00  0.0000000000000D+00  0.0000000000000D+00
153  1.5200000000000D+00  0.0000000000000D+00  0.0000000000000D+00
154  1.5300000000000D+00  0.0000000000000D+00  0.0000000000000D+00
155  1.5400000000000D+00  0.0000000000000D+00  0.0000000000000D+00
156  1.5500000000000D+00  0.0000000000000D+00  0.0000000000000D+00
157  1.5600000000000D+00  0.0000000000000D+00  0.0000000000000D+00
158  1.5700000000000D+00  0.0000000000000D+00  0.0000000000000D+00
159  1.5800000000000D+00  0.0000000000000D+00  0.0000000000000D+00
160  1.5900000000000D+00  0.0000000000000D+00  0.0000000000000D+00
161  1.6000000000000D+00  0.0000000000000D+00  0.0000000000000D+00
162  1.6100000000000D+00  0.0000000000000D+00  0.0000000000000D+00
163  1.6200000000000D+00  0.0000000000000D+00  0.0000000000000D+00
164  1.6300000000000D+00  0.0000000000000D+00  0.0000000000000D+00
165  1.6400000000000D+00  0.0000000000000D+00  0.0000000000000D+00
166  1.6500000000000D+00  0.0000000000000D+00  0.0000000000000D+00
167  1.6600000000000D+00  0.0000000000000D+00  0.0000000000000D+00
168  1.6700000000000D+00  0.0000000000000D+00  0.0000000000000D+00
169  1.6800000000000D+00  0.0000000000000D+00  0.0000000000000D+00
170  1.6900000000000D+00  0.0000000000000D+00  0.0000000000000D+00
171  1.7000000000000D+00  0.0000000000000D+00  0.0000000000000D+00
172  1.7100000000000D+00  0.0000000000000D+00  0.0000000000000D+00
173  1.7200000000000D+00  0.0000000000000D+00  0.0000000000000D+00
174  1.7300000000000D+00  0.0000000000000D+00  0.0000000000000D+00
175  1.7400000000000D+00  0.0000000000000D+00  0.0000000000000D+00
176  1.7500000000000D+00  0.0000000000000D+00  0.0000000000000D+00
177  1.7600000000000D+00  0.0000000000000D+00  0.0000000000000D+00
178  1.7700000000000D+00  0.0000000000000D+00  0.0000000000000D+00
179  1.7800000000000D+00  0.0000000000000D+00  0.0000000000000D+00
180  1.7900000000000D+00  0.0000000000000D+00  0.0000000000000D+00
181  1.8000000000000D+00  0.0000000000000D+00  0.0000000000000D+00
182  1.8100000000000D+00  0.0000000000000D+00  0.0000000000000D+00
183  1.8200000000000D+00  0.0000000000000D+00  0.0000000000000D+00
184  1.8300000000000D+00  0.0000000000000D+00  0.0000000000000D+00
185  1.8400000000000D+00  0.0000000000000D+00  0.0000000000000D+00
186  1.8500000000000D+00  0.0000000000000D+00  0.0000000000000D+00
187  1.8600000000000D+00  0.0000000000000D+00  0.0000000000000D+00
188  1.8700000000000D+00  0.0000000000000D+00  0.0000000000000D+00
189  1.8800000000000D+00  0.0000000000000D+00  0.0000000000000D+00
190  1.8900000000000D+00  0.0000000000000D+00  0.0000000000000D+00
191  1.9000000000000D+00  0.0000000000000D+00  0.0000000000000D+00
192  1.9100000000000D+00  0.0000000000000D+00  0.0000000000000D+00
193  1.9200000000000D+00  0.0000000000000D+00  0.0000000000000D+00
194  1.9300000000000D+00  0.0000000000000D+00  0.0000000000000D+00
195  1.9400000000000D+00  0.0000000000000D+00  0.0000000000000D+00
196  1.9500000000000D+00  0.0000000000000D+00  0.0000000000000D+00
197  1.9600000000000D+00  0.0000000000000D+00  0.0000000000000D+00
198  1.9700000000000D+00  0.0000000000000D+00  0.0000000000000D+00
199  1.9800000000000D+00  0.0000000000000D+00  0.0000000000000D+00
200  1.9900000000000D+00  0.0000000000000D+00  0.0000000000000D+00
201  2.0000000000000D+00  0.0000000000000D+00  0.0000000000000D+00
202  2.0100000000000D+00  0.0000000000000D+00  0.0000000000000D+00
203  2.0200000000000D+00  0.0000000000000D+00  0.0000000000000D+00
204  2.0300000000000D+00  0.0000000000000D+00  0.0000000000000D+00
205  2.0400000000000D+00  0.0000000000000D+00  0.0000000000000D+00
206  2.0500000000000D+00  0.0000000000000D+00  0.0000000000000D+00
207  2.0600000000000D+00  0.0000000000000D+00  0.0000000000000D+00
208  2.0700000000000D+00  0.0000000000000D+00  0.0000000000000D+00
209  2.0800000000000D+00  0.0000000000000D+00  0.0000000000000D+00
210  2.0900000000000D+00  0.0000000000000D+00  0.0000000000000D+00
211  2.1000000000000D+00  0.0000000000000D+00  0.0000000000000D+00
212  2.1100000000000D+00  0.0000000000000D+00  0.0000000000000D+00
213  2.1200000000000D+00  0.0000000000000D+00  0.0000000000000D+00
214  2.1300000000000D+00  0.0000000000000D+00  0.0000000000000D+00
215  2.1400000000000D+00  0.0000000000000D+00  0.0000000000000D+00
216  2.1500000000000D+00  0.0000000000000D+00  0.0000000000000D+00
217  2.1600000000000D+00  0.0000000000000D+00  0.0000000000000D+00
218  2.1700000000000D+00  0.0000000000000D+00  0.0000000000000D+00
219  2.1800000000000D+00  0.0000000000000D+00  0.0000000000000D+00
220  2.1900000000000D+00  0.0000000000000D+00  0.0000000000000D+00
221  2.2000000000000D+00  0.0000000000000D+00  0.0000000000000D+00
222  2.2100000000000D+00  0.0000000000000D+00  0.0000000000000D+00
223  2.2200000000000D+00  0.0000000000000D+00  0.0000000000000D+00
224  2.2300000000000D+00  0.0000000000000D+00  0.0000000000000D+00
225  2.2400000000000D+00  0.0000000000000D+00  0.0000000000000D+00
226  2.2500000000000D+00  0.0000000000000D+00  0.0000000000000D+00
227  2.2600000000000D+00  0.0000000000000D+00  0.0000000000000D+00
228  2.2700000000000D+00  0.0000000000000D+00  0.0000000000000D+00
229  2.2800000000000D+00  0.0000000000000D+00  0.0000000000000D+00
230  2.2900000000000D+00  0.0000000000000D+00  0.0000000000000D+00
231  2.3000000000000D+00  0.0000000000000D+00  0.0000000000000D+00
232  2.3100000000000D+00  0.0000000000000D+00  0.0000000000000D+00
233  2.3200000000000D+00  0.0000000000000D+00  0.0000000000000D+00
234  2.3300000000000D+00  0.0000000000000D+00  0.0000000000000D+00
235  2.3400000000000D+00  0.0000000000000D+00  0.0000000000000D+00
236  2.3500000000000D+00  0.0000000000000D+00  0.0000000000000D+00
237  2.3600000000000D+00  0.0000000000000D+00  0.0000000000000D+00
238  2.3700000000000D+00  0.0000000000000D+00  0.0000000000000D+00
239  2.3800000000000D+00  0.0000000000000D+00  0.0000000000000D+00
240  2.3900000000000D+00  0.0000000000000D+00  0.0000000000000D+00
241  2.4000000000000D+00  0.0000000000000D+00  0.0000000000000D+00
242  2.4100000000000D+00  0.0000000000000D+00  0.0000000000000D+00
243  2.4200000000000D+00  0.0000000000000D+00  0.0000000000000D+00
244  2.4300000000000D+00  0.0000000000000D+00  0.0000000000000D+00
245  2.4400000000000D+00  0.0000000000000D+00  0.0000000000000D+00
246  2.4500000000000D+00  0.0000000000000D+00  0.0000000000000D+00
247  2.4600000000000D+00  0.0000000000000D+00  0.0000000000000D+00
248  2.4700000000000D+00  0.0000000000000D+00  0.0000000000000D+00
249  2.4800000000000D+00  0.0000000000000D+00  0.0000000000000D+00
250  2.4900000000000D+00  0.0000000000000D+00  0.0000000000000D+00
251  2.5000000000000D+00  0.0000000000000D+00  0.0000000000000D+00
252  2.5100000000000D+00  0.0000000000000D+00  0.0000000000000D+00
253  2.5200000000000D+00  0.0000000000000D+00  0.0000000000000D+00
254  2.5300000000000D+00  0.0000000000000D+00  0.0000000000000D+00
255  2.5400000000000D+00  0.0000000000000D+00  0.0000000000000D+00
256  2.5500000000000D+00  0.0000000000000D+00  0.0000000000000D+00
257  2.5600000000000D+00  0.0000000000000D+00  0.0000000000000D+00
258  2.5700000000000D+00  0.0000000000000D+00  0.0000000000000D+00
259  2.5800000000000D+00  0.0000000000000D+00  0.0000000000000D+00
260  2.5900000000000D+00  0.0000000000000D+00  0.0000000000000D+00
261  2.6000000000000D+00  0.0000000000000D+00  0.0000000000000D+00
262  2.6100000000000D+00  0.0000000000000D+00  0.0000000000000D+00
263  2.6200000000000D+00  0.0000000000000D+00  0.0000000000000D+00
264  2.6300000000000D+00  0.0000000000000D+00  0.0000000000000D+00
265  2.6400000000000D+00  0.0000000000000D+00  0.0000000000000D+00
266  2.6500000000000D+00  0.0000000000000D+00  0.0000000000000D+00
267  2.6600000000000D+00  0.0000000000000D+00  0.0000000000000D+00
268  2.6700000000000D+00  0.0000000000000D+00  0.0000000000000D+00
269  2.6800000000000D+00  0.0000000000000D+00  0.0000000000000D+00
270  2.6900000000000D+00  0.0000000000000D+00  0.0000000000000D+00
271  2.7000000000000D+00  0.0000000000000D+00  0.0000000000000D+00
272  2.7100000000000D+00  0.0000000000000D+00  0.0000000000000D+00
273  2.7200000000000D+00  0.0000000000000D+00  0.0000000000000D+00
274  2.7300000000000D+00  0.0000000000000D+00  0.0000000000000D+00
275  2.7400000000000D+00  0.0000000000000D+00  0.0000000000000D+00
276  2.7500000000000D+00  0.0000000000000D+00  0.0000000000000D+00
277  2.7600000000000D+00  0.0000000000000D+00  0.0000000000000D+00
278  2.7700000000000D+00  0.0000000000000D+00  0.0000000000000D+00
279  2.7800000000000D+00  0.0000000000000D+00  0.0000000000000D+00
280  2.7900000000000D+00  0.0000000000000D+00  0.0000000000000D+00
281  2.8000000000000D+00  0.0000000000000D+00  0.0000000000000D+00
282  2.8100000000000D+00  0.0000000000000D+00  0.0000000000000D+00
283  2.8200000000000D+00  0.0000000000000D+00  0.0000000000000D+00
284  2.8300000000000D+00  0.0000000000000D+00  0.0000000000000D+00
285  2.8400000000000D+00  0.0000000000000D+00  0.0000000000000D+00
286  2.8500000000000D+00  0.0000000000000D+00  0.0000000000000D+00
287  2.8600000000000D+00  0.0000000000000D+00  0.0000000000000D+00
288  2.8700000000000D+00  0.0000000000000D+00  0.0000000000000D+00
289  2.8800000000000D+00  0.0000000000000D+00  0.0000000000000D+00
290  2.8900000000000D+00  0.0000000000000D+00  0.0000000000000D+00
291  2.9000000000000D+00  0.0000000000000D+00  0.0000000000000D+00
292  2.9100000000000D+00  0.0000000000000D+00  0.0000000000000D+00
293  2.9200000000000D+00  0.0000000000000D+00  0.0000000000000D+00
294  2.9300000000000D+00  0.0000000000000D+00  0.0000000000000D+00
295  2.9400000000000D+00  0.0000000000000D+00  0.0000000000000D+00
296  2.9500000000000D+00  0.0000000000000D+00  0.0000000000000D+00
297  2.9600000000000D+00  0.0000000000000D+00  0.0000000000000D+00
298  2.9700000000000D+00  0.0000000000000D+00  0.0000000000000D+00
299  2.9800000000000D+00  0.0000000000000D+00  0.0000000000000D+00
300  2.9900000000000D+00  0.0000000000000D+00  0.0000000000000D+00
301  3.0000000000000D+00  0.0000000000000D+00  0.0000000000000D+00
302  3.0100000000000D+00  0.0000000000000D+00  0.0000000000000D+00
303  3.0200000000000D+00  0.0000000000000D+00  0.0000000000000D+00
304  3.0300000000000D+00  0.0000000000000D+00  0.0000000000000D+00
305  3.0400000000000D+00  0.0000000000000D+00  0.0000000000000D+00
306  3.0500000000000D+00  0.0000000000000D+00  0.0000000000000D+00
307  3.0600000000000D+00  0.0000000000000D+00  0.0000000000000D+00
308  3.0700000000000D+00  0.0000000000000D+00  0.0000000000000D+00
309  3.0800000000000D+00  0.0000000000000D+00  0.0000000000000D+00
310  3.0900000000000D+00  0.0000000000000D+00  0.0000000000000D+00
311  3.1000000000000D+00  0.0000000000000D+00  0.0000000000000D+00
312  3.1100000000000D+00  0.0000000000000D+00  0.0000000000000D+00
313  3.1200000000000D+00  0.0000000000000D+00  0.0000000000000D+00
314  3.1300000000000D+00  0.0000000000000D+00  0.0000000000000D+00
315  3.1400000000000D+00  0.0000000000000D+00  0.0000000000000D+00
316  3.1500000000000D+00  0.0000000000000D+00  0.0000000000000D+00
317  3.1600000000000D+00  0.0000000000000D+00  0.0000000000000D+00
318  3.1700000000000D+00  0.0000000000000D+00  0.0000000000000D+00
319  3.1800000000000D+00  0.0000000000000D+00  0.0000000000000D+00
320  3.1900000000000D+00  0.0000000000000D+00  0.0000000000000D+00
321  3.2000000000000D+00  0.0000000000000D+00  0.0000000000000D+00
322  3.2100000000000D+00  0.0000000000000D+00  0.0000000000000D+00
323  3.2200000000000D+00  0.0000000000000D+00  0.0000000000000D+00
324  3.2300000000000D+00  0.0000000000000D+00  0.0000000000000D+00
325  3.2400000000000D+00  0.0000000000000D+00  0.0000000000000D+00
326  3.2500000000000D+00  0.0000000000000D+00  0.0000000000000D+00
327  3.2600000000000D+00  0.0000000000000D+00  0.0000000000000D+00
328  3.2700000000000D+00  0.0000000000000D+00  0.0000000000000D+00
329  3.2800000000000D+00  0.0000000000000D+00  0.0000000000000D+00
330  3.2900000000000D+00  0.0000000000000D+00  0.0000000000000D+00
331  3.3000000000000D+00  0.0000000000000D+00  0.0000000000000D+00
332  3.3100000000000D+00  0.0000000000000D+00  0.0000000000000D+00
333  3.3200000000000D+00  0.0000000000000D+00  0.0000000000000D+00
334  3.3300000000000D+00  0.0000000000000D+00  0.0000000000000D+00
335  3.3400000000000D+00  0.0000000000000D+00  0.0000000000000D+00
336  3.3500000000000D+00  0.0000000000000D+00  0.0000000000000D+00
337  3.3600000000000D+00  0.0000000000000D+00  0.0000000000000D+00
338  3.3700000000000D+00  0.0000000000000D+00  0.0000000000000D+00
339  3.3800000000000D+00  0.0000000000000D+00  0.0000000000000D+00
340  3.3900000000000D+00  0.0000000000000D+00  0.0000000000000D+00
341  3.4000000000000D+00  0.0000000000000D+00  0.0000000000000D+00
342  3.4100000000000D+00  0.0000000000000D+00  0.0000000000000D+00
343  3.4200000000000D+00  0.0000000000000D+00  0.0000000000000D+00
344  3.4300000000000D+00  0.0000000000000D+00  0.0000000000000D+00
345  3.4400000000000D+00  0.0000000000000D+00  0.0000000000000D+00
346  3.4500000000000D+00  0.0000000000000D+00  0.0000000000000D+00
347  3.4600000000000D+00  0.0000000000000D+00  0.0000000000000D+00
348  3.4700000000000D+00  0.0000000000000D+00  0.0000000000000D+00
349  3.4800000000000D+00  0.0000000000000D+00  0.0000000000000D+00
350  3.4900000000000D+00  0.0000000000000D+00  0.0000000000000D+00
351  3.5000000000000D+00  0.0000000000000D+00  0.0000000000000D+00
352  3.5100000000000D+00  0.0000000000000D+00  0.0000000000000D+00
353  3.5200000000000D+00  0.0000000000000D+00  0.0000000000000D+00
354  3.5300000000000D+00  0.0000000000000D+00  0.0000000000000D+00
355  3.5400000000000D+00  0.0000000000000D+00  0.0000000000000D+00
356  3.5500000000000D+00  0.0000000000000D+00  0.0000000000000D+00
357  3.5600000000000D+00  0.0000000000000D+00  0.0000000000000D+00
358  3.5700000000000D+00  0.0000000000000D+00  0.0000000000000D+00
359  3.5800000000000D+00  0.0000000000000D+00  0.0000000000000D+00
360  3.5900000000000D+00  0.0000000000000D+00  0.0000000000000D+00
361  3.6000000000000D+00  0.0000000000000D+00  0.0000000000000D+00
362  3.6100000000000D+00  0.0000000000000D+00  0.0000000000000D+00
363  3.6200000000000D+00  0.0000000000000D+00  0.0000000000000D+00
364  3.6300000000000D+00  0.0000000000000D+00  0.0000000000000D+00
365  3.6400000000000D+00  0.0000000000000D+00  0.0000000000000D+00
366  3.6500000000000D+00  0.0000000000000D+00  0.0000000000000D+00
367  3.6600000000000D+00  0.0000000000000D+00  0.0000000000000D+00
368  3.6700000000000D+00  0.0000000000000D+00  0.0000000000000D+00
369  3.6800000000000D+00  0.0000000000000D+00  0.0000000000000D+00
370  3.6900000000000D+00  0.0000000000000D+00  0.0000000000000D+00
371  3.7000000000000D+00  0.0000000000000D+00  0.0000000000000D+00
372  3.7100000000000D+00  0.0000000000000D+00  0.0000000000000D+00
373  3.7200000000000D+00  0.0000000000000D+00  0.0000000000000D+00
374  3.7300000000000D+00  0.0000000000000D+00  0.0000000000000D+00
375  3.7400000000000D+00  0.0000000000000D+00  0.0000000000000D+00
376  3.7500000000000D+00  0.0000000000000D+00  0.0000000000000D+00
377  3.7600000000000D+00  0.0000000000000D+00  0.0000000000000D+00
378  3.7700000000000D+00  0.0000000000000D+00  0.0000000000000D+00
379  3.7800000000000D+00  0.0000000000000D+00  0.0000000000000D+00
380  3.7900000000000D+00  0.0000000000000D+00  0.0000000000000D+00
381  3.8000000000000D+00  0.0000000000000D+00  0.0000000000000D+00
382  3.8100000000000D+00  0.0000000000000D+00  0.0000000000000D+00
383  3.8200000000000D+00  0.0000000000000D+00  0.0000000000000D+00
384  3.8300000000000D+00  0.0000000000000D+00  0.0000000000000D+00
385  3.8400000000000D+00  0.0000000000000D+00  0.0000000000000D+00
386  3.8500000000000D+00  0.0000000000000D+00  0.0000000000000D+00
387  3.8600000000000D+00  0.0000000000000D+00  0.0000000000000D+00
388  3.8700000000000D+00  0.0000000000000D+00  0.0000000000000D+00
389  3.8800000000000D+00  0.0000000000000D+00  0.0000000000000D+00
390  3.8900000000000D+00  0.0000000000000D+00  0.0000000000000D+00
391  3.9000000000000D+00  0.0000000000000D+00  0.0000000000000D+00
392  3.9100000000000D+00  0.0000000000000D+00  0.0000000000000D+00
393  3.9200000000000D+00  0.0000000000000D+00  0.0000000000000D+00
394  3.9300000000000D+00  0.0000000000000D+00  0.0000000000000D+00
395  3.9400000000000D+00  0.0000000000000D+00  0.0000000000000D+00
396  3.9500000000000D+00  0.0000000000000D+00  0.0000000000000D+00
397  3.9600000000000D+00  0.0000000000000D+00  0.0000000000000D+00
398  3.9700000000000D+00  0.0000000000000D+00  0.0000000000000D+00
399  3.9800000000000D+00  0.0000000000000D+00  0.0000000000000D+00
400  3.9900000000000D+00  0.0000000000000D+00  0.0000000000000D+00
401  4.0000000000000D+00  0.0000000000000D+00  0.0000000000000D+00
402  4.0100000000000D+00  0.0000000000000D+00  0.0000000000000D+00
403  4.0200000000000D+00  0.0000000000000D+00  0.0000000000000D+00
404  4.0300000000000D+00  0.0000000000000D+00  0.0000000000000D+00
405  4.0400000000000D+00  0.0000000000000D+00  0.0000000000000D+00
406  4.0500000000000D+00  0.0000000000000D+00  0.0000000000000D+00
407  4.0600000000000D+00  0.0000000000000D+00  0.0000000000000D+00
408  4.0700000000000D+00  0.0000000000000D+00  0.0000000000000D+00
409  4.0800000000000D+00  0.0000000000000D+00  0.0000000000000D+00
410  4.0900000000000D+00  0.0000000000000D+00  0.0000000000000D+00
411  4.1000000000000D+00  0.0000000000000D+00  0.0000000000000D+00
412  4.1100000000000D+00  0.0000000000000D+00  0.0000000000000D+00
413  4.1200000000000D+00  0.0000000000000D+00  0.0000000000000D+00
414  4.1300000000000D+00  0.0000000000000D+00  0.0000000000000D+00
415  4.1400000000000D+00  0.0000000000000D+00  0.0000000000000D+00
416  4.1500000000000D+00  0.0000000000000D+00  0.0000000000000D+00
417  4.1600000000000D+00  0.0000000000000D+00  0.0000000000000D+00
418  4.1700000000000D+00  0.0000000000000D+00  0.0000000000000D+00
419  4.1800000000000D+00  0.0000000000000D+00  0.0000000000000D+00
420  4.1900000000000D+00  0.0000000000000D+00  0.0000000000000D+00
421  4.2000000000000D+00  0.0000000000000D+00  0.0000000000000D+00
422  4.2100000000000D+00  0.0000000000000D+00  0.0000000000000D+00
423  4.2200000000000D+00  0.0000000000000D+00  0.0000000000000D+00
424  4.2300000000000D+00  0.0000000000000D+00  0.0000000000000D+00
425  4.2400000000000D+00  0.0000000000000D+00  0.0000000000000D+00
426  4.2500000000000D+00  0.0000000000000D+00  0.0000000000000D+00
427  4.2600000000000D+00  0.0000000000000D+00  0.0000000000000D+00
428  4.2700000000000D+00  0.0000000000000D+00  0.0000000000000D+00
429  4.2800000000000D+00  0.0000000000000D+00  0.0000000000000D+00
430  4.2900000000000D+00  0.0000000000000D+00  0.0000000000000D+00
431  4.3000000000000D+00  0.0000000000000D+00  0.0000000000000D+00
432  4.3100000000000D+00  0.0000000000000D+00  0.0000000000000D+00
433  4.3200000000000D+00  0.0000000000000D+00  0.0000000000000D+00
434  4.3300000000000D+00  0.0000000000000D+00  0.0000000000000D+00
435  4.3400000000000D+00  0.0000000000000D+00  0.0000000000000D+00
436  4.3500000000000D+00  0.0000000000000D+00  0.0000000000000D+00
437  4.3600000000000D+00  0.0000000000000D+00  0.0000000000000D+00
438  4.3700000000000D+00  0.0000000000000D+00  0.0000000000000D+00
439  4.3800000000000D+00  0.0000000000000D+00  0.0000000000000D+00
440  4.3900000000000D+00  0.0000000000000D+00  0.0000000000000D+00
441  4.4000000000000D+00  0.0000000000000D+00  0.0000000000000D+00
442  4.4100000000000D+00  0.0000000000000D+00  0.0000000000000D+00
443  4.4200000000000D+00  0.0000000000000D+00  0.0000000000000D+00