Br    ONCVPSP-3.3.0  r_core=   1.81012   1.51356   1.92136
35.0000      7.0000      180112    zatom,zion,pspd
8 -116133   2     4   600     0    pspcod,pspxc,lmax,lloc,mmax,r2well
5.99000000  8.00000000  0.00000000    rchrg fchrg qchrg
2     2     2     0     0    nproj
1     1           extension_switch
0                         8.5086902198268D+00  8.9794560143855D-01
1  0.0000000000000D+00 -1.9972740128438D-10  3.9635750237466D-10
2  1.0000000000000D-02  3.8712016942159D-02 -1.7305957170698D-02
3  2.0000000000000D-02  7.7382623295976D-02 -3.4551478356788D-02
4  3.0000000000000D-02  1.1597067143585D-01 -5.1676696574830D-02
5  4.0000000000000D-02  1.5443553583768D-01 -6.8622874928561D-02
6  5.0000000000000D-02  1.9273736462115D-01 -8.5332951966741D-02
7  6.0000000000000D-02  2.3083731982553D-01 -1.0175206370290D-01
8  7.0000000000000D-02  2.6869780290102D-01 -1.1782803498864D-01
9  8.0000000000000D-02  3.0628266209741D-01 -1.3351183332848D-01
10  9.0000000000000D-02  3.4355737867666D-01 -1.4875797871067D-01
11  1.0000000000000D-01  3.8048922916335D-01 -1.6352490359895D-01
12  1.1000000000000D-01  4.1704742117218D-01 -1.7777525787813D-01
13  1.2000000000000D-01  4.5320320071210D-01 -1.9147615426336D-01
14  1.3000000000000D-01  4.8892992925618D-01 -2.0459935046113D-01
15  1.4000000000000D-01  5.2420312928154D-01 -2.1712136519880D-01
16  1.5000000000000D-01  5.5900049741798D-01 -2.2902352611012D-01
17  1.6000000000000D-01  5.9330188479307D-01 -2.4029194836460D-01
18  1.7000000000000D-01  6.2708924461851D-01 -2.5091744384887D-01
19  1.8000000000000D-01  6.6034654752283D-01 -2.6089536163693D-01
20  1.9000000000000D-01  6.9305966559222D-01 -2.7022536141099D-01
21  2.0000000000000D-01  7.2521622652915D-01 -2.7891112240538D-01
22  2.1000000000000D-01  7.5680543977133D-01 -2.8695999133062D-01
23  2.2000000000000D-01  7.8781789682618D-01 -2.9438257358229D-01
24  2.3000000000000D-01  8.1824534846244D-01 -3.0119227283946D-01
25  2.4000000000000D-01  8.4808046175660D-01 -3.0740478489950D-01
26  2.5000000000000D-01  8.7731656031151D-01 -3.1303755227156D-01
27  2.6000000000000D-01  9.0594735124507D-01 -3.1810918664977D-01
28  2.7000000000000D-01  9.3396664278263D-01 -3.2263886690295D-01
29  2.8000000000000D-01  9.6136805647630D-01 -3.2664572064240D-01
30  2.9000000000000D-01  9.8814473821324D-01 -3.3014819775753D-01
31  3.0000000000000D-01  1.0142890722622D+00 -3.3316344453650D-01
32  3.1000000000000D-01  1.0397924026409D+00 -3.3570668711124D-01
33  3.2000000000000D-01  1.0646447660666D+00 -3.3779063298177D-01
34  3.3000000000000D-01  1.0888346406748D+00 -3.3942489928207D-01
35  3.4000000000000D-01  1.1123487145636D+00 -3.4061547624890D-01
36  3.5000000000000D-01  1.1351716780350D+00 -3.4136423404837D-01
37  3.6000000000000D-01  1.1572860431735D+00 -3.4166848070420D-01
38  3.7000000000000D-01  1.1786719941158D+00 -3.4152057836156D-01
39  3.8000000000000D-01  1.1993072710391D+00 -3.4090762451577D-01
40  3.9000000000000D-01  1.2191670905211D+00 -3.3981120414272D-01
41  4.0000000000000D-01  1.2382241045174D+00 -3.3820721789449D-01
42  4.1000000000000D-01  1.2564483997598D+00 -3.3606579067862D-01
43  4.2000000000000D-01  1.2738075389035D+00 -3.3335126403141D-01
44  4.3000000000000D-01  1.2902666442625D+00 -3.3002227473492D-01
45  4.4000000000000D-01  1.3057885244570D+00 -3.2603192112480D-01
46  4.5000000000000D-01  1.3203338437775D+00 -3.2132801750354D-01
47  4.6000000000000D-01  1.3338613335394D+00 -3.1585343602217D-01
48  4.7000000000000D-01  1.3463280441819D+00 -3.0954653433550D-01
49  4.8000000000000D-01  1.3576896363414D+00 -3.0234166628434D-01
50  4.9000000000000D-01  1.3679007086313D+00 -2.9416977182402D-01
51  5.0000000000000D-01  1.3769151593724D+00 -2.8495904141559D-01
52  5.1000000000000D-01  1.3846865790664D+00 -2.7463564913438D-01
53  5.2000000000000D-01  1.3911686699747D+00 -2.6312454784345D-01
54  5.3000000000000D-01  1.3963156887826D+00 -2.5035031893689D-01
55  5.4000000000000D-01  1.4000829079804D+00 -2.3623806839006D-01
56  5.5000000000000D-01  1.4024270912952D+00 -2.2071436017038D-01
57  5.6000000000000D-01  1.4033069782627D+00 -2.0370817747281D-01
58  5.7000000000000D-01  1.4026837728307D+00 -1.8515190175355D-01
59  5.8000000000000D-01  1.4005216307524D+00 -1.6498229915370D-01
60  5.9000000000000D-01  1.3967881404488D+00 -1.4314150363383D-01
61  6.0000000000000D-01  1.3914547920042D+00 -1.1957798598634D-01
62  6.1000000000000D-01  1.3844974289986D+00 -9.4247497857881D-02
63  6.2000000000000D-01  1.3758966779902D+00 -6.7113979997945D-02
64  6.3000000000000D-01  1.3656383506234D+00 -3.8150424156914D-02
65  6.4000000000000D-01  1.3537138135612D+00 -7.3396783797071D-03
66  6.5000000000000D-01  1.3401203217223D+00  2.5324814118693D-02
67  6.6000000000000D-01  1.3248613106373D+00  5.9838351755459D-02
68  6.7000000000000D-01  1.3079466441204D+00  9.6184395662730D-02
69  6.8000000000000D-01  1.2893928138837D+00  1.3433408289457D-01
70  6.9000000000000D-01  1.2692230881945D+00  1.7424583874981D-01
71  7.0000000000000D-01  1.2474676071803D+00  2.1586509426789D-01
72  7.1000000000000D-01  1.2241634229247D+00  2.5912411395035D-01
73  7.2000000000000D-01  1.1993544830609D+00  3.0394193768662D-01
74  7.3000000000000D-01  1.1730915571479D+00  3.5022443974256D-01
75  7.4000000000000D-01  1.1454321057070D+00  3.9786450651014D-01
76  7.5000000000000D-01  1.1164400923912D+00  4.4674233352876D-01
77  7.6000000000000D-01  1.0861857403565D+00  4.9672584108627D-01
78  7.7000000000000D-01  1.0547452344852D+00  5.4767120651132D-01
79  7.8000000000000D-01  1.0222003716850D+00  5.9942351007221D-01
80  7.9000000000000D-01  9.8863816203145D-01  6.5181749023978D-01
81  8.0000000000000D-01  9.5415038404049D-01  7.0467840294386D-01
82  8.1000000000000D-01  9.1883309784345D-01  7.5782297837925D-01
83  8.2000000000000D-01  8.8278612047707D-01  8.1106046790391D-01
84  8.3000000000000D-01  8.4611246790213D-01  8.6419377263417D-01
85  8.4000000000000D-01  8.0891776871135D-01  9.1702064448543D-01
86  8.5000000000000D-01  7.7130965478156D-01  9.6933494964537D-01
87  8.6000000000000D-01  7.3339713436244D-01  1.0209279838051D+00
88  8.7000000000000D-01  6.9528995327083D-01  1.0715898279213D+00
89  8.8000000000000D-01  6.5709794997467D-01  1.1211107328430D+00
90  8.9000000000000D-01  6.1893041040232D-01  1.1692825208195D+00
91  9.0000000000000D-01  5.8089542830075D-01  1.2158999917036D+00
92  9.1000000000000D-01  5.4309927689086D-01  1.2607623215973D+00
93  9.2000000000000D-01  5.0564579742961D-01  1.3036744417312D+00
94  9.3000000000000D-01  4.6863581009044D-01  1.3444483855493D+00
95  9.4000000000000D-01  4.3216655231597D-01  1.3829045922619D+00
96  9.5000000000000D-01  3.9633114948561D-01  1.4188731555455D+00
97  9.6000000000000D-01  3.6121812237566D-01  1.4521950065949D+00
98  9.7000000000000D-01  3.2691093548047D-01  1.4827230213656D+00
99  9.8000000000000D-01  2.9348758981543D-01  1.5103230425678D+00
100  9.9000000000000D-01  2.6102026332513D-01  1.5348748078114D+00
101  1.0000000000000D+00  2.2957500150967D-01  1.5562727761917D+00
102  1.0100000000000D+00  1.9921146033534D-01  1.5744268465861D+00
103  1.0200000000000D+00  1.6998270293784D-01  1.5892629619619D+00
104  1.0300000000000D+00  1.4193505104623D-01  1.6007235950959D+00
105  1.0400000000000D+00  1.1510799149328D-01  1.6087681121981D+00
106  1.0500000000000D+00  8.9534137601709D-02  1.6133730120817D+00
107  1.0600000000000D+00  6.5239244656661D-02  1.6145320397081D+00
108  1.0700000000000D+00  4.2242278146741D-02  1.6122561740462D+00
109  1.0800000000000D+00  2.0555532914286D-02  1.6065734913642D+00
110  1.0900000000000D+00  1.8480086741892D-04  1.5975289061659D+00
111  1.1000000000000D+00 -1.8870415543321D-02  1.5851837930238D+00
112  1.1100000000000D+00 -3.6616647346218D-02  1.5696154936931D+00
113  1.1200000000000D+00 -5.3066164168588D-02  1.5509167147565D+00
114  1.1300000000000D+00 -6.8236644424152D-02  1.5291948220625D+00
115  1.1400000000000D+00 -8.2150814760016D-02  1.5045710388485D+00
116  1.1500000000000D+00 -9.4836063263681D-02  1.4771795554428D+00
117  1.1600000000000D+00 -1.0632403103927D-01  1.4471665588957D+00
118  1.1700000000000D+00 -1.1665018688661D-01  1.4146891915292D+00
119  1.1800000000000D+00 -1.2585338988618D-01  1.3799144477538D+00
120  1.1900000000000D+00 -1.3397544468831D-01  1.3430180190018D+00
121  1.2000000000000D+00 -1.4106065421096D-01  1.3041830967256D+00
122  1.2100000000000D+00 -1.4715537436914D-01  1.2635991435796D+00
123  1.2200000000000D+00 -1.5230757530059D-01  1.2214606429961D+00
124  1.2300000000000D+00 -1.5656641326747D-01  1.1779658372122D+00
125  1.2400000000000D+00 -1.5998181715499D-01  1.1333154635913D+00
126  1.2500000000000D+00 -1.6260409332403D-01  1.0877114990264D+00
127  1.2600000000000D+00 -1.6448355198744D-01  1.0413559215795D+00
128  1.2700000000000D+00 -1.6567015796089D-01  9.9444949806342D-01
129  1.2800000000000D+00 -1.6621320851618D-01  9.4719060620986D-01
130  1.2900000000000D+00 -1.6616104015407D-01  8.9977409880487D-01
131  1.3000000000000D+00 -1.6556076589185D-01  8.5239021675699D-01
132  1.3100000000000D+00 -1.6445804450876D-01  8.0522355794221D-01
133  1.3200000000000D+00 -1.6289688206512D-01  7.5845210681964D-01
134  1.3300000000000D+00 -1.6091946605064D-01  7.1224632978299D-01
135  1.3400000000000D+00 -1.5856603213363D-01  6.6676834068417D-01
136  1.3500000000000D+00 -1.5587476242697D-01  6.2217113890118D-01
137  1.3600000000000D+00 -1.5288171454132D-01  5.7859792297292D-01
138  1.3700000000000D+00 -1.4962077985841D-01  5.3618148129254D-01
139  1.3800000000000D+00 -1.4612366891413D-01  4.9504365988079D-01
140  1.3900000000000D+00 -1.4241992222389D-01  4.5529490849777D-01
141  1.4000000000000D+00 -1.3853694359889D-01  4.1703390316892D-01
142  1.4100000000000D+00 -1.3450005352539D-01  3.8034724421286D-01
143  1.4200000000000D+00 -1.3033255968146D-01  3.4530922802438D-01
144  1.4300000000000D+00 -1.2605584138856D-01  3.1198168898432D-01
145  1.4400000000000D+00 -1.2168944503547D-01  2.8041390954705D-01
146  1.4500000000000D+00 -1.1725118705934D-01  2.5064259379291D-01
147  1.4600000000000D+00 -1.1275726146700D-01  2.2269190103593D-01
148  1.4700000000000D+00 -1.0822234759944D-01  1.9657353056180D-01
149  1.4800000000000D+00 -1.0365971921646D-01  1.7228687328660D-01
150  1.4900000000000D+00 -9.9081343424443D-02  1.4981918072556D-01
151  1.5000000000000D+00 -9.4498002885212D-02  1.2914594116931D-01
152  1.5100000000000D+00 -8.9919286392983D-02  1.1023063936285D-01
153  1.5200000000000D+00 -8.5353761976398D-02  9.3025592094248D-02
154  1.5300000000000D+00 -8.0809336771816D-02  7.7473947020685D-02
155  1.5400000000000D+00 -7.6293590760700D-02  6.3511464321408D-02
156  1.5500000000000D+00 -7.1814210055758D-02  5.1068851887431D-02
157  1.5600000000000D+00 -6.7379099730385D-02  4.0072441713622D-02
158  1.5700000000000D+00 -6.2996421269400D-02  3.0444502293508D-02
159  1.5800000000000D+00 -5.8674708875513D-02  2.2104163311963D-02
160  1.5900000000000D+00 -5.4422911838460D-02  1.4968014226949D-02
161  1.6000000000000D+00 -5.0250430757728D-02  8.9507910680405D-03
162  1.6100000000000D+00 -4.6167127145948D-02  3.9660142486979D-03
163  1.6200000000000D+00 -4.2183311077182D-02 -7.3392701646925D-05
164  1.6300000000000D+00 -3.8309708871993D-02 -3.2545089534932D-03
165  1.6400000000000D+00 -3.4557410633711D-02 -5.6638511140396D-03
166  1.6500000000000D+00 -3.0937800453341D-02 -7.3868371066730D-03
167  1.6600000000000D+00 -2.7462470244577D-02 -8.5072818890978D-03
168  1.6700000000000D+00 -2.4143120046060D-02 -9.1069251016961D-03
169  1.6800000000000D+00 -2.0991446496496D-02 -9.2649920590740D-03
170  1.6900000000000D+00 -1.8019022440955D-02 -9.0577878711502D-03
171  1.7000000000000D+00 -1.5237169727487D-02 -8.5583252699458D-03
172  1.7100000000000D+00 -1.2656828279072D-02 -7.8359854914160D-03
173  1.7200000000000D+00 -1.0288423584398D-02 -6.9562123427837D-03
174  1.7300000000000D+00 -8.1417356413246D-03 -5.9802383690945D-03
175  1.7400000000000D+00 -6.2257715326414D-03 -4.9648430370112D-03
176  1.7500000000000D+00 -4.5490672512805D-03 -3.9632165736087D-03
177  1.7600000000000D+00 -3.1183160608136D-03 -3.0215801613823D-03
178  1.7700000000000D+00 -1.9368139264065D-03 -2.1732531403632D-03
179  1.7800000000000D+00 -1.0112075620366D-03 -1.4603085236094D-03
180  1.7900000000000D+00 -3.5459415169621D-04 -9.5877347109781D-04
181  1.8000000000000D+00  3.5472793986947D-05 -6.9065855310275D-04
182  1.8100000000000D+00  1.8243013207745D-04 -5.0602354765218D-04
183  1.8200000000000D+00  1.3175736168679D-04 -2.5413699494994D-04
184  1.8300000000000D+00  1.8351239542692D-05 -3.0777032415730D-05
185  1.8400000000000D+00 -2.8439851428183D-05  4.4969475033718D-05
186  1.8500000000000D+00 -1.2615997937369D-05  1.8924086087754D-05
187  1.8600000000000D+00  5.0983231369522D-06 -8.9669795548718D-06
188  1.8700000000000D+00  4.3009901927888D-06 -7.3840491586540D-06
189  1.8800000000000D+00 -3.0211065309934D-07  8.3219187031931D-07
190  1.8900000000000D+00 -4.6810593813963D-07  1.2894413095718D-06
191  1.9000000000000D+00  0.0000000000000D+00  0.0000000000000D+00
192  1.9100000000000D+00  0.0000000000000D+00  0.0000000000000D+00
193  1.9200000000000D+00  0.0000000000000D+00  0.0000000000000D+00
194  1.9300000000000D+00  0.0000000000000D+00  0.0000000000000D+00
195  1.9400000000000D+00  0.0000000000000D+00  0.0000000000000D+00
196  1.9500000000000D+00  0.0000000000000D+00  0.0000000000000D+00
197  1.9600000000000D+00  0.0000000000000D+00  0.0000000000000D+00
198  1.9700000000000D+00  0.0000000000000D+00  0.0000000000000D+00
199  1.9800000000000D+00  0.0000000000000D+00  0.0000000000000D+00
200  1.9900000000000D+00  0.0000000000000D+00  0.0000000000000D+00
201  2.0000000000000D+00  0.0000000000000D+00  0.0000000000000D+00
202  2.0100000000000D+00  0.0000000000000D+00  0.0000000000000D+00
203  2.0200000000000D+00  0.0000000000000D+00  0.0000000000000D+00
204  2.0300000000000D+00  0.0000000000000D+00  0.0000000000000D+00
205  2.0400000000000D+00  0.0000000000000D+00  0.0000000000000D+00
206  2.0500000000000D+00  0.0000000000000D+00  0.0000000000000D+00
207  2.0600000000000D+00  0.0000000000000D+00  0.0000000000000D+00
208  2.0700000000000D+00  0.0000000000000D+00  0.0000000000000D+00
209  2.0800000000000D+00  0.0000000000000D+00  0.0000000000000D+00
210  2.0900000000000D+00  0.0000000000000D+00  0.0000000000000D+00
211  2.1000000000000D+00  0.0000000000000D+00  0.0000000000000D+00
212  2.1100000000000D+00  0.0000000000000D+00  0.0000000000000D+00
213  2.1200000000000D+00  0.0000000000000D+00  0.0000000000000D+00
214  2.1300000000000D+00  0.0000000000000D+00  0.0000000000000D+00
215  2.1400000000000D+00  0.0000000000000D+00  0.0000000000000D+00
216  2.1500000000000D+00  0.0000000000000D+00  0.0000000000000D+00
217  2.1600000000000D+00  0.0000000000000D+00  0.0000000000000D+00
218  2.1700000000000D+00  0.0000000000000D+00  0.0000000000000D+00
219  2.1800000000000D+00  0.0000000000000D+00  0.0000000000000D+00
220  2.1900000000000D+00  0.0000000000000D+00  0.0000000000000D+00
221  2.2000000000000D+00  0.0000000000000D+00  0.0000000000000D+00
222  2.2100000000000D+00  0.0000000000000D+00  0.0000000000000D+00
223  2.2200000000000D+00  0.0000000000000D+00  0.0000000000000D+00
224  2.2300000000000D+00  0.0000000000000D+00  0.0000000000000D+00
225  2.2400000000000D+00  0.0000000000000D+00  0.0000000000000D+00
226  2.2500000000000D+00  0.0000000000000D+00  0.0000000000000D+00
227  2.2600000000000D+00  0.0000000000000D+00  0.0000000000000D+00
228  2.2700000000000D+00  0.0000000000000D+00  0.0000000000000D+00
229  2.2800000000000D+00  0.0000000000000D+00  0.0000000000000D+00
230  2.2900000000000D+00  0.0000000000000D+00  0.0000000000000D+00
231  2.3000000000000D+00  0.0000000000000D+00  0.0000000000000D+00
232  2.3100000000000D+00  0.0000000000000D+00  0.0000000000000D+00
233  2.3200000000000D+00  0.0000000000000D+00  0.0000000000000D+00
234  2.3300000000000D+00  0.0000000000000D+00  0.0000000000000D+00
235  2.3400000000000D+00  0.0000000000000D+00  0.0000000000000D+00
236  2.3500000000000D+00  0.0000000000000D+00  0.0000000000000D+00
237  2.3600000000000D+00  0.0000000000000D+00  0.0000000000000D+00
238  2.3700000000000D+00  0.0000000000000D+00  0.0000000000000D+00
239  2.3800000000000D+00  0.0000000000000D+00  0.0000000000000D+00
240  2.3900000000000D+00  0.0000000000000D+00  0.0000000000000D+00
241  2.4000000000000D+00  0.0000000000000D+00  0.0000000000000D+00
242  2.4100000000000D+00  0.0000000000000D+00  0.0000000000000D+00
243  2.4200000000000D+00  0.0000000000000D+00  0.0000000000000D+00
244  2.4300000000000D+00  0.0000000000000D+00  0.0000000000000D+00
245  2.4400000000000D+00  0.0000000000000D+00  0.0000000000000D+00
246  2.4500000000000D+00  0.0000000000000D+00  0.0000000000000D+00
247  2.4600000000000D+00  0.0000000000000D+00  0.0000000000000D+00
248  2.4700000000000D+00  0.0000000000000D+00  0.0000000000000D+00
249  2.4800000000000D+00  0.0000000000000D+00  0.0000000000000D+00
250  2.4900000000000D+00  0.0000000000000D+00  0.0000000000000D+00
251  2.5000000000000D+00  0.0000000000000D+00  0.0000000000000D+00
252  2.5100000000000D+00  0.0000000000000D+00  0.0000000000000D+00
253  2.5200000000000D+00  0.0000000000000D+00  0.0000000000000D+00
254  2.5300000000000D+00  0.0000000000000D+00  0.0000000000000D+00
255  2.5400000000000D+00  0.0000000000000D+00  0.0000000000000D+00
256  2.5500000000000D+00  0.0000000000000D+00  0.0000000000000D+00
257  2.5600000000000D+00  0.0000000000000D+00  0.0000000000000D+00
258  2.5700000000000D+00  0.0000000000000D+00  0.0000000000000D+00
259  2.5800000000000D+00  0.0000000000000D+00  0.0000000000000D+00
260  2.5900000000000D+00  0.0000000000000D+00  0.0000000000000D+00
261  2.6000000000000D+00  0.0000000000000D+00  0.0000000000000D+00
262  2.6100000000000D+00  0.0000000000000D+00  0.0000000000000D+00
263  2.6200000000000D+00  0.0000000000000D+00  0.0000000000000D+00
264  2.6300000000000D+00  0.0000000000000D+00  0.0000000000000D+00
265  2.6400000000000D+00  0.0000000000000D+00  0.0000000000000D+00
266  2.6500000000000D+00  0.0000000000000D+00  0.0000000000000D+00
267  2.6600000000000D+00  0.0000000000000D+00  0.0000000000000D+00
268  2.6700000000000D+00  0.0000000000000D+00  0.0000000000000D+00
269  2.6800000000000D+00  0.0000000000000D+00  0.0000000000000D+00
270  2.6900000000000D+00  0.0000000000000D+00  0.0000000000000D+00
271  2.7000000000000D+00  0.0000000000000D+00  0.0000000000000D+00
272  2.7100000000000D+00  0.0000000000000D+00  0.0000000000000D+00
273  2.7200000000000D+00  0.0000000000000D+00  0.0000000000000D+00
274  2.7300000000000D+00  0.0000000000000D+00  0.0000000000000D+00
275  2.7400000000000D+00  0.0000000000000D+00  0.0000000000000D+00
276  2.7500000000000D+00  0.0000000000000D+00  0.0000000000000D+00
277  2.7600000000000D+00  0.0000000000000D+00  0.0000000000000D+00
278  2.7700000000000D+00  0.0000000000000D+00  0.0000000000000D+00
279  2.7800000000000D+00  0.0000000000000D+00  0.0000000000000D+00
280  2.7900000000000D+00  0.0000000000000D+00  0.0000000000000D+00
281  2.8000000000000D+00  0.0000000000000D+00  0.0000000000000D+00
282  2.8100000000000D+00  0.0000000000000D+00  0.0000000000000D+00
283  2.8200000000000D+00  0.0000000000000D+00  0.0000000000000D+00
284  2.8300000000000D+00  0.0000000000000D+00  0.0000000000000D+00
285  2.8400000000000D+00  0.0000000000000D+00  0.0000000000000D+00
286  2.8500000000000D+00  0.0000000000000D+00  0.0000000000000D+00
287  2.8600000000000D+00  0.0000000000000D+00  0.0000000000000D+00
288  2.8700000000000D+00  0.0000000000000D+00  0.0000000000000D+00
289  2.8800000000000D+00  0.0000000000000D+00  0.0000000000000D+00
290  2.8900000000000D+00  0.0000000000000D+00  0.0000000000000D+00
291  2.9000000000000D+00  0.0000000000000D+00  0.0000000000000D+00
292  2.9100000000000D+00  0.0000000000000D+00  0.0000000000000D+00
293  2.9200000000000D+00  0.0000000000000D+00  0.0000000000000D+00
294  2.9300000000000D+00  0.0000000000000D+00  0.0000000000000D+00
295  2.9400000000000D+00  0.0000000000000D+00  0.0000000000000D+00
296  2.9500000000000D+00  0.0000000000000D+00  0.0000000000000D+00
297  2.9600000000000D+00  0.0000000000000D+00  0.0000000000000D+00
298  2.9700000000000D+00  0.0000000000000D+00  0.0000000000000D+00
299  2.9800000000000D+00  0.0000000000000D+00  0.0000000000000D+00
300  2.9900000000000D+00  0.0000000000000D+00  0.0000000000000D+00
301  3.0000000000000D+00  0.0000000000000D+00  0.0000000000000D+00
302  3.0100000000000D+00  0.0000000000000D+00  0.0000000000000D+00
303  3.0200000000000D+00  0.0000000000000D+00  0.0000000000000D+00
304  3.0300000000000D+00  0.0000000000000D+00  0.0000000000000D+00
305  3.0400000000000D+00  0.0000000000000D+00  0.0000000000000D+00
306  3.0500000000000D+00  0.0000000000000D+00  0.0000000000000D+00
307  3.0600000000000D+00  0.0000000000000D+00  0.0000000000000D+00
308  3.0700000000000D+00  0.0000000000000D+00  0.0000000000000D+00
309  3.0800000000000D+00  0.0000000000000D+00  0.0000000000000D+00
310  3.0900000000000D+00  0.0000000000000D+00  0.0000000000000D+00
311  3.1000000000000D+00  0.0000000000000D+00  0.0000000000000D+00
312  3.1100000000000D+00  0.0000000000000D+00  0.0000000000000D+00
313  3.1200000000000D+00  0.0000000000000D+00  0.0000000000000D+00
314  3.1300000000000D+00  0.0000000000000D+00  0.0000000000000D+00
315  3.1400000000000D+00  0.0000000000000D+00  0.0000000000000D+00
316  3.1500000000000D+00  0.0000000000000D+00  0.0000000000000D+00
317  3.1600000000000D+00  0.0000000000000D+00  0.0000000000000D+00
318  3.1700000000000D+00  0.0000000000000D+00  0.0000000000000D+00
319  3.1800000000000D+00  0.0000000000000D+00  0.0000000000000D+00
320  3.1900000000000D+00  0.0000000000000D+00  0.0000000000000D+00
321  3.2000000000000D+00  0.0000000000000D+00  0.0000000000000D+00
322  3.2100000000000D+00  0.0000000000000D+00  0.0000000000000D+00
323  3.2200000000000D+00  0.0000000000000D+00  0.0000000000000D+00
324  3.2300000000000D+00  0.0000000000000D+00  0.0000000000000D+00
325  3.2400000000000D+00  0.0000000000000D+00  0.0000000000000D+00
326  3.2500000000000D+00  0.0000000000000D+00  0.0000000000000D+00
327  3.2600000000000D+00  0.0000000000000D+00  0.0000000000000D+00
328  3.2700000000000D+00  0.0000000000000D+00  0.0000000000000D+00
329  3.2800000000000D+00  0.0000000000000D+00  0.0000000000000D+00
330  3.2900000000000D+00  0.0000000000000D+00  0.0000000000000D+00
331  3.3000000000000D+00  0.0000000000000D+00  0.0000000000000D+00
332  3.3100000000000D+00  0.0000000000000D+00  0.0000000000000D+00
333  3.3200000000000D+00  0.0000000000000D+00  0.0000000000000D+00
334  3.3300000000000D+00  0.0000000000000D+00  0.0000000000000D+00
335  3.3400000000000D+00  0.0000000000000D+00  0.0000000000000D+00
336  3.3500000000000D+00  0.0000000000000D+00  0.0000000000000D+00
337  3.3600000000000D+00  0.0000000000000D+00  0.0000000000000D+00
338  3.3700000000000D+00  0.0000000000000D+00  0.0000000000000D+00
339  3.3800000000000D+00  0.0000000000000D+00  0.0000000000000D+00
340  3.3900000000000D+00  0.0000000000000D+00  0.0000000000000D+00
341  3.4000000000000D+00  0.0000000000000D+00  0.0000000000000D+00
342  3.4100000000000D+00  0.0000000000000D+00  0.0000000000000D+00
343  3.4200000000000D+00  0.0000000000000D+00  0.0000000000000D+00
344  3.4300000000000D+00  0.0000000000000D+00  0.0000000000000D+00
345  3.4400000000000D+00  0.0000000000000D+00  0.0000000000000D+00
346  3.4500000000000D+00  0.0000000000000D+00  0.0000000000000D+00
347  3.4600000000000D+00  0.0000000000000D+00  0.0000000000000D+00
348  3.4700000000000D+00  0.0000000000000D+00  0.0000000000000D+00
349  3.4800000000000D+00  0.0000000000000D+00  0.0000000000000D+00
350  3.4900000000000D+00  0.0000000000000D+00  0.0000000000000D+00
351  3.5000000000000D+00  0.0000000000000D+00  0.0000000000000D+00
352  3.5100000000000D+00  0.0000000000000D+00  0.0000000000000D+00
353  3.5200000000000D+00  0.0000000000000D+00  0.0000000000000D+00
354  3.5300000000000D+00  0.0000000000000D+00  0.0000000000000D+00
355  3.5400000000000D+00  0.0000000000000D+00  0.0000000000000D+00
356  3.5500000000000D+00  0.0000000000000D+00  0.0000000000000D+00
357  3.5600000000000D+00  0.0000000000000D+00  0.0000000000000D+00
358  3.5700000000000D+00  0.0000000000000D+00  0.0000000000000D+00
359  3.5800000000000D+00  0.0000000000000D+00  0.0000000000000D+00
360  3.5900000000000D+00  0.0000000000000D+00  0.0000000000000D+00
361  3.6000000000000D+00  0.0000000000000D+00  0.0000000000000D+00
362  3.6100000000000D+00  0.0000000000000D+00  0.0000000000000D+00
363  3.6200000000000D+00  0.0000000000000D+00  0.0000000000000D+00
364  3.6300000000000D+00  0.0000000000000D+00  0.0000000000000D+00
365  3.6400000000000D+00  0.0000000000000D+00  0.0000000000000D+00
366  3.6500000000000D+00  0.0000000000000D+00  0.0000000000000D+00
367  3.6600000000000D+00  0.0000000000000D+00  0.0000000000000D+00
368  3.6700000000000D+00  0.0000000000000D+00  0.0000000000000D+00
369  3.6800000000000D+00  0.0000000000000D+00  0.0000000000000D+00
370  3.6900000000000D+00  0.0000000000000D+00  0.0000000000000D+00
371  3.7000000000000D+00  0.0000000000000D+00  0.0000000000000D+00
372  3.7100000000000D+00  0.0000000000000D+00  0.0000000000000D+00
373  3.7200000000000D+00  0.0000000000000D+00  0.0000000000000D+00
374  3.7300000000000D+00  0.0000000000000D+00  0.0000000000000D+00
375  3.7400000000000D+00  0.0000000000000D+00  0.0000000000000D+00
376  3.7500000000000D+00  0.0000000000000D+00  0.0000000000000D+00
377  3.7600000000000D+00  0.0000000000000D+00  0.0000000000000D+00
378  3.7700000000000D+00  0.0000000000000D+00  0.0000000000000D+00
379  3.7800000000000D+00  0.0000000000000D+00  0.0000000000000D+00
380  3.7900000000000D+00  0.0000000000000D+00  0.0000000000000D+00
381  3.8000000000000D+00  0.0000000000000D+00  0.0000000000000D+00
382  3.8100000000000D+00  0.0000000000000D+00  0.0000000000000D+00
383  3.8200000000000D+00  0.0000000000000D+00  0.0000000000000D+00
384  3.8300000000000D+00  0.0000000000000D+00  0.0000000000000D+00
385  3.8400000000000D+00  0.0000000000000D+00  0.0000000000000D+00
386  3.8500000000000D+00  0.0000000000000D+00  0.0000000000000D+00
387  3.8600000000000D+00  0.0000000000000D+00  0.0000000000000D+00
388  3.8700000000000D+00  0.0000000000000D+00  0.0000000000000D+00
389  3.8800000000000D+00  0.0000000000000D+00  0.0000000000000D+00
390  3.8900000000000D+00  0.0000000000000D+00  0.0000000000000D+00
391  3.9000000000000D+00  0.0000000000000D+00  0.0000000000000D+00
392  3.9100000000000D+00  0.0000000000000D+00  0.0000000000000D+00
393  3.9200000000000D+00  0.0000000000000D+00  0.0000000000000D+00
394  3.9300000000000D+00  0.0000000000000D+00  0.0000000000000D+00
395  3.9400000000000D+00  0.0000000000000D+00  0.0000000000000D+00
396  3.9500000000000D+00  0.0000000000000D+00  0.0000000000000D+00
397  3.9600000000000D+00  0.0000000000000D+00  0.0000000000000D+00
398  3.9700000000000D+00  0.0000000000000D+00  0.0000000000000D+00
399  3.9800000000000D+00  0.0000000000000D+00  0.0000000000000D+00
400  3.9900000000000D+00  0.0000000000000D+00  0.0000000000000D+00
401  4.0000000000000D+00  0.0000000000000D+00  0.0000000000000D+00
402  4.0100000000000D+00  0.0000000000000D+00  0.0000000000000D+00
403  4.0200000000000D+00  0.0000000000000D+00  0.0000000000000D+00
404  4.0300000000000D+00  0.0000000000000D+00  0.0000000000000D+00
405  4.0400000000000D+00  0.0000000000000D+00  0.0000000000000D+00
406  4.0500000000000D+00  0.0000000000000D+00  0.0000000000000D+00
407  4.0600000000000D+00  0.0000000000000D+00  0.0000000000000D+00
408  4.0700000000000D+00  0.0000000000000D+00  0.0000000000000D+00
409  4.0800000000000D+00  0.0000000000000D+00  0.0000000000000D+00
410  4.0900000000000D+00  0.0000000000000D+00  0.0000000000000D+00
411  4.1000000000000D+00  0.0000000000000D+00  0.0000000000000D+00
412  4.1100000000000D+00  0.0000000000000D+00  0.0000000000000D+00
413  4.1200000000000D+00  0.0000000000000D+00  0.0000000000000D+00
414  4.1300000000000D+00  0.0000000000000D+00  0.0000000000000D+00
415  4.1400000000000D+00  0.0000000000000D+00  0.0000000000000D+00
416  4.1500000000000D+00  0.0000000000000D+00  0.0000000000000D+00
417  4.1600000000000D+00  0.0000000000000D+00  0.0000000000000D+00
418  4.1700000000000D+00  0.0000000000000D+00  0.0000000000000D+00
419  4.1800000000000D+00  0.0000000000000D+00  0.0000000000000D+00
420  4.1900000000000D+00  0.0000000000000D+00  0.0000000000000D+00
421  4.2000000000000D+00  0.0000000000000D+00  0.0000000000000D+00
422  4.2100000000000D+00  0.0000000000000D+00  0.0000000000000D+00
423  4.2200000000000D+00  0.0000000000000D+00  0.0000000000000D+00
424  4.2300000000000D+00  0.0000000000000D+00  0.0000000000000D+00
425  4.2400000000000D+00  0.0000000000000D+00  0.0000000000000D+00
426  4.2500000000000D+00  0.0000000000000D+00  0.0000000000000D+00
427  4.2600000000000D+00  0.0000000000000D+00  0.0000000000000D+00
428  4.2700000000000D+00  0.0000000000000D+00  0.0000000000000D+00
429  4.2800000000000D+00  0.0000000000000D+00  0.0000000000000D+00
430  4.2900000000000D+00  0.0000000000000D+00  0.0000000000000D+00
431  4.3000000000000D+00  0.0000000000000D+00  0.0000000000000D+00
432  4.3100000000000D+00  0.0000000000000D+00  0.0000000000000D+00
433  4.3200000000000D+00  0.0000000000000D+00  0.0000000000000D+00
434  4.3300000000000D+00  0.0000000000000D+00  0.0000000000000D+00
435  4.3400000000000D+00  0.0000000000000D+00  0.0000000000000D+00
436  4.3500000000000D+00  0.0000000000000D+00  0.0000000000000D+00
437  4.3600000000000D+00  0.0000000000000D+00  0.0000000000000D+00
438  4.3700000000000D+00  0.0000000000000D+00  0.0000000000000D+00
439  4.3800000000000D+00  0.0000000000000D+00  0.0000000000000D+00
440  4.3900000000000D+00  0.0000000000000D+00  0.0000000000000D+00
441  4.4000000000000D+00  0.0000000000000D+00  0.0000000000000D+00
442  4.4100000000000D+00  0.0000000000000D+00  0.0000000000000D+00
443  4.4200000000000D+00  0.0000000000000D+00  0.0000000000000D+00