Lu    ONCVPSP  r_core=  1.56  1.60  1.60  2.67
71.0000     11.0000      160615    zatom,zion,pspd
8   -1013   3     4   600     0    pspcod,pspxc,lmax,lloc,mmax,r2well
5.99000000  4.00000000  0.00000000    rchrg fchrg qchrg
2     2     2     2     0    nproj
1                 extension_switch
0                         1.2339579601433D+01  9.5692309709513D-01
1  0.0000000000000D+00 -2.9915375732159D-10  1.4368419787303D-09
2  1.0000000000000D-02  5.8861759703303D-02 -3.0976864458404D-02
3  2.0000000000000D-02  1.1761460054882D-01 -6.1736017014536D-02
4  3.0000000000000D-02  1.7615012705472D-01 -9.2061962603609D-02
5  4.0000000000000D-02  2.3436098463028D-01 -1.2174361124097D-01
6  5.0000000000000D-02  2.9214136544677D-01 -1.5057640944569D-01
7  6.0000000000000D-02  3.4938749703374D-01 -1.7836438735733D-01
8  7.0000000000000D-02  4.0599810819858D-01 -2.0492209515174D-01
9  8.0000000000000D-02  4.6187486716581D-01 -2.3007640379822D-01
10  9.0000000000000D-02  5.1692278719976D-01 -2.5366814696265D-01
11  1.0000000000000D-01  5.7105059540356D-01 -2.7555358292679D-01
12  1.1000000000000D-01  6.2417106087478D-01 -2.9560565773741D-01
13  1.2000000000000D-01  6.7620127893610D-01 -3.1371505339091D-01
14  1.3000000000000D-01  7.2706290874250D-01 -3.2979100766743D-01
15  1.4000000000000D-01  7.7668236218567D-01 -3.4376189521758D-01
16  1.5000000000000D-01  8.2499094266504D-01 -3.5557556263795D-01
17  1.6000000000000D-01  8.7192493296411D-01 -3.6519941350852D-01
18  1.7000000000000D-01  9.1742563215145D-01 -3.7262024266501D-01
19  1.8000000000000D-01  9.6143934210999D-01 -3.7784382230170D-01
20  1.9000000000000D-01  1.0039173049763D+00 -3.8089424580053D-01
21  2.0000000000000D-01  1.0448155934354D+00 -3.8181303842048D-01
22  2.1000000000000D-01  1.0840949564549D+00 -3.8065804711531D-01
23  2.2000000000000D-01  1.1217206236529D+00 -3.7750212473551D-01
24  2.3000000000000D-01  1.1576620720584D+00 -3.7243162667512D-01
25  2.4000000000000D-01  1.1918927595438D+00 -3.6554474060806D-01
26  2.5000000000000D-01  1.2243898296746D+00 -3.5694967228657D-01
27  2.6000000000000D-01  1.2551337931218D+00 -3.4676271241709D-01
28  2.7000000000000D-01  1.2841081911190D+00 -3.3510621135634D-01
29  2.8000000000000D-01  1.3112992467088D+00 -3.2210648975895D-01
30  2.9000000000000D-01  1.3366955097109D+00 -3.0789171433870D-01
31  3.0000000000000D-01  1.3602875014465D+00 -2.9258976856027D-01
32  3.1000000000000D-01  1.3820673652849D+00 -2.7632614834806D-01
33  3.2000000000000D-01  1.4020285290151D+00 -2.5922191277488D-01
34  3.3000000000000D-01  1.4201653849060D+00 -2.4139171917662D-01
35  3.4000000000000D-01  1.4364729930959D+00 -2.2294197122973D-01
36  3.5000000000000D-01  1.4509468136492D+00 -2.0396910723718D-01
37  3.6000000000000D-01  1.4635824722364D+00 -1.8455805420808D-01
38  3.7000000000000D-01  1.4743755639418D+00 -1.6478087130158D-01
39  3.8000000000000D-01  1.4833214991836D+00 -1.4469560386384D-01
40  3.9000000000000D-01  1.4904153951455D+00 -1.2434536664083D-01
41  4.0000000000000D-01  1.4956520154836D+00 -1.0375767183104D-01
42  4.1000000000000D-01  1.4990257603878D+00 -8.2944014487354D-02
43  4.2000000000000D-01  1.5005307083503D+00 -6.1899724420955D-02
44  4.3000000000000D-01  1.5001607102426D+00 -4.0604090246463D-02
45  4.4000000000000D-01  1.4979095355257D+00 -1.9020757576141D-02
46  4.5000000000000D-01  1.4937710696347D+00  2.9016003297003D-03
47  4.6000000000000D-01  1.4877395607896D+00  2.5228344873868D-02
48  4.7000000000000D-01  1.4798099137116D+00  4.8037676516262D-02
49  4.8000000000000D-01  1.4699780269627D+00  7.1419194002258D-02
50  4.9000000000000D-01  1.4582411699043D+00  9.5472224690779D-02
51  5.0000000000000D-01  1.4445983945789D+00  1.2030394559762D-01
52  5.1000000000000D-01  1.4290509771849D+00  1.4602731790700D-01
53  5.2000000000000D-01  1.4116028832337D+00  1.7275886059493D-01
54  5.3000000000000D-01  1.3922612499671D+00  2.0061629140224D-01
55  5.4000000000000D-01  1.3710368791751D+00  2.2971606566164D-01
56  5.5000000000000D-01  1.3479447332005D+00  2.6017084538876D-01
57  5.6000000000000D-01  1.3230044266466D+00  2.9208693255908D-01
58  5.7000000000000D-01  1.2962407061311D+00  3.2556170159022D-01
59  5.8000000000000D-01  1.2676839103508D+00  3.6068106670914D-01
60  5.9000000000000D-01  1.2373704027423D+00  3.9751702009700D-01
61  6.0000000000000D-01  1.2053429691450D+00  4.3612527645266D-01
62  6.1000000000000D-01  1.1716511730975D+00  4.7654305890946D-01
63  6.2000000000000D-01  1.1363516617204D+00  5.1878706006536D-01
64  6.3000000000000D-01  1.0995084155599D+00  5.6285161026465D-01
65  6.4000000000000D-01  1.0611929362818D+00  6.0870708321362D-01
66  6.5000000000000D-01  1.0214843667109D+00  6.5629856652514D-01
67  6.6000000000000D-01  9.8046953839928D-01  7.0554482192408D-01
68  6.7000000000000D-01  9.3824294267088D-01  7.5633755661156D-01
69  6.8000000000000D-01  8.9490662192540D-01  8.0854102372061D-01
70  6.9000000000000D-01  8.5056997887569D-01  8.6199196594819D-01
71  7.0000000000000D-01  8.0534950233211D-01  9.1649991237624D-01
72  7.1000000000000D-01  7.5936840913116D-01  9.7184783418682D-01
73  7.2000000000000D-01  7.1275620280891D-01  1.0277931605662D+00
74  7.3000000000000D-01  6.6564815064122D-01  1.0840691515714D+00
75  7.4000000000000D-01  6.1818468169780D-01  1.1403866201754D+00
76  7.5000000000000D-01  5.7051070956496D-01  1.1964359911975D+00
77  7.6000000000000D-01  5.2277488438849D-01  1.2518896803475D+00
78  7.7000000000000D-01  4.7512877983693D-01  1.3064047723196D+00
79  7.8000000000000D-01  4.2772602149389D-01  1.3596259727426D+00
80  7.9000000000000D-01  3.8072136403340D-01  1.4111888049161D+00
81  8.0000000000000D-01  3.3426972530745D-01  1.4607230186869D+00
82  8.1000000000000D-01  2.8852518616721D-01  1.5078561755904D+00
83  8.2000000000000D-01  2.4363996544030D-01  1.5522173715396D+00
84  8.3000000000000D-01  1.9976337998641D-01  1.5934410559452D+00
85  8.4000000000000D-01  1.5704080014519D-01  1.6311709042117D+00
86  8.5000000000000D-01  1.1561261116645D-01  1.6650636991197D+00
87  8.6000000000000D-01  7.5613191369307D-02  1.6947931756970D+00
88  8.7000000000000D-01  3.7169917809050D-02  1.7200537838119D+00
89  8.8000000000000D-01  4.0221013618577D-04  1.7405643229136D+00
90  8.9000000000000D-01 -3.4579376888539D-02  1.7560714040936D+00
91  9.0000000000000D-01 -6.7674002107342D-02  1.7663526959520D+00
92  9.1000000000000D-01 -9.8791318262159D-02  1.7712199126128D+00
93  9.2000000000000D-01 -1.2785217482195D-01  1.7705215046257D+00
94  9.3000000000000D-01 -1.5478923499383D-01  1.7641450164014D+00
95  9.4000000000000D-01 -1.7954749938517D-01  1.7520190772156D+00
96  9.5000000000000D-01 -2.0208472969745D-01  1.7341149966546D+00
97  9.6000000000000D-01 -2.2237176683560D-01  1.7104479396203D+00
98  9.7000000000000D-01 -2.4039273889868D-01  1.6810776606116D+00
99  9.8000000000000D-01 -2.5614515566298D-01  1.6461087818921D+00
100  9.9000000000000D-01 -2.6963988739605D-01  1.6056906054188D+00
101  1.0000000000000D+00 -2.8090102702211D-01  1.5600164534860D+00
102  1.0100000000000D+00 -2.8996563600633D-01  1.5093225388519D+00
103  1.0200000000000D+00 -2.9688337554929D-01  1.4538863704040D+00
104  1.0300000000000D+00 -3.0171602597872D-01  1.3940247060361D+00
105  1.0400000000000D+00 -3.0453689847121D-01  1.3300910698112D+00
106  1.0500000000000D+00 -3.0543014449495D-01  1.2624728559622D+00
107  1.0600000000000D+00 -3.0448996943891D-01  1.1915880469548D+00
108  1.0700000000000D+00 -3.0181975811509D-01  1.1178815781644D+00
109  1.0800000000000D+00 -2.9753112077427D-01  1.0418213858845D+00
110  1.0900000000000D+00 -2.9174286922259D-01  9.6389417951973D-01
111  1.1000000000000D+00 -2.8457993349265D-01  8.8460098261239D-01
112  1.1100000000000D+00 -2.7617223013272D-01  8.0445249001868D-01
113  1.1200000000000D+00 -2.6665349391965D-01  7.2396429180781D-01
114  1.1300000000000D+00 -2.5616008514337D-01  6.4365201595989D-01
115  1.1400000000000D+00 -2.4482978496208D-01  5.6402644348189D-01
116  1.1500000000000D+00 -2.3280059149233D-01  4.8558865028884D-01
117  1.1600000000000D+00 -2.2020952935767D-01  4.0882523046396D-01
118  1.1700000000000D+00 -2.0719148526688D-01  3.3420365484126D-01
119  1.1800000000000D+00 -1.9387808181674D-01  2.6216781720707D-01
120  1.1900000000000D+00 -1.8039660156921D-01  1.9313381977871D-01
121  1.2000000000000D+00 -1.6686897259458D-01  1.2748604584876D-01
122  1.2100000000000D+00 -1.5341082603205D-01  6.5573564666161D-02
123  1.2200000000000D+00 -1.4013063552767D-01  7.7069105840948D-03
124  1.2300000000000D+00 -1.2712894743412D-01 -4.5844725788934D-02
125  1.2400000000000D+00 -1.1449770932085D-01 -9.4855862580497D-02
126  1.2500000000000D+00 -1.0231970337779D-01 -1.3914662018692D-01
127  1.2600000000000D+00 -9.0668090442387D-02 -1.7858411950454D-01
128  1.2700000000000D+00 -7.9606068168854D-02 -2.1308337075836D-01
129  1.2800000000000D+00 -6.9186646004594D-02 -2.4260764259160D-01
130  1.2900000000000D+00 -5.9452538856504D-02 -2.6716830452597D-01
131  1.3000000000000D+00 -5.0436178391039D-02 -2.8682414885561D-01
132  1.3100000000000D+00 -4.2159840605121D-02 -3.0168019938771D-01
133  1.3200000000000D+00 -3.4635887204312D-02 -3.1188601929640D-01
134  1.3300000000000D+00 -2.7867115228963D-02 -3.1763354399309D-01
135  1.3400000000000D+00 -2.1847209914259D-02 -3.1915446251066D-01
136  1.3500000000000D+00 -1.6561293737039D-02 -3.1671717986111D-01
137  1.3600000000000D+00 -1.1986562403742D-02 -3.1062340248353D-01
138  1.3700000000000D+00 -8.0929996860260D-03 -3.0120438383911D-01
139  1.3800000000000D+00 -4.8441597045195D-03 -2.8881688174524D-01
140  1.3900000000000D+00 -2.1980054823901D-03 -2.7383887802052D-01
141  1.4000000000000D+00 -1.0779240272142D-04 -2.5666511189495D-01
142  1.4100000000000D+00  1.4770171300963D-03 -2.3770248876999D-01
143  1.4200000000000D+00  2.6098200056450D-03 -2.1736541929428D-01
144  1.4300000000000D+00  3.3459338348592D-03 -1.9607115225260D-01
145  1.4400000000000D+00  3.7416664403397D-03 -1.7423515940101D-01
146  1.4500000000000D+00  3.8534076736080D-03 -1.5226663636099D-01
147  1.4600000000000D+00  3.7367586822723D-03 -1.3056418836503D-01
148  1.4700000000000D+00  3.4456961987136D-03 -1.0951168301759D-01
149  1.4800000000000D+00  3.0318480914541D-03 -8.9474637109552D-02
150  1.4900000000000D+00  2.5436817822614D-03 -7.0796173377420D-02
151  1.5000000000000D+00  2.0260084099950D-03 -5.3794473766436D-02
152  1.5100000000000D+00  1.5199732530430D-03 -3.8765013433825D-02
153  1.5200000000000D+00  1.0610480040914D-03 -2.5966516324923D-02
154  1.5300000000000D+00  6.7424835352768D-04 -1.5555596740212D-02
155  1.5400000000000D+00  3.8399186780106D-04 -7.7800368005354D-03
156  1.5500000000000D+00  2.1580418694758D-04 -2.9715898763143D-03
157  1.5600000000000D+00  1.3681361674527D-04 -7.3430329012090D-04
158  1.5700000000000D+00  6.9903491904392D-05 -2.5924162515328D-05
159  1.5800000000000D+00  8.5109749993579D-06  1.6499398285392D-05
160  1.5900000000000D+00 -1.0055483499523D-05 -3.1390059436326D-05
161  1.6000000000000D+00 -1.1201623422612D-06 -4.5355633456390D-06
162  1.6100000000000D+00  2.3577739641500D-06  3.8762010608292D-06
163  1.6200000000000D+00  3.4230220487331D-08  6.8691396053856D-08
164  1.6300000000000D+00 -3.3484496110980D-07  1.1357145992856D-06
165  1.6400000000000D+00  0.0000000000000D+00  0.0000000000000D+00
166  1.6500000000000D+00  0.0000000000000D+00  0.0000000000000D+00
167  1.6600000000000D+00  0.0000000000000D+00  0.0000000000000D+00
168  1.6700000000000D+00  0.0000000000000D+00  0.0000000000000D+00
169  1.6800000000000D+00  0.0000000000000D+00  0.0000000000000D+00
170  1.6900000000000D+00  0.0000000000000D+00  0.0000000000000D+00
171  1.7000000000000D+00  0.0000000000000D+00  0.0000000000000D+00
172  1.7100000000000D+00  0.0000000000000D+00  0.0000000000000D+00
173  1.7200000000000D+00  0.0000000000000D+00  0.0000000000000D+00
174  1.7300000000000D+00  0.0000000000000D+00  0.0000000000000D+00
175  1.7400000000000D+00  0.0000000000000D+00  0.0000000000000D+00
176  1.7500000000000D+00  0.0000000000000D+00  0.0000000000000D+00
177  1.7600000000000D+00  0.0000000000000D+00  0.0000000000000D+00
178  1.7700000000000D+00  0.0000000000000D+00  0.0000000000000D+00
179  1.7800000000000D+00  0.0000000000000D+00  0.0000000000000D+00
180  1.7900000000000D+00  0.0000000000000D+00  0.0000000000000D+00
181  1.8000000000000D+00  0.0000000000000D+00  0.0000000000000D+00
182  1.8100000000000D+00  0.0000000000000D+00  0.0000000000000D+00
183  1.8200000000000D+00  0.0000000000000D+00  0.0000000000000D+00
184  1.8300000000000D+00  0.0000000000000D+00  0.0000000000000D+00
185  1.8400000000000D+00  0.0000000000000D+00  0.0000000000000D+00
186  1.8500000000000D+00  0.0000000000000D+00  0.0000000000000D+00
187  1.8600000000000D+00  0.0000000000000D+00  0.0000000000000D+00
188  1.8700000000000D+00  0.0000000000000D+00  0.0000000000000D+00
189  1.8800000000000D+00  0.0000000000000D+00  0.0000000000000D+00
190  1.8900000000000D+00  0.0000000000000D+00  0.0000000000000D+00
191  1.9000000000000D+00  0.0000000000000D+00  0.0000000000000D+00
192  1.9100000000000D+00  0.0000000000000D+00  0.0000000000000D+00
193  1.9200000000000D+00  0.0000000000000D+00  0.0000000000000D+00
194  1.9300000000000D+00  0.0000000000000D+00  0.0000000000000D+00
195  1.9400000000000D+00  0.0000000000000D+00  0.0000000000000D+00
196  1.9500000000000D+00  0.0000000000000D+00  0.0000000000000D+00
197  1.9600000000000D+00  0.0000000000000D+00  0.0000000000000D+00
198  1.9700000000000D+00  0.0000000000000D+00  0.0000000000000D+00
199  1.9800000000000D+00  0.0000000000000D+00  0.0000000000000D+00
200  1.9900000000000D+00  0.0000000000000D+00  0.0000000000000D+00
201  2.0000000000000D+00  0.0000000000000D+00  0.0000000000000D+00
202  2.0100000000000D+00  0.0000000000000D+00  0.0000000000000D+00
203  2.0200000000000D+00  0.0000000000000D+00  0.0000000000000D+00
204  2.0300000000000D+00  0.0000000000000D+00  0.0000000000000D+00
205  2.0400000000000D+00  0.0000000000000D+00  0.0000000000000D+00
206  2.0500000000000D+00  0.0000000000000D+00  0.0000000000000D+00
207  2.0600000000000D+00  0.0000000000000D+00  0.0000000000000D+00
208  2.0700000000000D+00  0.0000000000000D+00  0.0000000000000D+00
209  2.0800000000000D+00  0.0000000000000D+00  0.0000000000000D+00
210  2.0900000000000D+00  0.0000000000000D+00  0.0000000000000D+00
211  2.1000000000000D+00  0.0000000000000D+00  0.0000000000000D+00
212  2.1100000000000D+00  0.0000000000000D+00  0.0000000000000D+00
213  2.1200000000000D+00  0.0000000000000D+00  0.0000000000000D+00
214  2.1300000000000D+00  0.0000000000000D+00  0.0000000000000D+00
215  2.1400000000000D+00  0.0000000000000D+00  0.0000000000000D+00
216  2.1500000000000D+00  0.0000000000000D+00  0.0000000000000D+00
217  2.1600000000000D+00  0.0000000000000D+00  0.0000000000000D+00
218  2.1700000000000D+00  0.0000000000000D+00  0.0000000000000D+00
219  2.1800000000000D+00  0.0000000000000D+00  0.0000000000000D+00
220  2.1900000000000D+00  0.0000000000000D+00  0.0000000000000D+00
221  2.2000000000000D+00  0.0000000000000D+00  0.0000000000000D+00
222  2.2100000000000D+00  0.0000000000000D+00  0.0000000000000D+00
223  2.2200000000000D+00  0.0000000000000D+00  0.0000000000000D+00
224  2.2300000000000D+00  0.0000000000000D+00  0.0000000000000D+00
225  2.2400000000000D+00  0.0000000000000D+00  0.0000000000000D+00
226  2.2500000000000D+00  0.0000000000000D+00  0.0000000000000D+00
227  2.2600000000000D+00  0.0000000000000D+00  0.0000000000000D+00
228  2.2700000000000D+00  0.0000000000000D+00  0.0000000000000D+00
229  2.2800000000000D+00  0.0000000000000D+00  0.0000000000000D+00
230  2.2900000000000D+00  0.0000000000000D+00  0.0000000000000D+00
231  2.3000000000000D+00  0.0000000000000D+00  0.0000000000000D+00
232  2.3100000000000D+00  0.0000000000000D+00  0.0000000000000D+00
233  2.3200000000000D+00  0.0000000000000D+00  0.0000000000000D+00
234  2.3300000000000D+00  0.0000000000000D+00  0.0000000000000D+00
235  2.3400000000000D+00  0.0000000000000D+00  0.0000000000000D+00
236  2.3500000000000D+00  0.0000000000000D+00  0.0000000000000D+00
237  2.3600000000000D+00  0.0000000000000D+00  0.0000000000000D+00
238  2.3700000000000D+00  0.0000000000000D+00  0.0000000000000D+00
239  2.3800000000000D+00  0.0000000000000D+00  0.0000000000000D+00
240  2.3900000000000D+00  0.0000000000000D+00  0.0000000000000D+00
241  2.4000000000000D+00  0.0000000000000D+00  0.0000000000000D+00
242  2.4100000000000D+00  0.0000000000000D+00  0.0000000000000D+00
243  2.4200000000000D+00  0.0000000000000D+00  0.0000000000000D+00
244  2.4300000000000D+00  0.0000000000000D+00  0.0000000000000D+00
245  2.4400000000000D+00  0.0000000000000D+00  0.0000000000000D+00
246  2.4500000000000D+00  0.0000000000000D+00  0.0000000000000D+00
247  2.4600000000000D+00  0.0000000000000D+00  0.0000000000000D+00
248  2.4700000000000D+00  0.0000000000000D+00  0.0000000000000D+00
249  2.4800000000000D+00  0.0000000000000D+00  0.0000000000000D+00
250  2.4900000000000D+00  0.0000000000000D+00  0.0000000000000D+00
251  2.5000000000000D+00  0.0000000000000D+00  0.0000000000000D+00
252  2.5100000000000D+00  0.0000000000000D+00  0.0000000000000D+00
253  2.5200000000000D+00  0.0000000000000D+00  0.0000000000000D+00
254  2.5300000000000D+00  0.0000000000000D+00  0.0000000000000D+00
255  2.5400000000000D+00  0.0000000000000D+00  0.0000000000000D+00
256  2.5500000000000D+00  0.0000000000000D+00  0.0000000000000D+00
257  2.5600000000000D+00  0.0000000000000D+00  0.0000000000000D+00
258  2.5700000000000D+00  0.0000000000000D+00  0.0000000000000D+00
259  2.5800000000000D+00  0.0000000000000D+00  0.0000000000000D+00
260  2.5900000000000D+00  0.0000000000000D+00  0.0000000000000D+00
261  2.6000000000000D+00  0.0000000000000D+00  0.0000000000000D+00
262  2.6100000000000D+00  0.0000000000000D+00  0.0000000000000D+00
263  2.6200000000000D+00  0.0000000000000D+00  0.0000000000000D+00
264  2.6300000000000D+00  0.0000000000000D+00  0.0000000000000D+00
265  2.6400000000000D+00  0.0000000000000D+00  0.0000000000000D+00
266  2.6500000000000D+00  0.0000000000000D+00  0.0000000000000D+00
267  2.6600000000000D+00  0.0000000000000D+00  0.0000000000000D+00
268  2.6700000000000D+00  0.0000000000000D+00  0.0000000000000D+00
269  2.6800000000000D+00  0.0000000000000D+00  0.0000000000000D+00
270  2.6900000000000D+00  0.0000000000000D+00  0.0000000000000D+00
271  2.7000000000000D+00  0.0000000000000D+00  0.0000000000000D+00
272  2.7100000000000D+00  0.0000000000000D+00  0.0000000000000D+00
273  2.7200000000000D+00  0.0000000000000D+00  0.0000000000000D+00
274  2.7300000000000D+00  0.0000000000000D+00  0.0000000000000D+00
275  2.7400000000000D+00  0.0000000000000D+00  0.0000000000000D+00
276  2.7500000000000D+00  0.0000000000000D+00  0.0000000000000D+00
277  2.7600000000000D+00  0.0000000000000D+00  0.0000000000000D+00
278  2.7700000000000D+00  0.0000000000000D+00  0.0000000000000D+00
279  2.7800000000000D+00  0.0000000000000D+00  0.0000000000000D+00
280  2.7900000000000D+00  0.0000000000000D+00  0.0000000000000D+00
281  2.8000000000000D+00  0.0000000000000D+00  0.0000000000000D+00
282  2.8100000000000D+00  0.0000000000000D+00  0.0000000000000D+00
283  2.8200000000000D+00  0.0000000000000D+00  0.0000000000000D+00
284  2.8300000000000D+00  0.0000000000000D+00  0.0000000000000D+00
285  2.8400000000000D+00  0.0000000000000D+00  0.0000000000000D+00
286  2.8500000000000D+00  0.0000000000000D+00  0.0000000000000D+00
287  2.8600000000000D+00  0.0000000000000D+00  0.0000000000000D+00
288  2.8700000000000D+00  0.0000000000000D+00  0.0000000000000D+00
289  2.8800000000000D+00  0.0000000000000D+00  0.0000000000000D+00
290  2.8900000000000D+00  0.0000000000000D+00  0.0000000000000D+00
291  2.9000000000000D+00  0.0000000000000D+00  0.0000000000000D+00
292  2.9100000000000D+00  0.0000000000000D+00  0.0000000000000D+00
293  2.9200000000000D+00  0.0000000000000D+00  0.0000000000000D+00
294  2.9300000000000D+00  0.0000000000000D+00  0.0000000000000D+00
295  2.9400000000000D+00  0.0000000000000D+00  0.0000000000000D+00
296  2.9500000000000D+00  0.0000000000000D+00  0.0000000000000D+00
297  2.9600000000000D+00  0.0000000000000D+00  0.0000000000000D+00
298  2.9700000000000D+00  0.0000000000000D+00  0.0000000000000D+00
299  2.9800000000000D+00  0.0000000000000D+00  0.0000000000000D+00
300  2.9900000000000D+00  0.0000000000000D+00  0.0000000000000D+00
301  3.0000000000000D+00  0.0000000000000D+00  0.0000000000000D+00
302  3.0100000000000D+00  0.0000000000000D+00  0.0000000000000D+00
303  3.0200000000000D+00  0.0000000000000D+00  0.0000000000000D+00
304  3.0300000000000D+00  0.0000000000000D+00  0.0000000000000D+00
305  3.0400000000000D+00  0.0000000000000D+00  0.0000000000000D+00
306  3.0500000000000D+00  0.0000000000000D+00  0.0000000000000D+00
307  3.0600000000000D+00  0.0000000000000D+00  0.0000000000000D+00
308  3.0700000000000D+00  0.0000000000000D+00  0.0000000000000D+00
309  3.0800000000000D+00  0.0000000000000D+00  0.0000000000000D+00
310  3.0900000000000D+00  0.0000000000000D+00  0.0000000000000D+00
311  3.1000000000000D+00  0.0000000000000D+00  0.0000000000000D+00
312  3.1100000000000D+00  0.0000000000000D+00  0.0000000000000D+00
313  3.1200000000000D+00  0.0000000000000D+00  0.0000000000000D+00
314  3.1300000000000D+00  0.0000000000000D+00  0.0000000000000D+00
315  3.1400000000000D+00  0.0000000000000D+00  0.0000000000000D+00
316  3.1500000000000D+00  0.0000000000000D+00  0.0000000000000D+00
317  3.1600000000000D+00  0.0000000000000D+00  0.0000000000000D+00
318  3.1700000000000D+00  0.0000000000000D+00  0.0000000000000D+00
319  3.1800000000000D+00  0.0000000000000D+00  0.0000000000000D+00
320  3.1900000000000D+00  0.0000000000000D+00  0.0000000000000D+00
321  3.2000000000000D+00  0.0000000000000D+00  0.0000000000000D+00
322  3.2100000000000D+00  0.0000000000000D+00  0.0000000000000D+00
323  3.2200000000000D+00  0.0000000000000D+00  0.0000000000000D+00
324  3.2300000000000D+00  0.0000000000000D+00  0.0000000000000D+00
325  3.2400000000000D+00  0.0000000000000D+00  0.0000000000000D+00
326  3.2500000000000D+00  0.0000000000000D+00  0.0000000000000D+00
327  3.2600000000000D+00  0.0000000000000D+00  0.0000000000000D+00
328  3.2700000000000D+00  0.0000000000000D+00  0.0000000000000D+00
329  3.2800000000000D+00  0.0000000000000D+00  0.0000000000000D+00
330  3.2900000000000D+00  0.0000000000000D+00  0.0000000000000D+00
331  3.3000000000000D+00  0.0000000000000D+00  0.0000000000000D+00
332  3.3100000000000D+00  0.0000000000000D+00  0.0000000000000D+00
333  3.3200000000000D+00  0.0000000000000D+00  0.0000000000000D+00
334  3.3300000000000D+00  0.0000000000000D+00  0.0000000000000D+00
335  3.3400000000000D+00  0.0000000000000D+00  0.0000000000000D+00
336  3.3500000000000D+00  0.0000000000000D+00  0.0000000000000D+00
337  3.3600000000000D+00  0.0000000000000D+00  0.0000000000000D+00
338  3.3700000000000D+00  0.0000000000000D+00  0.0000000000000D+00
339  3.3800000000000D+00  0.0000000000000D+00  0.0000000000000D+00
340  3.3900000000000D+00  0.0000000000000D+00  0.0000000000000D+00
341  3.4000000000000D+00  0.0000000000000D+00  0.0000000000000D+00
342  3.4100000000000D+00  0.0000000000000D+00  0.0000000000000D+00
343  3.4200000000000D+00  0.0000000000000D+00  0.0000000000000D+00
344  3.4300000000000D+00  0.0000000000000D+00  0.0000000000000D+00
345  3.4400000000000D+00  0.0000000000000D+00  0.0000000000000D+00
346  3.4500000000000D+00  0.0000000000000D+00  0.0000000000000D+00
347  3.4600000000000D+00  0.0000000000000D+00  0.0000000000000D+00
348  3.4700000000000D+00  0.0000000000000D+00  0.0000000000000D+00
349  3.4800000000000D+00  0.0000000000000D+00  0.0000000000000D+00
350  3.4900000000000D+00  0.0000000000000D+00  0.0000000000000D+00
351  3.5000000000000D+00  0.0000000000000D+00  0.0000000000000D+00
352  3.5100000000000D+00  0.0000000000000D+00  0.0000000000000D+00
353  3.5200000000000D+00  0.0000000000000D+00  0.0000000000000D+00
354  3.5300000000000D+00  0.0000000000000D+00  0.0000000000000D+00
355  3.5400000000000D+00  0.0000000000000D+00  0.0000000000000D+00
356  3.5500000000000D+00  0.0000000000000D+00  0.0000000000000D+00
357  3.5600000000000D+00  0.0000000000000D+00  0.0000000000000D+00
358  3.5700000000000D+00  0.0000000000000D+00  0.0000000000000D+00
359  3.5800000000000D+00  0.0000000000000D+00  0.0000000000000D+00
360  3.5900000000000D+00  0.0000000000000D+00  0.0000000000000D+00
361  3.6000000000000D+00  0.0000000000000D+00  0.0000000000000D+00
362  3.6100000000000D+00  0.0000000000000D+00  0.0000000000000D+00
363  3.6200000000000D+00  0.0000000000000D+00  0.0000000000000D+00
364  3.6300000000000D+00  0.0000000000000D+00  0.0000000000000D+00
365  3.6400000000000D+00  0.0000000000000D+00  0.0000000000000D+00
366  3.6500000000000D+00  0.0000000000000D+00  0.0000000000000D+00
367  3.6600000000000D+00  0.0000000000000D+00  0.0000000000000D+00
368  3.6700000000000D+00  0.0000000000000D+00  0.0000000000000D+00
369  3.6800000000000D+00  0.0000000000000D+00  0.0000000000000D+00
370  3.6900000000000D+00  0.0000000000000D+00  0.0000000000000D+00
371  3.7000000000000D+00  0.0000000000000D+00  0.0000000000000D+00
372  3.7100000000000D+00  0.0000000000000D+00  0.0000000000000D+00
373  3.7200000000000D+00  0.0000000000000D+00  0.0000000000000D+00
374  3.7300000000000D+00  0.0000000000000D+00  0.0000000000000D+00
375  3.7400000000000D+00  0.0000000000000D+00  0.0000000000000D+00
376  3.7500000000000D+00  0.0000000000000D+00  0.0000000000000D+00
377  3.7600000000000D+00  0.0000000000000D+00  0.0000000000000D+00
378  3.7700000000000D+00  0.0000000000000D+00  0.0000000000000D+00
379  3.7800000000000D+00  0.0000000000000D+00  0.0000000000000D+00
380  3.7900000000000D+00  0.0000000000000D+00  0.0000000000000D+00
381  3.8000000000000D+00  0.0000000000000D+00  0.0000000000000D+00
382  3.8100000000000D+00  0.0000000000000D+00  0.0000000000000D+00
383  3.8200000000000D+00  0.0000000000000D+00  0.0000000000000D+00
384  3.8300000000000D+00  0.0000000000000D+00  0.0000000000000D+00
385  3.8400000000000D+00  0.0000000000000D+00  0.0000000000000D+00
386  3.8500000000000D+00  0.0000000000000D+00  0.0000000000000D+00
387  3.8600000000000D+00  0.0000000000000D+00  0.0000000000000D+00
388  3.8700000000000D+00  0.0000000000000D+00  0.0000000000000D+00
389  3.8800000000000D+00  0.0000000000000D+00  0.0000000000000D+00
390  3.8900000000000D+00  0.0000000000000D+00  0.0000000000000D+00
391  3.9000000000000D+00  0.0000000000000D+00  0.0000000000000D+00
392  3.9100000000000D+00  0.0000000000000D+00  0.0000000000000D+00
393  3.9200000000000D+00  0.0000000000000D+00  0.0000000000000D+00
394  3.9300000000000D+00  0.0000000000000D+00  0.0000000000000D+00
395  3.9400000000000D+00  0.0000000000000D+00  0.0000000000000D+00
396  3.9500000000000D+00  0.0000000000000D+00  0.0000000000000D+00
397  3.9600000000000D+00  0.0000000000000D+00  0.0000000000000D+00
398  3.9700000000000D+00  0.0000000000000D+00  0.0000000000000D+00
399  3.9800000000000D+00  0.0000000000000D+00  0.0000000000000D+00
400  3.9900000000000D+00  0.0000000000000D+00  0.0000000000000D+00
401  4.0000000000000D+00  0.0000000000000D+00  0.0000000000000D+00
402  4.0100000000000D+00  0.0000000000000D+00  0.0000000000000D+00
403  4.0200000000000D+00  0.0000000000000D+00  0.0000000000000D+00
404  4.0300000000000D+00  0.0000000000000D+00  0.0000000000000D+00
405  4.0400000000000D+00  0.0000000000000D+00  0.0000000000000D+00
406  4.0500000000000D+00  0.0000000000000D+00  0.0000000000000D+00
407  4.0600000000000D+00  0.0000000000000D+00  0.0000000000000D+00
408  4.0700000000000D+00  0.0000000000000D+00  0.0000000000000D+00
409  4.0800000000000D+00  0.0000000000000D+00  0.0000000000000D+00
410  4.0900000000000D+00  0.0000000000000D+00  0.0000000000000D+00
411  4.1000000000000D+00  0.0000000000000D+00  0.0000000000000D+00
412  4.1100000000000D+00  0.0000000000000D+00  0.0000000000000D+00
413  4.1200000000000D+00  0.0000000000000D+00  0.0000000000000D+00
414  4.1300000000000D+00  0.0000000000000D+00  0.0000000000000D+00
415  4.1400000000000D+00  0.0000000000000D+00  0.0000000000000D+00
416  4.1500000000000D+00  0.0000000000000D+00  0.0000000000000D+00
417  4.1600000000000D+00  0.0000000000000D+00  0.0000000000000D+00
418  4.1700000000000D+00  0.0000000000000D+00  0.0000000000000D+00
419  4.1800000000000D+00  0.0000000000000D+00  0.0000000000000D+00
420  4.1900000000000D+00  0.0000000000000D+00  0.0000000000000D+00
421  4.2000000000000D+00  0.0000000000000D+00  0.0000000000000D+00
422  4.2100000000000D+00  0.0000000000000D+00  0.0000000000000D+00
423  4.2200000000000D+00  0.0000000000000D+00  0.0000000000000D+00
424  4.2300000000000D+00  0.0000000000000D+00  0.0000000000000D+00
425  4.2400000000000D+00  0.0000000000000D+00  0.0000000000000D+00
426  4.2500000000000D+00  0.0000000000000D+00  0.0000000000000D+00
427  4.2600000000000D+00  0.0000000000000D+00  0.0000000000000D+00
428  4.2700000000000D+00  0.0000000000000D+00  0.0000000000000D+00
429  4.2800000000000D+00  0.0000000000000D+00  0.0000000000000D+00
430  4.2900000000000D+00  0.0000000000000D+00  0.0000000000000D+00
431  4.3000000000000D+00  0.0000000000000D+00  0.0000000000000D+00
432  4.3100000000000D+00  0.0000000000000D+00  0.0000000000000D+00
433  4.3200000000000D+00  0.0000000000000D+00  0.0000000000000D+00
434  4.3300000000000D+00  0.0000000000000D+00  0.0000000000000D+00
435  4.3400000000000D+00  0.0000000000000D+00  0.0000000000000D+00
436  4.3500000000000D+00  0.0000000000000D+00  0.0000000000000D+00
437  4.3600000000000D+00  0.0000000000000D+00  0.0000000000000D+00
438  4.3700000000000D+00  0.0000000000000D+00  0.0000000000000D+00
439  4.3800000000000D+00  0.0000000000000D+00  0.0000000000000D+00
440  4.3900000000000D+00  0.0000000000000D+00  0.0000000000000D+00
441  4.4000000000000D+00  0.0000000000000D+00  0.0000000000000D+00
442  4.4100000000000D+00  0.0000000000000D+00  0.0000000000000D+00
443  4.4200000000000D+00  0.0000000000000D+00  0.0000000000000D+00