Er    ONCVPSP-3.3.0  r_core=   1.81708   1.50137   1.65170   1.71187
68.0000     22.0000      180112    zatom,zion,pspd
8 -116133   3     4   600     0    pspcod,pspxc,lmax,lloc,mmax,r2well
5.99000000  0.25000000  0.00000000    rchrg fchrg qchrg
2     2     2     2     0    nproj
1     1           extension_switch
0                         8.6826768621862D+00  6.9097559227149D-01
1  0.0000000000000D+00 -5.6986415586380D-11  3.1839153535884D-10
2  1.0000000000000D-02  5.2994570259151D-02 -2.3624388161557D-02
3  2.0000000000000D-02  1.0590882416644D-01 -4.7100305739518D-02
4  3.0000000000000D-02  1.5866267903509D-01 -7.0280341242271D-02
5  4.0000000000000D-02  2.1117651794477D-01 -9.3019192181353D-02
6  5.0000000000000D-02  2.6337141873013D-01 -1.1517469670238D-01
7  6.0000000000000D-02  3.1516937833625D-01 -1.3660883799812D-01
8  7.0000000000000D-02  3.6649353106436D-01 -1.5718871280762D-01
9  8.0000000000000D-02  4.1726835928775D-01 -1.7678745562360D-01
10  9.0000000000000D-02  4.6741989528840D-01 -1.9528511062365D-01
11  1.0000000000000D-01  5.1687591294784D-01 -2.1256944380550D-01
12  1.1000000000000D-01  5.6556610812021D-01 -2.2853668833846D-01
13  1.2000000000000D-01  6.1342226662200D-01 -2.4309221673851D-01
14  1.3000000000000D-01  6.6037841888819D-01 -2.5615113412736D-01
15  1.4000000000000D-01  7.0637098047003D-01 -2.6763878754182D-01
16  1.5000000000000D-01  7.5133887768207D-01 -2.7749118701177D-01
17  1.6000000000000D-01  7.9522365784546D-01 -2.8565533491733D-01
18  1.7000000000000D-01  8.3796958371947D-01 -2.9208946096164D-01
19  1.8000000000000D-01  8.7952371186123D-01 -2.9676316094738D-01
20  1.9000000000000D-01  9.1983595480526D-01 -2.9965743841586D-01
21  2.0000000000000D-01  9.5885912710614D-01 -3.0076464908941D-01
22  2.1000000000000D-01  9.9654897543949D-01 -3.0008834894313D-01
23  2.2000000000000D-01  1.0328641931061D+00 -2.9764304761300D-01
24  2.3000000000000D-01  1.0677664194308D+00 -2.9345386971582D-01
25  2.4000000000000D-01  1.1012202246879D+00 -2.8755612750486D-01
26  2.5000000000000D-01  1.1331930813225D+00 -2.7999480910569D-01
27  2.6000000000000D-01  1.1636553223614D+00 -2.7082398736115D-01
28  2.7000000000000D-01  1.1925800880283D+00 -2.6010615505657D-01
29  2.8000000000000D-01  1.2199432616830D+00 -2.4791149298817D-01
30  2.9000000000000D-01  1.2457233963052D+00 -2.3431707797241D-01
31  3.0000000000000D-01  1.2699016328201D+00 -2.1940603846630D-01
32  3.1000000000000D-01  1.2924616116404D+00 -2.0326666597179D-01
33  3.2000000000000D-01  1.3133893788491D+00 -1.8599149082624D-01
34  3.3000000000000D-01  1.3326732884893D+00 -1.6767633133129D-01
35  3.4000000000000D-01  1.3503039024517D+00 -1.4841932543990D-01
36  3.5000000000000D-01  1.3662738894562D+00 -1.2831995440264D-01
37  3.6000000000000D-01  1.3805779246169D+00 -1.0747806786710D-01
38  3.7000000000000D-01  1.3932125910508D+00 -8.5992919926386D-02
39  3.8000000000000D-01  1.4041762849499D+00 -6.3962225524063D-02
40  3.9000000000000D-01  1.4134691254739D+00 -4.1481246442326D-02
41  4.0000000000000D-01  1.4210928707477D+00 -1.8641915828842D-02
42  4.1000000000000D-01  1.4270508411521D+00  4.4679901416868D-03
43  4.2000000000000D-01  1.4313478509919D+00  2.7765625322317D-02
44  4.3000000000000D-01  1.4339901495034D+00  5.1173783745047D-02
45  4.4000000000000D-01  1.4349853720277D+00  7.4621539857220D-02
46  4.5000000000000D-01  1.4343425020332D+00  9.8044812513409D-02
47  4.6000000000000D-01  1.4320718445102D+00  1.2138684714275D-01
48  4.7000000000000D-01  1.4281850110983D+00  1.4459861132266D-01
49  4.8000000000000D-01  1.4226949171327D+00  1.6763909985295D-01
50  4.9000000000000D-01  1.4156157906185D+00  1.9047554633510D-01
51  5.0000000000000D-01  1.4069631929609D+00  2.1308353920634D-01
52  5.1000000000000D-01  1.3967540510951D+00  2.3544704115269D-01
53  5.2000000000000D-01  1.3850067004783D+00  2.5755831181554D-01
54  5.3000000000000D-01  1.3717409382283D+00  2.7941773470571D-01
55  5.4000000000000D-01  1.3569780855157D+00  3.0103355023484D-01
56  5.5000000000000D-01  1.3407410581528D+00  3.2242149775631D-01
57  5.6000000000000D-01  1.3230544441622D+00  3.4360437046751D-01
58  5.7000000000000D-01  1.3039445869630D+00  3.6461148794932D-01
59  5.8000000000000D-01  1.2834396726795D+00  3.8547809199801D-01
60  5.9000000000000D-01  1.2615698199596D+00  4.0624467223122D-01
61  6.0000000000000D-01  1.2383671705902D+00  4.2695622870762D-01
62  6.1000000000000D-01  1.2138659791179D+00  4.4766147948913D-01
63  6.2000000000000D-01  1.1881026996197D+00  4.6841202167728D-01
64  6.3000000000000D-01  1.1611160677332D+00  4.8926145497026D-01
65  6.4000000000000D-01  1.1329471760397D+00  5.1026447720558D-01
66  6.5000000000000D-01  1.1036395409022D+00  5.3147596166685D-01
67  6.6000000000000D-01  1.0732391588942D+00  5.5295002614163D-01
68  6.7000000000000D-01  1.0417945510139D+00  5.7473910381187D-01
69  6.8000000000000D-01  1.0093567929616D+00  5.9689302604158D-01
70  6.9000000000000D-01  9.7597952986771D-01  6.1945812699205D-01
71  7.0000000000000D-01  9.4171897398988D-01  6.4247637974810D-01
72  7.1000000000000D-01  9.0663388405636D-01  6.6598457327650D-01
73  7.2000000000000D-01  8.7078552510888D-01  6.9001353906632D-01
74  7.3000000000000D-01  8.3423760789888D-01  7.1458743572558D-01
75  7.4000000000000D-01  7.9705620710916D-01  7.3972309912809D-01
76  7.5000000000000D-01  7.5930965790715D-01  7.6542946493680D-01
77  7.6000000000000D-01  7.2106843058561D-01  7.9170706947538D-01
78  7.7000000000000D-01  6.8240498330712D-01  8.1854763399182D-01
79  7.8000000000000D-01  6.4339359323797D-01  8.4593373636679D-01
80  7.9000000000000D-01  6.0411016663179D-01  8.7383857327754D-01
81  8.0000000000000D-01  5.6463202869918D-01  9.0222581475222D-01
82  8.1000000000000D-01  5.2503769437544D-01  9.3104955194235D-01
83  8.2000000000000D-01  4.8540662136705D-01  9.6025433783519D-01
84  8.3000000000000D-01  4.4581894711812D-01  9.8977531952270D-01
85  8.4000000000000D-01  4.0635521158494D-01  1.0195384595634D+00
86  8.5000000000000D-01  3.6709606793728D-01  1.0494608429316D+00
87  8.6000000000000D-01  3.2812198351390D-01  1.0794510650620D+00
88  8.7000000000000D-01  2.8951293354524D-01  1.1094096955793D+00
89  8.8000000000000D-01  2.5134809031267D-01  1.1392298114722D+00
90  8.9000000000000D-01  2.1370551053953D-01  1.1687975927384D+00
91  9.0000000000000D-01  1.7666182390003D-01  1.1979929729074D+00
92  9.1000000000000D-01  1.4029192558621D-01  1.2266903363565D+00
93  9.2000000000000D-01  1.0466867588731D-01  1.2547592539758D+00
94  9.3000000000000D-01  6.9862609708282D-02  1.2820652485268D+00
95  9.4000000000000D-01  3.5941658884666D-02  1.3084705809809D+00
96  9.5000000000000D-01  2.9708900362821D-03  1.3338350492209D+00
97  9.6000000000000D-01 -2.8987739456861D-02  1.3580167907500D+00
98  9.7000000000000D-01 -5.9875604975614D-02  1.3808730814756D+00
99  9.8000000000000D-01 -8.9637615545654D-02  1.4022611232152D+00
100  9.9000000000000D-01 -1.1822239023879D-01  1.4220388133122D+00
101  1.0000000000000D+00 -1.4558240857363D-01  1.4400654906319D+00
102  1.0100000000000D+00 -1.7167413376715D-01  1.4562026532442D+00
103  1.0200000000000D+00 -1.9645810808347D-01  1.4703146442415D+00
104  1.0300000000000D+00 -2.1989901995017D-01  1.4822693033824D+00
105  1.0400000000000D+00 -2.4196574298003D-01  1.4919385836531D+00
106  1.0500000000000D+00 -2.6263134749440D-01  1.4991991332172D+00
107  1.0600000000000D+00 -2.8187308563119D-01  1.5039328447033D+00
108  1.0700000000000D+00 -2.9967235163313D-01  1.5060273753330D+00
109  1.0800000000000D+00 -3.1601461934358D-01  1.5053766426988D+00
110  1.0900000000000D+00 -3.3088935948706D-01  1.5018813026560D+00
111  1.1000000000000D+00 -3.4428993972651D-01  1.4954492170123D+00
112  1.1100000000000D+00 -3.5621351094352D-01  1.4859959200168D+00
113  1.1200000000000D+00 -3.6666088357368D-01  1.4734450937067D+00
114  1.1300000000000D+00 -3.7563639817121D-01  1.4577290630944D+00
115  1.1400000000000D+00 -3.8314779471225D-01  1.4387893229562D+00
116  1.1500000000000D+00 -3.8920608533567D-01  1.4165771083028D+00
117  1.1600000000000D+00 -3.9382543536582D-01  1.3910540206820D+00
118  1.1700000000000D+00 -3.9702305756226D-01  1.3621927224366D+00
119  1.1800000000000D+00 -3.9881912449295D-01  1.3299777102401D+00
120  1.1900000000000D+00 -3.9923670371736D-01  1.2944061779329D+00
121  1.2000000000000D+00 -3.9830172030018D-01  1.2554889776102D+00
122  1.2100000000000D+00 -3.9604295075977D-01  1.2132516856274D+00
123  1.2200000000000D+00 -3.9249205192123D-01  1.1677357771363D+00
124  1.2300000000000D+00 -3.8768362742417D-01  1.1189999093979D+00
125  1.2400000000000D+00 -3.8165533417711D-01  1.0671213118844D+00
126  1.2500000000000D+00 -3.7444802945830D-01  1.0121972740060D+00
127  1.2600000000000D+00 -3.6610595807736D-01  9.5434671569221D-01
128  1.2700000000000D+00 -3.5667697878035D-01  8.9371182490548D-01
129  1.2800000000000D+00 -3.4621282588918D-01  8.3045973225396D-01
130  1.2900000000000D+00 -3.3476940052133D-01  7.6478418587997D-01
131  1.3000000000000D+00 -3.2240708580333D-01  6.9690718996044D-01
132  1.3100000000000D+00 -3.0919107497020D-01  6.2708054651809D-01
133  1.3200000000000D+00 -2.9519169996457D-01  5.5558723488572D-01
134  1.3300000000000D+00 -2.8048474788521D-01  4.8274256192637D-01
135  1.3400000000000D+00 -2.6515174417150D-01  4.0889498021214D-01
136  1.3500000000000D+00 -2.4928018228344D-01  3.3442647509407D-01
137  1.3600000000000D+00 -2.3296367653463D-01  2.5975240840110D-01
138  1.3700000000000D+00 -2.1630200369972D-01  1.8532065981827D-01
139  1.3800000000000D+00 -1.9940100549760D-01  1.1160993440547D-01
140  1.3900000000000D+00 -1.8237231054920D-01  3.9127047596718D-02
141  1.4000000000000D+00 -1.6533282873644D-01 -3.1597025068298D-02
142  1.4100000000000D+00 -1.4840397870942D-01 -1.0001251300130D-01
143  1.4200000000000D+00 -1.3171058028334D-01 -1.6555793294257D-01
144  1.4300000000000D+00 -1.1537936090714D-01 -2.2766911725949D-01
145  1.4400000000000D+00 -9.9537004562094D-02 -2.8579050498370D-01
146  1.4500000000000D+00 -8.4307650274963D-02 -3.3938911392731D-01
147  1.4600000000000D+00 -6.9809802538300D-02 -3.8797133296126D-01
148  1.4700000000000D+00 -5.6152405319423D-02 -4.3110373891911D-01
149  1.4800000000000D+00 -4.3430716445038D-02 -4.6843450024487D-01
150  1.4900000000000D+00 -3.1721012278155D-02 -4.9972015604435D-01
151  1.5000000000000D+00 -2.1069602393508D-02 -5.2488331361295D-01
152  1.5100000000000D+00 -1.1493570647729D-02 -5.4400400801102D-01
153  1.5200000000000D+00 -2.9854332668237D-03 -5.5728793116397D-01
154  1.5300000000000D+00  4.4780608991483D-03 -5.6501611733467D-01
155  1.5400000000000D+00  1.0923754239655D-02 -5.6747630328776D-01
156  1.5500000000000D+00  1.6385210868523D-02 -5.6498079195254D-01
157  1.5600000000000D+00  2.0902941567331D-02 -5.5786860358290D-01
158  1.5700000000000D+00  2.4522875380620D-02 -5.4649714493927D-01
159  1.5800000000000D+00  2.7296214528859D-02 -5.3124204614757D-01
160  1.5900000000000D+00  2.9278698742766D-02 -5.1249365416810D-01
161  1.6000000000000D+00  3.0530015244489D-02 -4.9065440194849D-01
162  1.6100000000000D+00  3.1113151098929D-02 -4.6613589140171D-01
163  1.6200000000000D+00  3.1093725182169D-02 -4.3935589484269D-01
164  1.6300000000000D+00  3.0539305401005D-02 -4.1073529945374D-01
165  1.6400000000000D+00  2.9518716041402D-02 -3.8069501540891D-01
166  1.6500000000000D+00  2.8101340985227D-02 -3.4965287275002D-01
167  1.6600000000000D+00  2.6356428884447D-02 -3.1802053353894D-01
168  1.6700000000000D+00  2.4352405102108D-02 -2.8620044008305D-01
169  1.6800000000000D+00  2.2156196976895D-02 -2.5458282751422D-01
170  1.6900000000000D+00  1.9832576291389D-02 -2.2354281771466D-01
171  1.7000000000000D+00  1.7443526471195D-02 -1.9343762717964D-01
172  1.7100000000000D+00  1.5047636758765D-02 -1.6460389861899D-01
173  1.7200000000000D+00  1.2699531761052D-02 -1.3735519273993D-01
174  1.7300000000000D+00  1.0449336922472D-02 -1.1197964264186D-01
175  1.7400000000000D+00  8.3421888072027D-03 -8.8737809395191D-02
176  1.7500000000000D+00  6.4177891107308D-03 -6.7860734058327D-02
177  1.7600000000000D+00  4.7112216380566D-03 -4.9560840634112D-02
178  1.7700000000000D+00  3.2475558215370D-03 -3.3977766247391D-02
179  1.7800000000000D+00  2.0417285300807D-03 -2.1183213830211D-02
180  1.7900000000000D+00  1.1224415429185D-03 -1.1414633719169D-02
181  1.8000000000000D+00  5.1912839929516D-04 -4.9375351159954D-03
182  1.8100000000000D+00  1.9869130042222D-04 -1.4632198701170D-03
183  1.8200000000000D+00  5.9844103383797D-05 -8.3091895437540D-05
184  1.8300000000000D+00  9.3629367634549D-06  1.5576042331167D-04
185  1.8400000000000D+00 -1.4461291205734D-07 -1.4250070263655D-05
186  1.8500000000000D+00  7.8569749431121D-07 -7.3878115449210D-05
187  1.8600000000000D+00  1.8195025925315D-07 -9.0834110877695D-06
188  1.8700000000000D+00  2.9088038089173D-07  1.1665134824442D-05
189  1.8800000000000D+00  7.8379144719259D-08  5.1891994754107D-06
190  1.8900000000000D+00 -2.1664888180404D-07  8.1169347965286D-07
191  1.9000000000000D+00 -1.7636202076819D-07  6.6075532503981D-07
192  1.9100000000000D+00  0.0000000000000D+00  0.0000000000000D+00
193  1.9200000000000D+00  0.0000000000000D+00  0.0000000000000D+00
194  1.9300000000000D+00  0.0000000000000D+00  0.0000000000000D+00
195  1.9400000000000D+00  0.0000000000000D+00  0.0000000000000D+00
196  1.9500000000000D+00  0.0000000000000D+00  0.0000000000000D+00
197  1.9600000000000D+00  0.0000000000000D+00  0.0000000000000D+00
198  1.9700000000000D+00  0.0000000000000D+00  0.0000000000000D+00
199  1.9800000000000D+00  0.0000000000000D+00  0.0000000000000D+00
200  1.9900000000000D+00  0.0000000000000D+00  0.0000000000000D+00
201  2.0000000000000D+00  0.0000000000000D+00  0.0000000000000D+00
202  2.0100000000000D+00  0.0000000000000D+00  0.0000000000000D+00
203  2.0200000000000D+00  0.0000000000000D+00  0.0000000000000D+00
204  2.0300000000000D+00  0.0000000000000D+00  0.0000000000000D+00
205  2.0400000000000D+00  0.0000000000000D+00  0.0000000000000D+00
206  2.0500000000000D+00  0.0000000000000D+00  0.0000000000000D+00
207  2.0600000000000D+00  0.0000000000000D+00  0.0000000000000D+00
208  2.0700000000000D+00  0.0000000000000D+00  0.0000000000000D+00
209  2.0800000000000D+00  0.0000000000000D+00  0.0000000000000D+00
210  2.0900000000000D+00  0.0000000000000D+00  0.0000000000000D+00
211  2.1000000000000D+00  0.0000000000000D+00  0.0000000000000D+00
212  2.1100000000000D+00  0.0000000000000D+00  0.0000000000000D+00
213  2.1200000000000D+00  0.0000000000000D+00  0.0000000000000D+00
214  2.1300000000000D+00  0.0000000000000D+00  0.0000000000000D+00
215  2.1400000000000D+00  0.0000000000000D+00  0.0000000000000D+00
216  2.1500000000000D+00  0.0000000000000D+00  0.0000000000000D+00
217  2.1600000000000D+00  0.0000000000000D+00  0.0000000000000D+00
218  2.1700000000000D+00  0.0000000000000D+00  0.0000000000000D+00
219  2.1800000000000D+00  0.0000000000000D+00  0.0000000000000D+00
220  2.1900000000000D+00  0.0000000000000D+00  0.0000000000000D+00
221  2.2000000000000D+00  0.0000000000000D+00  0.0000000000000D+00
222  2.2100000000000D+00  0.0000000000000D+00  0.0000000000000D+00
223  2.2200000000000D+00  0.0000000000000D+00  0.0000000000000D+00
224  2.2300000000000D+00  0.0000000000000D+00  0.0000000000000D+00
225  2.2400000000000D+00  0.0000000000000D+00  0.0000000000000D+00
226  2.2500000000000D+00  0.0000000000000D+00  0.0000000000000D+00
227  2.2600000000000D+00  0.0000000000000D+00  0.0000000000000D+00
228  2.2700000000000D+00  0.0000000000000D+00  0.0000000000000D+00
229  2.2800000000000D+00  0.0000000000000D+00  0.0000000000000D+00
230  2.2900000000000D+00  0.0000000000000D+00  0.0000000000000D+00
231  2.3000000000000D+00  0.0000000000000D+00  0.0000000000000D+00
232  2.3100000000000D+00  0.0000000000000D+00  0.0000000000000D+00
233  2.3200000000000D+00  0.0000000000000D+00  0.0000000000000D+00
234  2.3300000000000D+00  0.0000000000000D+00  0.0000000000000D+00
235  2.3400000000000D+00  0.0000000000000D+00  0.0000000000000D+00
236  2.3500000000000D+00  0.0000000000000D+00  0.0000000000000D+00
237  2.3600000000000D+00  0.0000000000000D+00  0.0000000000000D+00
238  2.3700000000000D+00  0.0000000000000D+00  0.0000000000000D+00
239  2.3800000000000D+00  0.0000000000000D+00  0.0000000000000D+00
240  2.3900000000000D+00  0.0000000000000D+00  0.0000000000000D+00
241  2.4000000000000D+00  0.0000000000000D+00  0.0000000000000D+00
242  2.4100000000000D+00  0.0000000000000D+00  0.0000000000000D+00
243  2.4200000000000D+00  0.0000000000000D+00  0.0000000000000D+00
244  2.4300000000000D+00  0.0000000000000D+00  0.0000000000000D+00
245  2.4400000000000D+00  0.0000000000000D+00  0.0000000000000D+00
246  2.4500000000000D+00  0.0000000000000D+00  0.0000000000000D+00
247  2.4600000000000D+00  0.0000000000000D+00  0.0000000000000D+00
248  2.4700000000000D+00  0.0000000000000D+00  0.0000000000000D+00
249  2.4800000000000D+00  0.0000000000000D+00  0.0000000000000D+00
250  2.4900000000000D+00  0.0000000000000D+00  0.0000000000000D+00
251  2.5000000000000D+00  0.0000000000000D+00  0.0000000000000D+00
252  2.5100000000000D+00  0.0000000000000D+00  0.0000000000000D+00
253  2.5200000000000D+00  0.0000000000000D+00  0.0000000000000D+00
254  2.5300000000000D+00  0.0000000000000D+00  0.0000000000000D+00
255  2.5400000000000D+00  0.0000000000000D+00  0.0000000000000D+00
256  2.5500000000000D+00  0.0000000000000D+00  0.0000000000000D+00
257  2.5600000000000D+00  0.0000000000000D+00  0.0000000000000D+00
258  2.5700000000000D+00  0.0000000000000D+00  0.0000000000000D+00
259  2.5800000000000D+00  0.0000000000000D+00  0.0000000000000D+00
260  2.5900000000000D+00  0.0000000000000D+00  0.0000000000000D+00
261  2.6000000000000D+00  0.0000000000000D+00  0.0000000000000D+00
262  2.6100000000000D+00  0.0000000000000D+00  0.0000000000000D+00
263  2.6200000000000D+00  0.0000000000000D+00  0.0000000000000D+00
264  2.6300000000000D+00  0.0000000000000D+00  0.0000000000000D+00
265  2.6400000000000D+00  0.0000000000000D+00  0.0000000000000D+00
266  2.6500000000000D+00  0.0000000000000D+00  0.0000000000000D+00
267  2.6600000000000D+00  0.0000000000000D+00  0.0000000000000D+00
268  2.6700000000000D+00  0.0000000000000D+00  0.0000000000000D+00
269  2.6800000000000D+00  0.0000000000000D+00  0.0000000000000D+00
270  2.6900000000000D+00  0.0000000000000D+00  0.0000000000000D+00
271  2.7000000000000D+00  0.0000000000000D+00  0.0000000000000D+00
272  2.7100000000000D+00  0.0000000000000D+00  0.0000000000000D+00
273  2.7200000000000D+00  0.0000000000000D+00  0.0000000000000D+00
274  2.7300000000000D+00  0.0000000000000D+00  0.0000000000000D+00
275  2.7400000000000D+00  0.0000000000000D+00  0.0000000000000D+00
276  2.7500000000000D+00  0.0000000000000D+00  0.0000000000000D+00
277  2.7600000000000D+00  0.0000000000000D+00  0.0000000000000D+00
278  2.7700000000000D+00  0.0000000000000D+00  0.0000000000000D+00
279  2.7800000000000D+00  0.0000000000000D+00  0.0000000000000D+00
280  2.7900000000000D+00  0.0000000000000D+00  0.0000000000000D+00
281  2.8000000000000D+00  0.0000000000000D+00  0.0000000000000D+00
282  2.8100000000000D+00  0.0000000000000D+00  0.0000000000000D+00
283  2.8200000000000D+00  0.0000000000000D+00  0.0000000000000D+00
284  2.8300000000000D+00  0.0000000000000D+00  0.0000000000000D+00
285  2.8400000000000D+00  0.0000000000000D+00  0.0000000000000D+00
286  2.8500000000000D+00  0.0000000000000D+00  0.0000000000000D+00
287  2.8600000000000D+00  0.0000000000000D+00  0.0000000000000D+00
288  2.8700000000000D+00  0.0000000000000D+00  0.0000000000000D+00
289  2.8800000000000D+00  0.0000000000000D+00  0.0000000000000D+00
290  2.8900000000000D+00  0.0000000000000D+00  0.0000000000000D+00
291  2.9000000000000D+00  0.0000000000000D+00  0.0000000000000D+00
292  2.9100000000000D+00  0.0000000000000D+00  0.0000000000000D+00
293  2.9200000000000D+00  0.0000000000000D+00  0.0000000000000D+00
294  2.9300000000000D+00  0.0000000000000D+00  0.0000000000000D+00
295  2.9400000000000D+00  0.0000000000000D+00  0.0000000000000D+00
296  2.9500000000000D+00  0.0000000000000D+00  0.0000000000000D+00
297  2.9600000000000D+00  0.0000000000000D+00  0.0000000000000D+00
298  2.9700000000000D+00  0.0000000000000D+00  0.0000000000000D+00
299  2.9800000000000D+00  0.0000000000000D+00  0.0000000000000D+00
300  2.9900000000000D+00  0.0000000000000D+00  0.0000000000000D+00
301  3.0000000000000D+00  0.0000000000000D+00  0.0000000000000D+00
302  3.0100000000000D+00  0.0000000000000D+00  0.0000000000000D+00
303  3.0200000000000D+00  0.0000000000000D+00  0.0000000000000D+00
304  3.0300000000000D+00  0.0000000000000D+00  0.0000000000000D+00
305  3.0400000000000D+00  0.0000000000000D+00  0.0000000000000D+00
306  3.0500000000000D+00  0.0000000000000D+00  0.0000000000000D+00
307  3.0600000000000D+00  0.0000000000000D+00  0.0000000000000D+00
308  3.0700000000000D+00  0.0000000000000D+00  0.0000000000000D+00
309  3.0800000000000D+00  0.0000000000000D+00  0.0000000000000D+00
310  3.0900000000000D+00  0.0000000000000D+00  0.0000000000000D+00
311  3.1000000000000D+00  0.0000000000000D+00  0.0000000000000D+00
312  3.1100000000000D+00  0.0000000000000D+00  0.0000000000000D+00
313  3.1200000000000D+00  0.0000000000000D+00  0.0000000000000D+00
314  3.1300000000000D+00  0.0000000000000D+00  0.0000000000000D+00
315  3.1400000000000D+00  0.0000000000000D+00  0.0000000000000D+00
316  3.1500000000000D+00  0.0000000000000D+00  0.0000000000000D+00
317  3.1600000000000D+00  0.0000000000000D+00  0.0000000000000D+00
318  3.1700000000000D+00  0.0000000000000D+00  0.0000000000000D+00
319  3.1800000000000D+00  0.0000000000000D+00  0.0000000000000D+00
320  3.1900000000000D+00  0.0000000000000D+00  0.0000000000000D+00
321  3.2000000000000D+00  0.0000000000000D+00  0.0000000000000D+00
322  3.2100000000000D+00  0.0000000000000D+00  0.0000000000000D+00
323  3.2200000000000D+00  0.0000000000000D+00  0.0000000000000D+00
324  3.2300000000000D+00  0.0000000000000D+00  0.0000000000000D+00
325  3.2400000000000D+00  0.0000000000000D+00  0.0000000000000D+00
326  3.2500000000000D+00  0.0000000000000D+00  0.0000000000000D+00
327  3.2600000000000D+00  0.0000000000000D+00  0.0000000000000D+00
328  3.2700000000000D+00  0.0000000000000D+00  0.0000000000000D+00
329  3.2800000000000D+00  0.0000000000000D+00  0.0000000000000D+00
330  3.2900000000000D+00  0.0000000000000D+00  0.0000000000000D+00
331  3.3000000000000D+00  0.0000000000000D+00  0.0000000000000D+00
332  3.3100000000000D+00  0.0000000000000D+00  0.0000000000000D+00
333  3.3200000000000D+00  0.0000000000000D+00  0.0000000000000D+00
334  3.3300000000000D+00  0.0000000000000D+00  0.0000000000000D+00
335  3.3400000000000D+00  0.0000000000000D+00  0.0000000000000D+00
336  3.3500000000000D+00  0.0000000000000D+00  0.0000000000000D+00
337  3.3600000000000D+00  0.0000000000000D+00  0.0000000000000D+00
338  3.3700000000000D+00  0.0000000000000D+00  0.0000000000000D+00
339  3.3800000000000D+00  0.0000000000000D+00  0.0000000000000D+00
340  3.3900000000000D+00  0.0000000000000D+00  0.0000000000000D+00
341  3.4000000000000D+00  0.0000000000000D+00  0.0000000000000D+00
342  3.4100000000000D+00  0.0000000000000D+00  0.0000000000000D+00
343  3.4200000000000D+00  0.0000000000000D+00  0.0000000000000D+00
344  3.4300000000000D+00  0.0000000000000D+00  0.0000000000000D+00
345  3.4400000000000D+00  0.0000000000000D+00  0.0000000000000D+00
346  3.4500000000000D+00  0.0000000000000D+00  0.0000000000000D+00
347  3.4600000000000D+00  0.0000000000000D+00  0.0000000000000D+00
348  3.4700000000000D+00  0.0000000000000D+00  0.0000000000000D+00
349  3.4800000000000D+00  0.0000000000000D+00  0.0000000000000D+00
350  3.4900000000000D+00  0.0000000000000D+00  0.0000000000000D+00
351  3.5000000000000D+00  0.0000000000000D+00  0.0000000000000D+00
352  3.5100000000000D+00  0.0000000000000D+00  0.0000000000000D+00
353  3.5200000000000D+00  0.0000000000000D+00  0.0000000000000D+00
354  3.5300000000000D+00  0.0000000000000D+00  0.0000000000000D+00
355  3.5400000000000D+00  0.0000000000000D+00  0.0000000000000D+00
356  3.5500000000000D+00  0.0000000000000D+00  0.0000000000000D+00
357  3.5600000000000D+00  0.0000000000000D+00  0.0000000000000D+00
358  3.5700000000000D+00  0.0000000000000D+00  0.0000000000000D+00
359  3.5800000000000D+00  0.0000000000000D+00  0.0000000000000D+00
360  3.5900000000000D+00  0.0000000000000D+00  0.0000000000000D+00
361  3.6000000000000D+00  0.0000000000000D+00  0.0000000000000D+00
362  3.6100000000000D+00  0.0000000000000D+00  0.0000000000000D+00
363  3.6200000000000D+00  0.0000000000000D+00  0.0000000000000D+00
364  3.6300000000000D+00  0.0000000000000D+00  0.0000000000000D+00
365  3.6400000000000D+00  0.0000000000000D+00  0.0000000000000D+00
366  3.6500000000000D+00  0.0000000000000D+00  0.0000000000000D+00
367  3.6600000000000D+00  0.0000000000000D+00  0.0000000000000D+00
368  3.6700000000000D+00  0.0000000000000D+00  0.0000000000000D+00
369  3.6800000000000D+00  0.0000000000000D+00  0.0000000000000D+00
370  3.6900000000000D+00  0.0000000000000D+00  0.0000000000000D+00
371  3.7000000000000D+00  0.0000000000000D+00  0.0000000000000D+00
372  3.7100000000000D+00  0.0000000000000D+00  0.0000000000000D+00
373  3.7200000000000D+00  0.0000000000000D+00  0.0000000000000D+00
374  3.7300000000000D+00  0.0000000000000D+00  0.0000000000000D+00
375  3.7400000000000D+00  0.0000000000000D+00  0.0000000000000D+00
376  3.7500000000000D+00  0.0000000000000D+00  0.0000000000000D+00
377  3.7600000000000D+00  0.0000000000000D+00  0.0000000000000D+00
378  3.7700000000000D+00  0.0000000000000D+00  0.0000000000000D+00
379  3.7800000000000D+00  0.0000000000000D+00  0.0000000000000D+00
380  3.7900000000000D+00  0.0000000000000D+00  0.0000000000000D+00
381  3.8000000000000D+00  0.0000000000000D+00  0.0000000000000D+00
382  3.8100000000000D+00  0.0000000000000D+00  0.0000000000000D+00
383  3.8200000000000D+00  0.0000000000000D+00  0.0000000000000D+00
384  3.8300000000000D+00  0.0000000000000D+00  0.0000000000000D+00
385  3.8400000000000D+00  0.0000000000000D+00  0.0000000000000D+00
386  3.8500000000000D+00  0.0000000000000D+00  0.0000000000000D+00
387  3.8600000000000D+00  0.0000000000000D+00  0.0000000000000D+00
388  3.8700000000000D+00  0.0000000000000D+00  0.0000000000000D+00
389  3.8800000000000D+00  0.0000000000000D+00  0.0000000000000D+00
390  3.8900000000000D+00  0.0000000000000D+00  0.0000000000000D+00
391  3.9000000000000D+00  0.0000000000000D+00  0.0000000000000D+00
392  3.9100000000000D+00  0.0000000000000D+00  0.0000000000000D+00
393  3.9200000000000D+00  0.0000000000000D+00  0.0000000000000D+00
394  3.9300000000000D+00  0.0000000000000D+00  0.0000000000000D+00
395  3.9400000000000D+00  0.0000000000000D+00  0.0000000000000D+00
396  3.9500000000000D+00  0.0000000000000D+00  0.0000000000000D+00
397  3.9600000000000D+00  0.0000000000000D+00  0.0000000000000D+00
398  3.9700000000000D+00  0.0000000000000D+00  0.0000000000000D+00
399  3.9800000000000D+00  0.0000000000000D+00  0.0000000000000D+00
400  3.9900000000000D+00  0.0000000000000D+00  0.0000000000000D+00
401  4.0000000000000D+00  0.0000000000000D+00  0.0000000000000D+00
402  4.0100000000000D+00  0.0000000000000D+00  0.0000000000000D+00
403  4.0200000000000D+00  0.0000000000000D+00  0.0000000000000D+00
404  4.0300000000000D+00  0.0000000000000D+00  0.0000000000000D+00
405  4.0400000000000D+00  0.0000000000000D+00  0.0000000000000D+00
406  4.0500000000000D+00  0.0000000000000D+00  0.0000000000000D+00
407  4.0600000000000D+00  0.0000000000000D+00  0.0000000000000D+00
408  4.0700000000000D+00  0.0000000000000D+00  0.0000000000000D+00
409  4.0800000000000D+00  0.0000000000000D+00  0.0000000000000D+00
410  4.0900000000000D+00  0.0000000000000D+00  0.0000000000000D+00
411  4.1000000000000D+00  0.0000000000000D+00  0.0000000000000D+00
412  4.1100000000000D+00  0.0000000000000D+00  0.0000000000000D+00
413  4.1200000000000D+00  0.0000000000000D+00  0.0000000000000D+00
414  4.1300000000000D+00  0.0000000000000D+00  0.0000000000000D+00
415  4.1400000000000D+00  0.0000000000000D+00  0.0000000000000D+00
416  4.1500000000000D+00  0.0000000000000D+00  0.0000000000000D+00
417  4.1600000000000D+00  0.0000000000000D+00  0.0000000000000D+00
418  4.1700000000000D+00  0.0000000000000D+00  0.0000000000000D+00
419  4.1800000000000D+00  0.0000000000000D+00  0.0000000000000D+00
420  4.1900000000000D+00  0.0000000000000D+00  0.0000000000000D+00
421  4.2000000000000D+00  0.0000000000000D+00  0.0000000000000D+00
422  4.2100000000000D+00  0.0000000000000D+00  0.0000000000000D+00
423  4.2200000000000D+00  0.0000000000000D+00  0.0000000000000D+00
424  4.2300000000000D+00  0.0000000000000D+00  0.0000000000000D+00
425  4.2400000000000D+00  0.0000000000000D+00  0.0000000000000D+00
426  4.2500000000000D+00  0.0000000000000D+00  0.0000000000000D+00
427  4.2600000000000D+00  0.0000000000000D+00  0.0000000000000D+00
428  4.2700000000000D+00  0.0000000000000D+00  0.0000000000000D+00
429  4.2800000000000D+00  0.0000000000000D+00  0.0000000000000D+00
430  4.2900000000000D+00  0.0000000000000D+00  0.0000000000000D+00
431  4.3000000000000D+00  0.0000000000000D+00  0.0000000000000D+00
432  4.3100000000000D+00  0.0000000000000D+00  0.0000000000000D+00
433  4.3200000000000D+00  0.0000000000000D+00  0.0000000000000D+00
434  4.3300000000000D+00  0.0000000000000D+00  0.0000000000000D+00
435  4.3400000000000D+00  0.0000000000000D+00  0.0000000000000D+00
436  4.3500000000000D+00  0.0000000000000D+00  0.0000000000000D+00
437  4.3600000000000D+00  0.0000000000000D+00  0.0000000000000D+00
438  4.3700000000000D+00  0.0000000000000D+00  0.0000000000000D+00
439  4.3800000000000D+00  0.0000000000000D+00  0.0000000000000D+00
440  4.3900000000000D+00  0.0000000000000D+00  0.0000000000000D+00
441  4.4000000000000D+00  0.0000000000000D+00  0.0000000000000D+00
442  4.4100000000000D+00  0.0000000000000D+00  0.0000000000000D+00
443  4.4200000000000D+00  0.0000000000000D+00  0.0000000000000D+00