Bi    ONCVPSP  r_core=  2.43  2.52  2.10
83.0000     15.0000      161004    zatom,zion,pspd
8 -116133   2     4   600     0    pspcod,pspxc,lmax,lloc,mmax,r2well
5.99000000  6.00000000  0.00000000    rchrg fchrg qchrg
2     2     2     0     0    nproj
1                 extension_switch
0                         5.8512777143792D+00  8.8547039598486D-01
1  0.0000000000000D+00  1.7203044544445D-12 -4.7072068465326D-12
2  1.0000000000000D-02  1.3085555075296D-02  8.9179077272543D-03
3  2.0000000000000D-02  2.6188470776192D-02  1.7788321006188D-02
4  3.0000000000000D-02  3.9326037706756D-02  2.6563916374926D-02
5  4.0000000000000D-02  5.2515406618578D-02  3.5197711846015D-02
6  5.0000000000000D-02  6.5773518960535D-02  4.3643236398674D-02
7  6.0000000000000D-02  7.9117037998566D-02  5.1854697980385D-02
8  7.0000000000000D-02  9.2562280693424D-02  5.9787149526508D-02
9  8.0000000000000D-02  1.0612515052265D-01  6.7396652511278D-02
10  9.0000000000000D-02  1.1982107143090D-01  7.4640437549484D-02
11  1.0000000000000D-01  1.3366492309005D-01  8.1477061575197D-02
12  1.1000000000000D-01  1.4767097764775D-01  8.7866561132105D-02
13  1.2000000000000D-01  1.6185283813932D-01  9.3770601319433D-02
14  1.3000000000000D-01  1.7622337873445D-01  9.9152619947877D-02
15  1.4000000000000D-01  1.9079468698556D-01  1.0397796647165D-01
16  1.5000000000000D-01  2.0557800824040D-01  1.0821403527540D-01
17  1.6000000000000D-01  2.2058369237607D-01  1.1183039290864D-01
18  1.7000000000000D-01  2.3582114300656D-01  1.1479889887508D-01
19  1.8000000000000D-01  2.5129876930993D-01  1.1709381960034D-01
20  1.9000000000000D-01  2.6702394061513D-01  1.1869193521828D-01
21  2.0000000000000D-01  2.8300294388201D-01  1.1957263883417D-01
22  2.1000000000000D-01  2.9924094420110D-01  1.1971802794187D-01
23  2.2000000000000D-01  3.1574194843268D-01  1.1911298769187D-01
24  2.3000000000000D-01  3.3250877209710D-01  1.1774526572794D-01
25  2.4000000000000D-01  3.4954300962028D-01  1.1560553833158D-01
26  2.5000000000000D-01  3.6684500803067D-01  1.1268746763589D-01
27  2.6000000000000D-01  3.8441384419502D-01  1.0898774969381D-01
28  2.7000000000000D-01  4.0224730567200D-01  1.0450615320942D-01
29  2.8000000000000D-01  4.2034187525362D-01  9.9245548765870D-02
30  2.9000000000000D-01  4.3869271925536D-01  9.3211928408591D-02
31  3.0000000000000D-01  4.5729367960652D-01  8.6414415468516D-02
32  3.1000000000000D-01  4.7613726978257D-01  7.8865264536318D-02
33  3.2000000000000D-01  4.9521467461196D-01  7.0579851525804D-02
34  3.3000000000000D-01  5.1451575397948D-01  6.1576653791813D-02
35  3.4000000000000D-01  5.3402905043855D-01  5.1877220295800D-02
36  3.5000000000000D-01  5.5374180073467D-01  4.1506131840279D-02
37  3.6000000000000D-01  5.7363995123176D-01  3.0490951421741D-02
38  3.7000000000000D-01  5.9370817722327D-01  1.8862164779942D-02
39  3.8000000000000D-01  6.1392990609919D-01  6.6531112501504D-03
40  3.9000000000000D-01  6.3428734432997D-01 -6.1000949463846D-03
41  4.0000000000000D-01  6.5476150821802D-01 -1.9358652810127D-02
42  4.1000000000000D-01  6.7533225835691D-01 -3.3081171876754D-02
43  4.2000000000000D-01  6.9597833772860D-01 -4.7223778516140D-02
44  4.3000000000000D-01  7.1667741335825D-01 -6.1740230968267D-02
45  4.4000000000000D-01  7.3740612143676D-01 -7.6582042840173D-02
46  4.5000000000000D-01  7.5814011581070D-01 -9.1698614760525D-02
47  4.6000000000000D-01  7.7885411972992D-01 -1.0703737386211D-01
48  4.7000000000000D-01  7.9952198073349D-01 -1.2254392073625D-01
49  4.8000000000000D-01  8.2011672854518D-01 -1.3816218347789D-01
50  4.9000000000000D-01  8.4061063584080D-01 -1.5383457841551D-01
51  5.0000000000000D-01  8.6097528174069D-01 -1.6950217709643D-01
52  5.1000000000000D-01  8.8118161787246D-01 -1.8510487907499D-01
53  5.2000000000000D-01  9.0120003684064D-01 -2.0058159002981D-01
54  5.3000000000000D-01  9.2100044293229D-01 -2.1587040471530D-01
55  5.4000000000000D-01  9.4055232488008D-01 -2.3090879423340D-01
56  5.5000000000000D-01  9.5982483049752D-01 -2.4563379709324D-01
57  5.6000000000000D-01  9.7878684299425D-01 -2.5998221350980D-01
58  5.7000000000000D-01  9.9740705877338D-01 -2.7389080237688D-01
59  5.8000000000000D-01  1.0156540665072D+00 -2.8729648033631D-01
60  5.9000000000000D-01  1.0334964272824D+00 -3.0013652235241D-01
61  6.0000000000000D-01  1.0509027556014D+00 -3.1234876319065D-01
62  6.1000000000000D-01  1.0678418010227D+00 -3.2387179918977D-01
63  6.2000000000000D-01  1.0842825302192D+00 -3.3464518970996D-01
64  6.3000000000000D-01  1.1001942092302D+00 -3.4460965763376D-01
65  6.4000000000000D-01  1.1155464856824D+00 -3.5370728829302D-01
66  6.5000000000000D-01  1.1303094707514D+00 -3.6188172619343D-01
67  6.6000000000000D-01  1.1444538206347D+00 -3.6907836890820D-01
68  6.7000000000000D-01  1.1579508173084D+00 -3.7524455751489D-01
69  6.8000000000000D-01  1.1707724483379D+00 -3.8032976295324D-01
70  6.9000000000000D-01  1.1828914855151D+00 -3.8428576768828D-01
71  7.0000000000000D-01  1.1942815620960D+00 -3.8706684207087D-01
72  7.1000000000000D-01  1.2049172484149D+00 -3.8862991479826D-01
73  7.2000000000000D-01  1.2147741256535D+00 -3.8893473688935D-01
74  7.3000000000000D-01  1.2238288575492D+00 -3.8794403860352D-01
75  7.4000000000000D-01  1.2320592598277D+00 -3.8562367874830D-01
76  7.5000000000000D-01  1.2394443671526D+00 -3.8194278583917D-01
77  7.6000000000000D-01  1.2459644973903D+00 -3.7687389059491D-01
78  7.7000000000000D-01  1.2516013129922D+00 -3.7039304927449D-01
79  7.8000000000000D-01  1.2563378793068D+00 -3.6247995738457D-01
80  7.9000000000000D-01  1.2601587196381D+00 -3.5311805331325D-01
81  8.0000000000000D-01  1.2630498668778D+00 -3.4229461147283D-01
82  8.1000000000000D-01  1.2649989115460D+00 -3.3000082456363D-01
83  8.2000000000000D-01  1.2659950460841D+00 -3.1623187460172D-01
84  8.3000000000000D-01  1.2660291052551D+00 -3.0098699238583D-01
85  8.4000000000000D-01  1.2650936025138D+00 -2.8426950511266D-01
86  8.5000000000000D-01  1.2631827622251D+00 -2.6608687188462D-01
87  8.6000000000000D-01  1.2602925476133D+00 -2.4645070689080D-01
88  8.7000000000000D-01  1.2564206843442D+00 -2.2537679007942D-01
89  8.8000000000000D-01  1.2515666796473D+00 -2.0288506517872D-01
90  8.9000000000000D-01  1.2457318369037D+00 -1.7899962496240D-01
91  9.0000000000000D-01  1.2389192656331D+00 -1.5374868369652D-01
92  9.1000000000000D-01  1.2311338868302D+00 -1.2716453674554D-01
93  9.2000000000000D-01  1.2223824336119D+00 -9.9283507356404D-02
94  9.3000000000000D-01  1.2126734471517D+00 -7.0145880681934D-02
95  9.4000000000000D-01  1.2020172678898D+00 -3.9795825146580D-02
96  9.5000000000000D-01  1.1904260220237D+00 -8.2813012998477D-03
97  9.6000000000000D-01  1.1779136032950D+00  2.4346041654985D-02
98  9.7000000000000D-01  1.1644956501048D+00  5.8030981427367D-02
99  9.8000000000000D-01  1.1501895180032D+00  9.2714850030011D-02
100  9.9000000000000D-01  1.1350142476106D+00  1.2833567268110D-01
101  1.0000000000000D+00  1.1189905280460D+00  1.6482831786530D-01
102  1.0100000000000D+00  1.1021406559474D+00  2.0212465816158D-01
103  1.0200000000000D+00  1.0844884901850D+00  2.4015374140593D-01
104  1.0300000000000D+00  1.0660594023814D+00  2.7884197172050D-01
105  1.0400000000000D+00  1.0468802233642D+00  3.1811329990379D-01
106  1.0500000000000D+00  1.0269791856912D+00  3.5788942264148D-01
107  1.0600000000000D+00  1.0063858623985D+00  3.9808998996404D-01
108  1.0700000000000D+00  9.8513110213648D-01  4.3863282034654D-01
109  1.0800000000000D+00  9.6324696086572D-01  4.7943412281365D-01
110  1.0900000000000D+00  9.4076663030160D-01  5.2040872538705D-01
111  1.1000000000000D+00  9.1772436330121D-01  5.6147030918484D-01
112  1.1100000000000D+00  8.9415539639928D-01  6.0253164746034D-01
113  1.1200000000000D+00  8.7009586970787D-01  6.4350484884449D-01
114  1.1300000000000D+00  8.4558274440338D-01  6.8430160403735D-01
115  1.1400000000000D+00  8.2065371803241D-01  7.2483343517711D-01
116  1.1500000000000D+00  7.9534713787463D-01  7.6501194710200D-01
117  1.1600000000000D+00  7.6970191260741D-01  8.0474907970773D-01
118  1.1700000000000D+00  7.4375742252337D-01  8.4395736059368D-01
119  1.1800000000000D+00  7.1755342855596D-01  8.8255015718630D-01
120  1.1900000000000D+00  6.9112998037212D-01  9.2044192752425D-01
121  1.2000000000000D+00  6.6452732379530D-01  9.5754846888814D-01
122  1.2100000000000D+00  6.3778580782386D-01  9.9378716346121D-01
123  1.2200000000000D+00  6.1094579151109D-01  1.0290772202139D+00
124  1.2300000000000D+00  5.8404755097461D-01  1.0633399122077D+00
125  1.2400000000000D+00  5.5713118680257D-01  1.0964988085297D+00
126  1.2500000000000D+00  5.3023653212153D-01  1.1284800000873D+00
127  1.2600000000000D+00  5.0340306159217D-01  1.1592123184916D+00
128  1.2700000000000D+00  4.7666980159352D-01  1.1886275472958D+00
129  1.2800000000000D+00  4.5007524185178D-01  1.2166606248780D+00
130  1.2900000000000D+00  4.2365724877115D-01  1.2432498382546D+00
131  1.3000000000000D+00  3.9745298071232D-01  1.2683370071710D+00
132  1.3100000000000D+00  3.7149880545833D-01  1.2918676578430D+00
133  1.3200000000000D+00  3.4583022011013D-01  1.3137911857117D+00
134  1.3300000000000D+00  3.2048177363303D-01  1.3340610066713D+00
135  1.3400000000000D+00  2.9548699227306D-01  1.3526346962347D+00
136  1.3500000000000D+00  2.7087830806162D-01  1.3694741161082D+00
137  1.3600000000000D+00  2.4668699059722D-01  1.3845455277690D+00
138  1.3700000000000D+00  2.2294308230172D-01  1.3978196926006D+00
139  1.3800000000000D+00  1.9967533733292D-01  1.4092719582089D+00
140  1.3900000000000D+00  1.7691116430513D-01  1.4188823306549D+00
141  1.4000000000000D+00  1.5467657299663D-01  1.4266355322370D+00
142  1.4100000000000D+00  1.3299612516557D-01  1.4325210446756D+00
143  1.4200000000000D+00  1.1189288961049D-01  1.4365331374929D+00
144  1.4300000000000D+00  9.1388401604141D-02  1.4386708814136D+00
145  1.4400000000000D+00  7.1502626771780D-02  1.4389381468172D+00
146  1.4500000000000D+00  5.2253929542593D-02  1.4373435870689D+00
147  1.4600000000000D+00  3.3659046210614D-02  1.4339006068824D+00
148  1.4700000000000D+00  1.5733062684346D-02  1.4286273157164D+00
149  1.4800000000000D+00 -1.5106030268876D-03  1.4215464663172D+00
150  1.4900000000000D+00 -1.8060213590503D-02  1.4126853786814D+00
151  1.5000000000000D+00 -3.3905720325439D-02  1.4020758494904D+00
152  1.5100000000000D+00 -4.9038766440421D-02  1.3897540475068D+00
153  1.5200000000000D+00 -6.3452685484240D-02  1.3757603950367D+00
154  1.5300000000000D+00 -7.7142495094436D-02  1.3601394360101D+00
155  1.5400000000000D+00 -9.0104886051820D-02  1.3429396909743D+00
156  1.5500000000000D+00 -1.0233820671399D-01  1.3242134995080D+00
157  1.5600000000000D+00 -1.1384244291079D-01  1.3040168505843D+00
158  1.5700000000000D+00 -1.2461919335517D-01  1.2824092013334D+00
159  1.5800000000000D+00 -1.3467164072553D-01  1.2594532849424D+00
160  1.5900000000000D+00 -1.4400451845635D-01  1.2352149081046D+00
161  1.6000000000000D+00 -1.5262407345724D-01  1.2097627389248D+00
162  1.6100000000000D+00 -1.6053802479133D-01  1.1831680856888D+00
163  1.6200000000000D+00 -1.6775551857358D-01  1.1555046674974D+00
164  1.6300000000000D+00 -1.7428707914181D-01  1.1268483772446D+00
165  1.6400000000000D+00 -1.8014455677031D-01  1.0972770379435D+00
166  1.6500000000000D+00 -1.8534107201663D-01  1.0668701529901D+00
167  1.6600000000000D+00 -1.8989095697116D-01  1.0357086513428D+00
168  1.6700000000000D+00 -1.9380969353539D-01  1.0038746283046D+00
169  1.6800000000000D+00 -1.9711384899818D-01  9.7145108285894D-01
170  1.6900000000000D+00 -1.9982100906453D-01  9.3852165231891D-01
171  1.7000000000000D+00 -2.0194970860679D-01  9.0517034521034D-01
172  1.7100000000000D+00 -2.0351936031475D-01  8.7148127320623D-01
173  1.7200000000000D+00 -2.0455018151486D-01  8.3753838298552D-01
174  1.7300000000000D+00 -2.0506311935257D-01  8.0342518889095D-01
175  1.7400000000000D+00 -2.0507977460409D-01  7.6922450717921D-01
176  1.7500000000000D+00 -2.0462232432936D-01  7.3501819281229D-01
177  1.7600000000000D+00 -2.0371344361938D-01  7.0088687945051D-01
178  1.7700000000000D+00 -2.0237622667296D-01  6.6690972371128D-01
179  1.7800000000000D+00 -2.0063410742796D-01  6.3316415414566D-01
180  1.7900000000000D+00 -1.9851078001622D-01  5.9972562616716D-01
181  1.8000000000000D+00 -1.9603011922202D-01  5.6666738311392D-01
182  1.8100000000000D+00 -1.9321610125321D-01  5.3406022484350D-01
183  1.8200000000000D+00 -1.9009272495913D-01  5.0197228383272D-01
184  1.8300000000000D+00 -1.8668393382447D-01  4.7046881018169D-01
185  1.8400000000000D+00 -1.8301353885295D-01  4.3961196547720D-01
186  1.8500000000000D+00 -1.7910514265191D-01  4.0946062669793D-01
187  1.8600000000000D+00 -1.7498206485009D-01  3.8007020029934D-01
188  1.8700000000000D+00 -1.7066726909067D-01  3.5149244721407D-01
189  1.8800000000000D+00 -1.6618329180342D-01  3.2377531932234D-01
190  1.8900000000000D+00 -1.6155217286544D-01  2.9696280742171D-01
191  1.9000000000000D+00 -1.5679538848827D-01  2.7109480191491D-01
192  1.9100000000000D+00 -1.5193378624779D-01  2.4620696532228D-01
193  1.9200000000000D+00 -1.4698752274630D-01  2.2233061851742D-01
194  1.9300000000000D+00 -1.4197600370091D-01  1.9949263927310D-01
195  1.9400000000000D+00 -1.3691782630279D-01  1.7771537212290D-01
196  1.9500000000000D+00 -1.3183072695745D-01  1.5701656268380D-01
197  1.9600000000000D+00 -1.2673152799740D-01  1.3740928839752D-01
198  1.9700000000000D+00 -1.2163608389400D-01  1.1890188728703D-01
199  1.9800000000000D+00 -1.1655926700727D-01  1.0149805294099D-01
200  1.9900000000000D+00 -1.1151489616282D-01  8.5196698442020D-02
201  2.0000000000000D+00 -1.0651563569398D-01  6.9991663323998D-02
202  2.0100000000000D+00 -1.0157307526800D-01  5.5872227057030D-02
203  2.0200000000000D+00 -9.6697792418634D-02  4.2823550227324D-02
204  2.0300000000000D+00 -9.1899422436607D-02  3.0827116259627D-02
205  2.0400000000000D+00 -8.7186729326423D-02  1.9861112368833D-02
206  2.0500000000000D+00 -8.2567788750183D-02  9.9013175801736D-03
207  2.0600000000000D+00 -7.8049918174525D-02  9.2087082445163D-04
208  2.0700000000000D+00 -7.3639692567845D-02 -7.1096089214127D-03
209  2.0800000000000D+00 -6.9342965492021D-02 -1.4221866687743D-02
210  2.0900000000000D+00 -6.5164906465858D-02 -2.0449778612206D-02
211  2.1000000000000D+00 -6.1110014904546D-02 -2.5829233968667D-02
212  2.1100000000000D+00 -5.7182151378908D-02 -3.0397938548156D-02
213  2.1200000000000D+00 -5.3384564190112D-02 -3.4195241566409D-02
214  2.1300000000000D+00 -4.9719918461034D-02 -3.7261953129363D-02
215  2.1400000000000D+00 -4.6190326389178D-02 -3.9640158426360D-02
216  2.1500000000000D+00 -4.2797378456073D-02 -4.1373029510551D-02
217  2.1600000000000D+00 -3.9542175526476D-02 -4.2504635068739D-02
218  2.1700000000000D+00 -3.6425361607097D-02 -4.3079749086232D-02
219  2.1800000000000D+00 -3.3447157134990D-02 -4.3143659049720D-02
220  2.1900000000000D+00 -3.0607392626734D-02 -4.2741974427605D-02
221  2.2000000000000D+00 -2.7905542574416D-02 -4.1920435869890D-02
222  2.2100000000000D+00 -2.5340759328697D-02 -4.0724726359975D-02
223  2.2200000000000D+00 -2.2911906929140D-02 -3.9200284411218D-02
224  2.2300000000000D+00 -2.0617594684148D-02 -3.7392120202112D-02
225  2.2400000000000D+00 -1.8456210252137D-02 -3.5344635762710D-02
226  2.2500000000000D+00 -1.6425952306117D-02 -3.3101448791687D-02
227  2.2600000000000D+00 -1.4524862376920D-02 -3.0705221924856D-02
228  2.2700000000000D+00 -1.2750855832654D-02 -2.8197497616227D-02
229  2.2800000000000D+00 -1.1101752090503D-02 -2.5618538184697D-02
230  2.2900000000000D+00 -9.5753033965579D-03 -2.3007173975564D-02
231  2.3000000000000D+00 -8.1692225863413D-03 -2.0400657781940D-02
232  2.3100000000000D+00 -6.8812095194691D-03 -1.7834526877556D-02
233  2.3200000000000D+00 -5.7089757799753D-03 -1.5342474450216D-02
234  2.3300000000000D+00 -4.6502681183688D-03 -1.2956228330444D-02
235  2.3400000000000D+00 -3.7028900511751D-03 -1.0705439573518D-02
236  2.3500000000000D+00 -2.8651343489927D-03 -8.6199237725213D-03
237  2.3600000000000D+00 -2.1343000563780D-03 -6.7210484699931D-03
238  2.3700000000000D+00 -1.5080655675000D-03 -5.0293539434133D-03
239  2.3800000000000D+00 -9.8356277570362D-04 -3.5537863378801D-03
240  2.3900000000000D+00 -5.6275453071342D-04 -2.3430947126674D-03
241  2.4000000000000D+00 -2.4564561446435D-04 -1.4272358158242D-03
242  2.4100000000000D+00 -2.9021148418144D-05 -8.2544527470657D-04
243  2.4200000000000D+00  9.2198791124988D-05 -4.5793104109386D-04
244  2.4300000000000D+00  1.2818018866029D-04 -2.4537278862024D-04
245  2.4400000000000D+00  9.6036313073720D-05 -1.0847118680336D-04
246  2.4500000000000D+00  3.7828033642201D-05 -3.0442322307416D-05
247  2.4600000000000D+00 -8.6958946243376D-06  5.9809827644922D-06
248  2.4700000000000D+00 -1.9798117365465D-05  1.1117044553027D-05
249  2.4800000000000D+00 -1.0591199227350D-05  5.0384915275291D-06
250  2.4900000000000D+00  1.8593124749591D-06 -1.6093812122649D-06
251  2.5000000000000D+00  4.2006926734293D-06 -3.4203219946521D-06
252  2.5100000000000D+00  2.3571937051864D-06 -1.8215020172606D-06
253  2.5200000000000D+00 -1.5926403961322D-07  3.5680591574161D-07
254  2.5300000000000D+00 -3.6270057763690D-07  8.1257333455832D-07
255  2.5400000000000D+00 -2.1291448415919D-07  4.7700125954085D-07
256  2.5500000000000D+00  0.0000000000000D+00  0.0000000000000D+00
257  2.5600000000000D+00  0.0000000000000D+00  0.0000000000000D+00
258  2.5700000000000D+00  0.0000000000000D+00  0.0000000000000D+00
259  2.5800000000000D+00  0.0000000000000D+00  0.0000000000000D+00
260  2.5900000000000D+00  0.0000000000000D+00  0.0000000000000D+00
261  2.6000000000000D+00  0.0000000000000D+00  0.0000000000000D+00
262  2.6100000000000D+00  0.0000000000000D+00  0.0000000000000D+00
263  2.6200000000000D+00  0.0000000000000D+00  0.0000000000000D+00
264  2.6300000000000D+00  0.0000000000000D+00  0.0000000000000D+00
265  2.6400000000000D+00  0.0000000000000D+00  0.0000000000000D+00
266  2.6500000000000D+00  0.0000000000000D+00  0.0000000000000D+00
267  2.6600000000000D+00  0.0000000000000D+00  0.0000000000000D+00
268  2.6700000000000D+00  0.0000000000000D+00  0.0000000000000D+00
269  2.6800000000000D+00  0.0000000000000D+00  0.0000000000000D+00
270  2.6900000000000D+00  0.0000000000000D+00  0.0000000000000D+00
271  2.7000000000000D+00  0.0000000000000D+00  0.0000000000000D+00
272  2.7100000000000D+00  0.0000000000000D+00  0.0000000000000D+00
273  2.7200000000000D+00  0.0000000000000D+00  0.0000000000000D+00
274  2.7300000000000D+00  0.0000000000000D+00  0.0000000000000D+00
275  2.7400000000000D+00  0.0000000000000D+00  0.0000000000000D+00
276  2.7500000000000D+00  0.0000000000000D+00  0.0000000000000D+00
277  2.7600000000000D+00  0.0000000000000D+00  0.0000000000000D+00
278  2.7700000000000D+00  0.0000000000000D+00  0.0000000000000D+00
279  2.7800000000000D+00  0.0000000000000D+00  0.0000000000000D+00
280  2.7900000000000D+00  0.0000000000000D+00  0.0000000000000D+00
281  2.8000000000000D+00  0.0000000000000D+00  0.0000000000000D+00
282  2.8100000000000D+00  0.0000000000000D+00  0.0000000000000D+00
283  2.8200000000000D+00  0.0000000000000D+00  0.0000000000000D+00
284  2.8300000000000D+00  0.0000000000000D+00  0.0000000000000D+00
285  2.8400000000000D+00  0.0000000000000D+00  0.0000000000000D+00
286  2.8500000000000D+00  0.0000000000000D+00  0.0000000000000D+00
287  2.8600000000000D+00  0.0000000000000D+00  0.0000000000000D+00
288  2.8700000000000D+00  0.0000000000000D+00  0.0000000000000D+00
289  2.8800000000000D+00  0.0000000000000D+00  0.0000000000000D+00
290  2.8900000000000D+00  0.0000000000000D+00  0.0000000000000D+00
291  2.9000000000000D+00  0.0000000000000D+00  0.0000000000000D+00
292  2.9100000000000D+00  0.0000000000000D+00  0.0000000000000D+00
293  2.9200000000000D+00  0.0000000000000D+00  0.0000000000000D+00
294  2.9300000000000D+00  0.0000000000000D+00  0.0000000000000D+00
295  2.9400000000000D+00  0.0000000000000D+00  0.0000000000000D+00
296  2.9500000000000D+00  0.0000000000000D+00  0.0000000000000D+00
297  2.9600000000000D+00  0.0000000000000D+00  0.0000000000000D+00
298  2.9700000000000D+00  0.0000000000000D+00  0.0000000000000D+00
299  2.9800000000000D+00  0.0000000000000D+00  0.0000000000000D+00
300  2.9900000000000D+00  0.0000000000000D+00  0.0000000000000D+00
301  3.0000000000000D+00  0.0000000000000D+00  0.0000000000000D+00
302  3.0100000000000D+00  0.0000000000000D+00  0.0000000000000D+00
303  3.0200000000000D+00  0.0000000000000D+00  0.0000000000000D+00
304  3.0300000000000D+00  0.0000000000000D+00  0.0000000000000D+00
305  3.0400000000000D+00  0.0000000000000D+00  0.0000000000000D+00
306  3.0500000000000D+00  0.0000000000000D+00  0.0000000000000D+00
307  3.0600000000000D+00  0.0000000000000D+00  0.0000000000000D+00
308  3.0700000000000D+00  0.0000000000000D+00  0.0000000000000D+00
309  3.0800000000000D+00  0.0000000000000D+00  0.0000000000000D+00
310  3.0900000000000D+00  0.0000000000000D+00  0.0000000000000D+00
311  3.1000000000000D+00  0.0000000000000D+00  0.0000000000000D+00
312  3.1100000000000D+00  0.0000000000000D+00  0.0000000000000D+00
313  3.1200000000000D+00  0.0000000000000D+00  0.0000000000000D+00
314  3.1300000000000D+00  0.0000000000000D+00  0.0000000000000D+00
315  3.1400000000000D+00  0.0000000000000D+00  0.0000000000000D+00
316  3.1500000000000D+00  0.0000000000000D+00  0.0000000000000D+00
317  3.1600000000000D+00  0.0000000000000D+00  0.0000000000000D+00
318  3.1700000000000D+00  0.0000000000000D+00  0.0000000000000D+00
319  3.1800000000000D+00  0.0000000000000D+00  0.0000000000000D+00
320  3.1900000000000D+00  0.0000000000000D+00  0.0000000000000D+00
321  3.2000000000000D+00  0.0000000000000D+00  0.0000000000000D+00
322  3.2100000000000D+00  0.0000000000000D+00  0.0000000000000D+00
323  3.2200000000000D+00  0.0000000000000D+00  0.0000000000000D+00
324  3.2300000000000D+00  0.0000000000000D+00  0.0000000000000D+00
325  3.2400000000000D+00  0.0000000000000D+00  0.0000000000000D+00
326  3.2500000000000D+00  0.0000000000000D+00  0.0000000000000D+00
327  3.2600000000000D+00  0.0000000000000D+00  0.0000000000000D+00
328  3.2700000000000D+00  0.0000000000000D+00  0.0000000000000D+00
329  3.2800000000000D+00  0.0000000000000D+00  0.0000000000000D+00
330  3.2900000000000D+00  0.0000000000000D+00  0.0000000000000D+00
331  3.3000000000000D+00  0.0000000000000D+00  0.0000000000000D+00
332  3.3100000000000D+00  0.0000000000000D+00  0.0000000000000D+00
333  3.3200000000000D+00  0.0000000000000D+00  0.0000000000000D+00
334  3.3300000000000D+00  0.0000000000000D+00  0.0000000000000D+00
335  3.3400000000000D+00  0.0000000000000D+00  0.0000000000000D+00
336  3.3500000000000D+00  0.0000000000000D+00  0.0000000000000D+00
337  3.3600000000000D+00  0.0000000000000D+00  0.0000000000000D+00
338  3.3700000000000D+00  0.0000000000000D+00  0.0000000000000D+00
339  3.3800000000000D+00  0.0000000000000D+00  0.0000000000000D+00
340  3.3900000000000D+00  0.0000000000000D+00  0.0000000000000D+00
341  3.4000000000000D+00  0.0000000000000D+00  0.0000000000000D+00
342  3.4100000000000D+00  0.0000000000000D+00  0.0000000000000D+00
343  3.4200000000000D+00  0.0000000000000D+00  0.0000000000000D+00
344  3.4300000000000D+00  0.0000000000000D+00  0.0000000000000D+00
345  3.4400000000000D+00  0.0000000000000D+00  0.0000000000000D+00
346  3.4500000000000D+00  0.0000000000000D+00  0.0000000000000D+00
347  3.4600000000000D+00  0.0000000000000D+00  0.0000000000000D+00
348  3.4700000000000D+00  0.0000000000000D+00  0.0000000000000D+00
349  3.4800000000000D+00  0.0000000000000D+00  0.0000000000000D+00
350  3.4900000000000D+00  0.0000000000000D+00  0.0000000000000D+00
351  3.5000000000000D+00  0.0000000000000D+00  0.0000000000000D+00
352  3.5100000000000D+00  0.0000000000000D+00  0.0000000000000D+00
353  3.5200000000000D+00  0.0000000000000D+00  0.0000000000000D+00
354  3.5300000000000D+00  0.0000000000000D+00  0.0000000000000D+00
355  3.5400000000000D+00  0.0000000000000D+00  0.0000000000000D+00
356  3.5500000000000D+00  0.0000000000000D+00  0.0000000000000D+00
357  3.5600000000000D+00  0.0000000000000D+00  0.0000000000000D+00
358  3.5700000000000D+00  0.0000000000000D+00  0.0000000000000D+00
359  3.5800000000000D+00  0.0000000000000D+00  0.0000000000000D+00
360  3.5900000000000D+00  0.0000000000000D+00  0.0000000000000D+00
361  3.6000000000000D+00  0.0000000000000D+00  0.0000000000000D+00
362  3.6100000000000D+00  0.0000000000000D+00  0.0000000000000D+00
363  3.6200000000000D+00  0.0000000000000D+00  0.0000000000000D+00
364  3.6300000000000D+00  0.0000000000000D+00  0.0000000000000D+00
365  3.6400000000000D+00  0.0000000000000D+00  0.0000000000000D+00
366  3.6500000000000D+00  0.0000000000000D+00  0.0000000000000D+00
367  3.6600000000000D+00  0.0000000000000D+00  0.0000000000000D+00
368  3.6700000000000D+00  0.0000000000000D+00  0.0000000000000D+00
369  3.6800000000000D+00  0.0000000000000D+00  0.0000000000000D+00
370  3.6900000000000D+00  0.0000000000000D+00  0.0000000000000D+00
371  3.7000000000000D+00  0.0000000000000D+00  0.0000000000000D+00
372  3.7100000000000D+00  0.0000000000000D+00  0.0000000000000D+00
373  3.7200000000000D+00  0.0000000000000D+00  0.0000000000000D+00
374  3.7300000000000D+00  0.0000000000000D+00  0.0000000000000D+00
375  3.7400000000000D+00  0.0000000000000D+00  0.0000000000000D+00
376  3.7500000000000D+00  0.0000000000000D+00  0.0000000000000D+00
377  3.7600000000000D+00  0.0000000000000D+00  0.0000000000000D+00
378  3.7700000000000D+00  0.0000000000000D+00  0.0000000000000D+00
379  3.7800000000000D+00  0.0000000000000D+00  0.0000000000000D+00
380  3.7900000000000D+00  0.0000000000000D+00  0.0000000000000D+00
381  3.8000000000000D+00  0.0000000000000D+00  0.0000000000000D+00
382  3.8100000000000D+00  0.0000000000000D+00  0.0000000000000D+00
383  3.8200000000000D+00  0.0000000000000D+00  0.0000000000000D+00
384  3.8300000000000D+00  0.0000000000000D+00  0.0000000000000D+00
385  3.8400000000000D+00  0.0000000000000D+00  0.0000000000000D+00
386  3.8500000000000D+00  0.0000000000000D+00  0.0000000000000D+00
387  3.8600000000000D+00  0.0000000000000D+00  0.0000000000000D+00
388  3.8700000000000D+00  0.0000000000000D+00  0.0000000000000D+00
389  3.8800000000000D+00  0.0000000000000D+00  0.0000000000000D+00
390  3.8900000000000D+00  0.0000000000000D+00  0.0000000000000D+00
391  3.9000000000000D+00  0.0000000000000D+00  0.0000000000000D+00
392  3.9100000000000D+00  0.0000000000000D+00  0.0000000000000D+00
393  3.9200000000000D+00  0.0000000000000D+00  0.0000000000000D+00
394  3.9300000000000D+00  0.0000000000000D+00  0.0000000000000D+00
395  3.9400000000000D+00  0.0000000000000D+00  0.0000000000000D+00
396  3.9500000000000D+00  0.0000000000000D+00  0.0000000000000D+00
397  3.9600000000000D+00  0.0000000000000D+00  0.0000000000000D+00
398  3.9700000000000D+00  0.0000000000000D+00  0.0000000000000D+00
399  3.9800000000000D+00  0.0000000000000D+00  0.0000000000000D+00
400  3.9900000000000D+00  0.0000000000000D+00  0.0000000000000D+00
401  4.0000000000000D+00  0.0000000000000D+00  0.0000000000000D+00
402  4.0100000000000D+00  0.0000000000000D+00  0.0000000000000D+00
403  4.0200000000000D+00  0.0000000000000D+00  0.0000000000000D+00
404  4.0300000000000D+00  0.0000000000000D+00  0.0000000000000D+00
405  4.0400000000000D+00  0.0000000000000D+00  0.0000000000000D+00
406  4.0500000000000D+00  0.0000000000000D+00  0.0000000000000D+00
407  4.0600000000000D+00  0.0000000000000D+00  0.0000000000000D+00
408  4.0700000000000D+00  0.0000000000000D+00  0.0000000000000D+00
409  4.0800000000000D+00  0.0000000000000D+00  0.0000000000000D+00
410  4.0900000000000D+00  0.0000000000000D+00  0.0000000000000D+00
411  4.1000000000000D+00  0.0000000000000D+00  0.0000000000000D+00
412  4.1100000000000D+00  0.0000000000000D+00  0.0000000000000D+00
413  4.1200000000000D+00  0.0000000000000D+00  0.0000000000000D+00
414  4.1300000000000D+00  0.0000000000000D+00  0.0000000000000D+00
415  4.1400000000000D+00  0.0000000000000D+00  0.0000000000000D+00
416  4.1500000000000D+00  0.0000000000000D+00  0.0000000000000D+00
417  4.1600000000000D+00  0.0000000000000D+00  0.0000000000000D+00
418  4.1700000000000D+00  0.0000000000000D+00  0.0000000000000D+00
419  4.1800000000000D+00  0.0000000000000D+00  0.0000000000000D+00
420  4.1900000000000D+00  0.0000000000000D+00  0.0000000000000D+00
421  4.2000000000000D+00  0.0000000000000D+00  0.0000000000000D+00
422  4.2100000000000D+00  0.0000000000000D+00  0.0000000000000D+00
423  4.2200000000000D+00  0.0000000000000D+00  0.0000000000000D+00
424  4.2300000000000D+00  0.0000000000000D+00  0.0000000000000D+00
425  4.2400000000000D+00  0.0000000000000D+00  0.0000000000000D+00
426  4.2500000000000D+00  0.0000000000000D+00  0.0000000000000D+00
427  4.2600000000000D+00  0.0000000000000D+00  0.0000000000000D+00
428  4.2700000000000D+00  0.0000000000000D+00  0.0000000000000D+00
429  4.2800000000000D+00  0.0000000000000D+00  0.0000000000000D+00
430  4.2900000000000D+00  0.0000000000000D+00  0.0000000000000D+00
431  4.3000000000000D+00  0.0000000000000D+00  0.0000000000000D+00
432  4.3100000000000D+00  0.0000000000000D+00  0.0000000000000D+00
433  4.3200000000000D+00  0.0000000000000D+00  0.0000000000000D+00
434  4.3300000000000D+00  0.0000000000000D+00  0.0000000000000D+00
435  4.3400000000000D+00  0.0000000000000D+00  0.0000000000000D+00
436  4.3500000000000D+00  0.0000000000000D+00  0.0000000000000D+00
437  4.3600000000000D+00  0.0000000000000D+00  0.0000000000000D+00
438  4.3700000000000D+00  0.0000000000000D+00  0.0000000000000D+00
439  4.3800000000000D+00  0.0000000000000D+00  0.0000000000000D+00
440  4.3900000000000D+00  0.0000000000000D+00  0.0000000000000D+00
441  4.4000000000000D+00  0.0000000000000D+00  0.0000000000000D+00
442  4.4100000000000D+00  0.0000000000000D+00  0.0000000000000D+00
443  4.4200000000000D+00  0.0000000000000D+00  0.0000000000000D+00
444  4.4300000000000D+00  0.0000000000000D+00  0.0000000000000D+00