Bi    ONCVPSP  r_core=  1.40  1.51  1.40
83.0000     23.0000      161218    zatom,zion,pspd
8 -116133   2     4   600     0    pspcod,pspxc,lmax,lloc,mmax,r2well
5.99000000  6.00000000  0.00000000    rchrg fchrg qchrg
2     2     2     0     0    nproj
1                 extension_switch
0                         1.6253280747322D+01  2.1827148993290D+00
1  0.0000000000000D+00 -1.1556888779296D-09  3.0704927767022D-09
2  1.0000000000000D-02  8.5731814020972D-02 -2.4725448067098D-02
3  2.0000000000000D-02  1.7119747481829D-01 -4.9145438073478D-02
4  3.0000000000000D-02  2.5613245864045D-01 -7.2958010474885D-02
5  4.0000000000000D-02  3.4027548096233D-01 -9.5868151259171D-02
6  5.0000000000000D-02  4.2337006710393D-01 -1.1759113675726D-01
7  6.0000000000000D-02  5.0516606489138D-01 -1.3785572712762D-01
8  7.0000000000000D-02  5.8542108142060D-01 -1.5640716173617D-01
9  8.0000000000000D-02  6.6390182713964D-01 -1.7300991272386D-01
10  9.0000000000000D-02  7.4038535187699D-01 -1.8745015680575D-01
11  1.0000000000000D-01  8.1466015908959D-01 -1.9953792972163D-01
12  1.1000000000000D-01  8.8652718645980D-01 -2.0910893269438D-01
13  1.2000000000000D-01  9.5580064300770D-01 -2.1602596567373D-01
14  1.3000000000000D-01  1.0223086950726D+00 -2.2017996796842D-01
15  1.4000000000000D-01  1.0858939958218D+00 -2.2149065301126D-01
16  1.5000000000000D-01  1.1464140553306D+00 -2.1990673036569D-01
17  1.6000000000000D-01  1.2037414507081D+00 -2.1540571457253D-01
18  1.7000000000000D-01  1.2577638781792D+00 -2.0799332695191D-01
19  1.8000000000000D-01  1.3083840514418D+00 -1.9770250291725D-01
20  1.9000000000000D-01  1.3555194529518D+00 -1.8459202362646D-01
21  2.0000000000000D-01  1.3991019470204D+00 -1.6874479679017D-01
22  2.1000000000000D-01  1.4390772656972D+00 -1.5026581708511D-01
23  2.2000000000000D-01  1.4754043803225D+00 -1.2927984179063D-01
24  2.3000000000000D-01  1.5080547733387D+00 -1.0592882189502D-01
25  2.4000000000000D-01  1.5370116264173D+00 -8.0369132928824D-02
26  2.5000000000000D-01  1.5622689421664D+00 -5.2768653106334D-02
27  2.6000000000000D-01  1.5838306176046D+00 -2.3303738936877D-02
28  2.7000000000000D-01  1.6017094882135D+00  7.8438497443093D-03
29  2.8000000000000D-01  1.6159263616894D+00  4.0490022414559D-02
30  2.9000000000000D-01  1.6265090605034D+00  7.4451375150522D-02
31  3.0000000000000D-01  1.6334914920449D+00  1.0954810029334D-01
32  3.1000000000000D-01  1.6369127644657D+00  1.4560673783266D-01
33  3.2000000000000D-01  1.6368163653672D+00  1.8246272030394D-01
34  3.3000000000000D-01  1.6332494191974D+00  2.1996266626028D-01
35  3.4000000000000D-01  1.6262620376641D+00  2.5796638142089D-01
36  3.5000000000000D-01  1.6159067756386D+00  2.9634853135365D-01
37  3.6000000000000D-01  1.6022382029657D+00  3.3499995495778D-01
38  3.7000000000000D-01  1.5853126003190D+00  3.7382859399122D-01
39  3.8000000000000D-01  1.5651877848003D+00  4.1276002035196D-01
40  3.9000000000000D-01  1.5419230684004D+00  4.5173754967390D-01
41  4.0000000000000D-01  1.5155793497675D+00  4.9072193693132D-01
42  4.1000000000000D-01  1.4862193370053D+00  5.2969065705262D-01
43  4.2000000000000D-01  1.4539078964940D+00  5.6863678090485D-01
44  4.3000000000000D-01  1.4187125200352D+00  6.0756746431176D-01
45  4.4000000000000D-01  1.3807039000178D+00  6.4650207488564D-01
46  4.5000000000000D-01  1.3399565998264D+00  6.8546998827314D-01
47  4.6000000000000D-01  1.2965498044120D+00  7.2450809181728D-01
48  4.7000000000000D-01  1.2505681338629D+00  7.6365803951473D-01
49  4.8000000000000D-01  1.2021025009838D+00  8.0296330739038D-01
50  4.9000000000000D-01  1.1512509923584D+00  8.4246610292678D-01
51  5.0000000000000D-01  1.0981197511571D+00  8.8220418588406D-01
52  5.1000000000000D-01  1.0428238390981D+00  9.2220766065348D-01
53  5.2000000000000D-01  9.8548805448288D-01  9.6249580214010D-01
54  5.3000000000000D-01  9.2624768313943D-01  1.0030739780196D+00
55  5.4000000000000D-01  8.6524915941854D-01  1.0439307300266D+00
56  5.5000000000000D-01  8.0265061510678D-01  1.0850350756917D+00
57  5.6000000000000D-01  7.3862229524925D-01  1.1263340896426D+00
58  5.7000000000000D-01  6.7334682139379D-01  1.1677508202595D+00
59  5.8000000000000D-01  6.0701928468092D-01  1.2091825931145D+00
60  5.9000000000000D-01  5.3984715346048D-01  1.2504997473503D+00
61  6.0000000000000D-01  4.7204998272706D-01  1.2915448449349D+00
62  6.1000000000000D-01  4.0385891554799D-01  1.3321323857679D+00
63  6.2000000000000D-01  3.3551596982881D-01  1.3720490538700D+00
64  6.3000000000000D-01  2.6727310711753D-01  1.4110545116069D+00
65  6.4000000000000D-01  1.9939108368565D-01  1.4488827501039D+00
66  6.5000000000000D-01  1.3213808777441D-01  1.4852439948574D+00
67  6.6000000000000D-01  6.5788170577463D-02  1.5198271562440D+00
68  6.7000000000000D-01  6.1948223748795D-04  1.5523028052052D+00
69  6.8000000000000D-01 -6.3087672241024D-02  1.5823266450855D+00
70  6.9000000000000D-01 -1.2505293875727D-01  1.6095434415489D+00
71  7.0000000000000D-01 -1.8499815983660D-01  1.6335913638480D+00
72  7.1000000000000D-01 -2.4264973550065D-01  1.6541066825729D+00
73  7.2000000000000D-01 -2.9774107170668D-01  1.6707287616096D+00
74  7.3000000000000D-01 -3.5001508634376D-01  1.6831052754139D+00
75  7.4000000000000D-01 -3.9922674074684D-01  1.6908975770643D+00
76  7.5000000000000D-01 -4.4514556309575D-01  1.6937861379436D+00
77  7.6000000000000D-01 -4.8755812895409D-01  1.6914759764599D+00
78  7.7000000000000D-01 -5.2627046359775D-01  1.6837019910061D+00
79  7.8000000000000D-01 -5.6111033070273D-01  1.6702341114453D+00
80  7.9000000000000D-01 -5.9192937242701D-01  1.6508821838245D+00
81  8.0000000000000D-01 -6.1860506693348D-01  1.6255005048093D+00
82  8.1000000000000D-01 -6.4104247095951D-01  1.5939919254635D+00
83  8.2000000000000D-01 -6.5917571713078D-01  1.5563114484811D+00
84  8.3000000000000D-01 -6.7296923832345D-01  1.5124692487404D+00
85  8.4000000000000D-01 -6.8241869446985D-01  1.4625330540512D+00
86  8.5000000000000D-01 -6.8755158073785D-01  1.4066298310885D+00
87  8.6000000000000D-01 -6.8842749996142D-01  1.3449467306917D+00
88  8.7000000000000D-01 -6.8513808648408D-01  1.2777312567679D+00
89  8.8000000000000D-01 -6.7780657316883D-01  1.2052906339046D+00
90  8.9000000000000D-01 -6.6658699812002D-01  1.1279903602088D+00
91  9.0000000000000D-01 -6.5166305264833D-01  1.0462519438327D+00
92  9.1000000000000D-01 -6.3324657704599D-01  9.6054983376951D-01
93  9.2000000000000D-01 -6.1157571580135D-01  8.7140756774444D-01
94  9.3000000000000D-01 -5.8691274886826D-01  7.7939317214268D-01
95  9.4000000000000D-01 -5.5954162044531D-01  6.8511386072107D-01
96  9.5000000000000D-01 -5.2976519133479D-01  5.8921009016289D-01
97  9.6000000000000D-01 -4.9790224526716D-01  4.9234904116099D-01
98  9.7000000000000D-01 -4.6428428352205D-01  3.9521760348090D-01
99  9.8000000000000D-01 -4.2925214568391D-01  2.9851495219059D-01
100  9.9000000000000D-01 -3.9315249739044D-01  2.0294480982642D-01
101  1.0000000000000D+00 -3.5633422836955D-01  1.0920749545482D-01
102  1.0100000000000D+00 -3.1914480593191D-01  1.7991866417206D-02
103  1.0200000000000D+00 -2.8192663033536D-01 -7.0032738108051D-02
104  1.0300000000000D+00 -2.4501343896382D-01 -1.5422444101427D-01
105  1.0400000000000D+00 -2.0872680617182D-01 -2.3397654784013D-01
106  1.0500000000000D+00 -1.7337278480783D-01 -3.0872493492366D-01
107  1.0600000000000D+00 -1.3923873391899D-01 -3.7795499941961D-01
108  1.0700000000000D+00 -1.0659037512536D-01 -4.4120807006723D-01
109  1.0800000000000D+00 -7.5669117102368D-02 -4.9808718469988D-01
110  1.0900000000000D+00 -4.6689684392711D-02 -5.4826214805609D-01
111  1.1000000000000D+00 -1.9838082491730D-02 -5.9147379357548D-01
112  1.1100000000000D+00  4.7300729558862D-03 -6.2753738262779D-01
113  1.1200000000000D+00  2.6890840182134D-02 -6.5634508696195D-01
114  1.1300000000000D+00  4.6552831347322D-02 -6.7786751326275D-01
115  1.1400000000000D+00  6.3657677043024D-02 -6.9215424220127D-01
116  1.1500000000000D+00  7.8180069297978D-02 -6.9933336789432D-01
117  1.1600000000000D+00  9.0127382987289D-02 -6.9961003777119D-01
118  1.1700000000000D+00  9.9538882330253D-02 -6.9326400921994D-01
119  1.1800000000000D+00  1.0648452494916D-01 -6.8064625337106D-01
120  1.1900000000000D+00  1.1106338067287D-01 -6.6217464776127D-01
121  1.2000000000000D+00  1.1340168941250D-01 -6.3832881690740D-01
122  1.2100000000000D+00  1.1365058733193D-01 -6.0964419168321D-01
123  1.2200000000000D+00  1.1198353516744D-01 -5.7670536961363D-01
124  1.2300000000000D+00  1.0859348636826D-01 -5.4013886745230D-01
125  1.2400000000000D+00  1.0368983851912D-01 -5.0060537145035D-01
126  1.2500000000000D+00  9.7495213331585D-02 -4.5879159514038D-01
127  1.2600000000000D+00  9.0242112854544D-02 -4.1540186027743D-01
128  1.2700000000000D+00  8.2169505905741D-02 -3.7114953273561D-01
129  1.2800000000000D+00  7.3519396150720D-02 -3.2674843744491D-01
130  1.2900000000000D+00  6.4533330533960D-02 -2.8290412596460D-01
131  1.3000000000000D+00  5.5449150694980D-02 -2.4030579886031D-01
132  1.3100000000000D+00  4.6498296041162D-02 -1.9961975685642D-01
133  1.3200000000000D+00  3.7899721894012D-02 -1.6147338352496D-01
134  1.3300000000000D+00  2.9854111401879D-02 -1.2644004673219D-01
135  1.3400000000000D+00  2.2537888427223D-02 -9.5023568917747D-02
136  1.3500000000000D+00  1.6100660406193D-02 -6.7652162545502D-02
137  1.3600000000000D+00  1.0666776707285D-02 -4.4688471086477D-02
138  1.3700000000000D+00  6.3141661480331D-03 -2.6344977762885D-02
139  1.3800000000000D+00  3.0945605324723D-03 -1.2772523401057D-02
140  1.3900000000000D+00  1.1444967601655D-03 -4.5003496826682D-03
141  1.4000000000000D+00  2.9693541754508D-04 -8.9717351122297D-04
142  1.4100000000000D+00  3.5994452136638D-05  4.5318123960179D-05
143  1.4200000000000D+00  3.7463393365123D-08 -7.0550114359329D-06
144  1.4300000000000D+00  3.6741723397642D-06 -4.6351833843745D-05
145  1.4400000000000D+00  3.0121515470295D-07  4.5237302702118D-06
146  1.4500000000000D+00  5.1204591885848D-08  4.3772672789278D-06
147  1.4600000000000D+00 -5.3506595457831D-07  1.3437831542022D-06
148  1.4700000000000D+00 -9.9133706297763D-08  2.4896782050271D-07
149  1.4800000000000D+00  0.0000000000000D+00  0.0000000000000D+00
150  1.4900000000000D+00  0.0000000000000D+00  0.0000000000000D+00
151  1.5000000000000D+00  0.0000000000000D+00  0.0000000000000D+00
152  1.5100000000000D+00  0.0000000000000D+00  0.0000000000000D+00
153  1.5200000000000D+00  0.0000000000000D+00  0.0000000000000D+00
154  1.5300000000000D+00  0.0000000000000D+00  0.0000000000000D+00
155  1.5400000000000D+00  0.0000000000000D+00  0.0000000000000D+00
156  1.5500000000000D+00  0.0000000000000D+00  0.0000000000000D+00
157  1.5600000000000D+00  0.0000000000000D+00  0.0000000000000D+00
158  1.5700000000000D+00  0.0000000000000D+00  0.0000000000000D+00
159  1.5800000000000D+00  0.0000000000000D+00  0.0000000000000D+00
160  1.5900000000000D+00  0.0000000000000D+00  0.0000000000000D+00
161  1.6000000000000D+00  0.0000000000000D+00  0.0000000000000D+00
162  1.6100000000000D+00  0.0000000000000D+00  0.0000000000000D+00
163  1.6200000000000D+00  0.0000000000000D+00  0.0000000000000D+00
164  1.6300000000000D+00  0.0000000000000D+00  0.0000000000000D+00
165  1.6400000000000D+00  0.0000000000000D+00  0.0000000000000D+00
166  1.6500000000000D+00  0.0000000000000D+00  0.0000000000000D+00
167  1.6600000000000D+00  0.0000000000000D+00  0.0000000000000D+00
168  1.6700000000000D+00  0.0000000000000D+00  0.0000000000000D+00
169  1.6800000000000D+00  0.0000000000000D+00  0.0000000000000D+00
170  1.6900000000000D+00  0.0000000000000D+00  0.0000000000000D+00
171  1.7000000000000D+00  0.0000000000000D+00  0.0000000000000D+00
172  1.7100000000000D+00  0.0000000000000D+00  0.0000000000000D+00
173  1.7200000000000D+00  0.0000000000000D+00  0.0000000000000D+00
174  1.7300000000000D+00  0.0000000000000D+00  0.0000000000000D+00
175  1.7400000000000D+00  0.0000000000000D+00  0.0000000000000D+00
176  1.7500000000000D+00  0.0000000000000D+00  0.0000000000000D+00
177  1.7600000000000D+00  0.0000000000000D+00  0.0000000000000D+00
178  1.7700000000000D+00  0.0000000000000D+00  0.0000000000000D+00
179  1.7800000000000D+00  0.0000000000000D+00  0.0000000000000D+00
180  1.7900000000000D+00  0.0000000000000D+00  0.0000000000000D+00
181  1.8000000000000D+00  0.0000000000000D+00  0.0000000000000D+00
182  1.8100000000000D+00  0.0000000000000D+00  0.0000000000000D+00
183  1.8200000000000D+00  0.0000000000000D+00  0.0000000000000D+00
184  1.8300000000000D+00  0.0000000000000D+00  0.0000000000000D+00
185  1.8400000000000D+00  0.0000000000000D+00  0.0000000000000D+00
186  1.8500000000000D+00  0.0000000000000D+00  0.0000000000000D+00
187  1.8600000000000D+00  0.0000000000000D+00  0.0000000000000D+00
188  1.8700000000000D+00  0.0000000000000D+00  0.0000000000000D+00
189  1.8800000000000D+00  0.0000000000000D+00  0.0000000000000D+00
190  1.8900000000000D+00  0.0000000000000D+00  0.0000000000000D+00
191  1.9000000000000D+00  0.0000000000000D+00  0.0000000000000D+00
192  1.9100000000000D+00  0.0000000000000D+00  0.0000000000000D+00
193  1.9200000000000D+00  0.0000000000000D+00  0.0000000000000D+00
194  1.9300000000000D+00  0.0000000000000D+00  0.0000000000000D+00
195  1.9400000000000D+00  0.0000000000000D+00  0.0000000000000D+00
196  1.9500000000000D+00  0.0000000000000D+00  0.0000000000000D+00
197  1.9600000000000D+00  0.0000000000000D+00  0.0000000000000D+00
198  1.9700000000000D+00  0.0000000000000D+00  0.0000000000000D+00
199  1.9800000000000D+00  0.0000000000000D+00  0.0000000000000D+00
200  1.9900000000000D+00  0.0000000000000D+00  0.0000000000000D+00
201  2.0000000000000D+00  0.0000000000000D+00  0.0000000000000D+00
202  2.0100000000000D+00  0.0000000000000D+00  0.0000000000000D+00
203  2.0200000000000D+00  0.0000000000000D+00  0.0000000000000D+00
204  2.0300000000000D+00  0.0000000000000D+00  0.0000000000000D+00
205  2.0400000000000D+00  0.0000000000000D+00  0.0000000000000D+00
206  2.0500000000000D+00  0.0000000000000D+00  0.0000000000000D+00
207  2.0600000000000D+00  0.0000000000000D+00  0.0000000000000D+00
208  2.0700000000000D+00  0.0000000000000D+00  0.0000000000000D+00
209  2.0800000000000D+00  0.0000000000000D+00  0.0000000000000D+00
210  2.0900000000000D+00  0.0000000000000D+00  0.0000000000000D+00
211  2.1000000000000D+00  0.0000000000000D+00  0.0000000000000D+00
212  2.1100000000000D+00  0.0000000000000D+00  0.0000000000000D+00
213  2.1200000000000D+00  0.0000000000000D+00  0.0000000000000D+00
214  2.1300000000000D+00  0.0000000000000D+00  0.0000000000000D+00
215  2.1400000000000D+00  0.0000000000000D+00  0.0000000000000D+00
216  2.1500000000000D+00  0.0000000000000D+00  0.0000000000000D+00
217  2.1600000000000D+00  0.0000000000000D+00  0.0000000000000D+00
218  2.1700000000000D+00  0.0000000000000D+00  0.0000000000000D+00
219  2.1800000000000D+00  0.0000000000000D+00  0.0000000000000D+00
220  2.1900000000000D+00  0.0000000000000D+00  0.0000000000000D+00
221  2.2000000000000D+00  0.0000000000000D+00  0.0000000000000D+00
222  2.2100000000000D+00  0.0000000000000D+00  0.0000000000000D+00
223  2.2200000000000D+00  0.0000000000000D+00  0.0000000000000D+00
224  2.2300000000000D+00  0.0000000000000D+00  0.0000000000000D+00
225  2.2400000000000D+00  0.0000000000000D+00  0.0000000000000D+00
226  2.2500000000000D+00  0.0000000000000D+00  0.0000000000000D+00
227  2.2600000000000D+00  0.0000000000000D+00  0.0000000000000D+00
228  2.2700000000000D+00  0.0000000000000D+00  0.0000000000000D+00
229  2.2800000000000D+00  0.0000000000000D+00  0.0000000000000D+00
230  2.2900000000000D+00  0.0000000000000D+00  0.0000000000000D+00
231  2.3000000000000D+00  0.0000000000000D+00  0.0000000000000D+00
232  2.3100000000000D+00  0.0000000000000D+00  0.0000000000000D+00
233  2.3200000000000D+00  0.0000000000000D+00  0.0000000000000D+00
234  2.3300000000000D+00  0.0000000000000D+00  0.0000000000000D+00
235  2.3400000000000D+00  0.0000000000000D+00  0.0000000000000D+00
236  2.3500000000000D+00  0.0000000000000D+00  0.0000000000000D+00
237  2.3600000000000D+00  0.0000000000000D+00  0.0000000000000D+00
238  2.3700000000000D+00  0.0000000000000D+00  0.0000000000000D+00
239  2.3800000000000D+00  0.0000000000000D+00  0.0000000000000D+00
240  2.3900000000000D+00  0.0000000000000D+00  0.0000000000000D+00
241  2.4000000000000D+00  0.0000000000000D+00  0.0000000000000D+00
242  2.4100000000000D+00  0.0000000000000D+00  0.0000000000000D+00
243  2.4200000000000D+00  0.0000000000000D+00  0.0000000000000D+00
244  2.4300000000000D+00  0.0000000000000D+00  0.0000000000000D+00
245  2.4400000000000D+00  0.0000000000000D+00  0.0000000000000D+00
246  2.4500000000000D+00  0.0000000000000D+00  0.0000000000000D+00
247  2.4600000000000D+00  0.0000000000000D+00  0.0000000000000D+00
248  2.4700000000000D+00  0.0000000000000D+00  0.0000000000000D+00
249  2.4800000000000D+00  0.0000000000000D+00  0.0000000000000D+00
250  2.4900000000000D+00  0.0000000000000D+00  0.0000000000000D+00
251  2.5000000000000D+00  0.0000000000000D+00  0.0000000000000D+00
252  2.5100000000000D+00  0.0000000000000D+00  0.0000000000000D+00
253  2.5200000000000D+00  0.0000000000000D+00  0.0000000000000D+00
254  2.5300000000000D+00  0.0000000000000D+00  0.0000000000000D+00
255  2.5400000000000D+00  0.0000000000000D+00  0.0000000000000D+00
256  2.5500000000000D+00  0.0000000000000D+00  0.0000000000000D+00
257  2.5600000000000D+00  0.0000000000000D+00  0.0000000000000D+00
258  2.5700000000000D+00  0.0000000000000D+00  0.0000000000000D+00
259  2.5800000000000D+00  0.0000000000000D+00  0.0000000000000D+00
260  2.5900000000000D+00  0.0000000000000D+00  0.0000000000000D+00
261  2.6000000000000D+00  0.0000000000000D+00  0.0000000000000D+00
262  2.6100000000000D+00  0.0000000000000D+00  0.0000000000000D+00
263  2.6200000000000D+00  0.0000000000000D+00  0.0000000000000D+00
264  2.6300000000000D+00  0.0000000000000D+00  0.0000000000000D+00
265  2.6400000000000D+00  0.0000000000000D+00  0.0000000000000D+00
266  2.6500000000000D+00  0.0000000000000D+00  0.0000000000000D+00
267  2.6600000000000D+00  0.0000000000000D+00  0.0000000000000D+00
268  2.6700000000000D+00  0.0000000000000D+00  0.0000000000000D+00
269  2.6800000000000D+00  0.0000000000000D+00  0.0000000000000D+00
270  2.6900000000000D+00  0.0000000000000D+00  0.0000000000000D+00
271  2.7000000000000D+00  0.0000000000000D+00  0.0000000000000D+00
272  2.7100000000000D+00  0.0000000000000D+00  0.0000000000000D+00
273  2.7200000000000D+00  0.0000000000000D+00  0.0000000000000D+00
274  2.7300000000000D+00  0.0000000000000D+00  0.0000000000000D+00
275  2.7400000000000D+00  0.0000000000000D+00  0.0000000000000D+00
276  2.7500000000000D+00  0.0000000000000D+00  0.0000000000000D+00
277  2.7600000000000D+00  0.0000000000000D+00  0.0000000000000D+00
278  2.7700000000000D+00  0.0000000000000D+00  0.0000000000000D+00
279  2.7800000000000D+00  0.0000000000000D+00  0.0000000000000D+00
280  2.7900000000000D+00  0.0000000000000D+00  0.0000000000000D+00
281  2.8000000000000D+00  0.0000000000000D+00  0.0000000000000D+00
282  2.8100000000000D+00  0.0000000000000D+00  0.0000000000000D+00
283  2.8200000000000D+00  0.0000000000000D+00  0.0000000000000D+00
284  2.8300000000000D+00  0.0000000000000D+00  0.0000000000000D+00
285  2.8400000000000D+00  0.0000000000000D+00  0.0000000000000D+00
286  2.8500000000000D+00  0.0000000000000D+00  0.0000000000000D+00
287  2.8600000000000D+00  0.0000000000000D+00  0.0000000000000D+00
288  2.8700000000000D+00  0.0000000000000D+00  0.0000000000000D+00
289  2.8800000000000D+00  0.0000000000000D+00  0.0000000000000D+00
290  2.8900000000000D+00  0.0000000000000D+00  0.0000000000000D+00
291  2.9000000000000D+00  0.0000000000000D+00  0.0000000000000D+00
292  2.9100000000000D+00  0.0000000000000D+00  0.0000000000000D+00
293  2.9200000000000D+00  0.0000000000000D+00  0.0000000000000D+00
294  2.9300000000000D+00  0.0000000000000D+00  0.0000000000000D+00
295  2.9400000000000D+00  0.0000000000000D+00  0.0000000000000D+00
296  2.9500000000000D+00  0.0000000000000D+00  0.0000000000000D+00
297  2.9600000000000D+00  0.0000000000000D+00  0.0000000000000D+00
298  2.9700000000000D+00  0.0000000000000D+00  0.0000000000000D+00
299  2.9800000000000D+00  0.0000000000000D+00  0.0000000000000D+00
300  2.9900000000000D+00  0.0000000000000D+00  0.0000000000000D+00
301  3.0000000000000D+00  0.0000000000000D+00  0.0000000000000D+00
302  3.0100000000000D+00  0.0000000000000D+00  0.0000000000000D+00
303  3.0200000000000D+00  0.0000000000000D+00  0.0000000000000D+00
304  3.0300000000000D+00  0.0000000000000D+00  0.0000000000000D+00
305  3.0400000000000D+00  0.0000000000000D+00  0.0000000000000D+00
306  3.0500000000000D+00  0.0000000000000D+00  0.0000000000000D+00
307  3.0600000000000D+00  0.0000000000000D+00  0.0000000000000D+00
308  3.0700000000000D+00  0.0000000000000D+00  0.0000000000000D+00
309  3.0800000000000D+00  0.0000000000000D+00  0.0000000000000D+00
310  3.0900000000000D+00  0.0000000000000D+00  0.0000000000000D+00
311  3.1000000000000D+00  0.0000000000000D+00  0.0000000000000D+00
312  3.1100000000000D+00  0.0000000000000D+00  0.0000000000000D+00
313  3.1200000000000D+00  0.0000000000000D+00  0.0000000000000D+00
314  3.1300000000000D+00  0.0000000000000D+00  0.0000000000000D+00
315  3.1400000000000D+00  0.0000000000000D+00  0.0000000000000D+00
316  3.1500000000000D+00  0.0000000000000D+00  0.0000000000000D+00
317  3.1600000000000D+00  0.0000000000000D+00  0.0000000000000D+00
318  3.1700000000000D+00  0.0000000000000D+00  0.0000000000000D+00
319  3.1800000000000D+00  0.0000000000000D+00  0.0000000000000D+00
320  3.1900000000000D+00  0.0000000000000D+00  0.0000000000000D+00
321  3.2000000000000D+00  0.0000000000000D+00  0.0000000000000D+00
322  3.2100000000000D+00  0.0000000000000D+00  0.0000000000000D+00
323  3.2200000000000D+00  0.0000000000000D+00  0.0000000000000D+00
324  3.2300000000000D+00  0.0000000000000D+00  0.0000000000000D+00
325  3.2400000000000D+00  0.0000000000000D+00  0.0000000000000D+00
326  3.2500000000000D+00  0.0000000000000D+00  0.0000000000000D+00
327  3.2600000000000D+00  0.0000000000000D+00  0.0000000000000D+00
328  3.2700000000000D+00  0.0000000000000D+00  0.0000000000000D+00
329  3.2800000000000D+00  0.0000000000000D+00  0.0000000000000D+00
330  3.2900000000000D+00  0.0000000000000D+00  0.0000000000000D+00
331  3.3000000000000D+00  0.0000000000000D+00  0.0000000000000D+00
332  3.3100000000000D+00  0.0000000000000D+00  0.0000000000000D+00
333  3.3200000000000D+00  0.0000000000000D+00  0.0000000000000D+00
334  3.3300000000000D+00  0.0000000000000D+00  0.0000000000000D+00
335  3.3400000000000D+00  0.0000000000000D+00  0.0000000000000D+00
336  3.3500000000000D+00  0.0000000000000D+00  0.0000000000000D+00
337  3.3600000000000D+00  0.0000000000000D+00  0.0000000000000D+00
338  3.3700000000000D+00  0.0000000000000D+00  0.0000000000000D+00
339  3.3800000000000D+00  0.0000000000000D+00  0.0000000000000D+00
340  3.3900000000000D+00  0.0000000000000D+00  0.0000000000000D+00
341  3.4000000000000D+00  0.0000000000000D+00  0.0000000000000D+00
342  3.4100000000000D+00  0.0000000000000D+00  0.0000000000000D+00
343  3.4200000000000D+00  0.0000000000000D+00  0.0000000000000D+00
344  3.4300000000000D+00  0.0000000000000D+00  0.0000000000000D+00
345  3.4400000000000D+00  0.0000000000000D+00  0.0000000000000D+00
346  3.4500000000000D+00  0.0000000000000D+00  0.0000000000000D+00
347  3.4600000000000D+00  0.0000000000000D+00  0.0000000000000D+00
348  3.4700000000000D+00  0.0000000000000D+00  0.0000000000000D+00
349  3.4800000000000D+00  0.0000000000000D+00  0.0000000000000D+00
350  3.4900000000000D+00  0.0000000000000D+00  0.0000000000000D+00
351  3.5000000000000D+00  0.0000000000000D+00  0.0000000000000D+00
352  3.5100000000000D+00  0.0000000000000D+00  0.0000000000000D+00
353  3.5200000000000D+00  0.0000000000000D+00  0.0000000000000D+00
354  3.5300000000000D+00  0.0000000000000D+00  0.0000000000000D+00
355  3.5400000000000D+00  0.0000000000000D+00  0.0000000000000D+00
356  3.5500000000000D+00  0.0000000000000D+00  0.0000000000000D+00
357  3.5600000000000D+00  0.0000000000000D+00  0.0000000000000D+00
358  3.5700000000000D+00  0.0000000000000D+00  0.0000000000000D+00
359  3.5800000000000D+00  0.0000000000000D+00  0.0000000000000D+00
360  3.5900000000000D+00  0.0000000000000D+00  0.0000000000000D+00
361  3.6000000000000D+00  0.0000000000000D+00  0.0000000000000D+00
362  3.6100000000000D+00  0.0000000000000D+00  0.0000000000000D+00
363  3.6200000000000D+00  0.0000000000000D+00  0.0000000000000D+00
364  3.6300000000000D+00  0.0000000000000D+00  0.0000000000000D+00
365  3.6400000000000D+00  0.0000000000000D+00  0.0000000000000D+00
366  3.6500000000000D+00  0.0000000000000D+00  0.0000000000000D+00
367  3.6600000000000D+00  0.0000000000000D+00  0.0000000000000D+00
368  3.6700000000000D+00  0.0000000000000D+00  0.0000000000000D+00
369  3.6800000000000D+00  0.0000000000000D+00  0.0000000000000D+00
370  3.6900000000000D+00  0.0000000000000D+00  0.0000000000000D+00
371  3.7000000000000D+00  0.0000000000000D+00  0.0000000000000D+00
372  3.7100000000000D+00  0.0000000000000D+00  0.0000000000000D+00
373  3.7200000000000D+00  0.0000000000000D+00  0.0000000000000D+00
374  3.7300000000000D+00  0.0000000000000D+00  0.0000000000000D+00
375  3.7400000000000D+00  0.0000000000000D+00  0.0000000000000D+00
376  3.7500000000000D+00  0.0000000000000D+00  0.0000000000000D+00
377  3.7600000000000D+00  0.0000000000000D+00  0.0000000000000D+00
378  3.7700000000000D+00  0.0000000000000D+00  0.0000000000000D+00
379  3.7800000000000D+00  0.0000000000000D+00  0.0000000000000D+00
380  3.7900000000000D+00  0.0000000000000D+00  0.0000000000000D+00
381  3.8000000000000D+00  0.0000000000000D+00  0.0000000000000D+00
382  3.8100000000000D+00  0.0000000000000D+00  0.0000000000000D+00
383  3.8200000000000D+00  0.0000000000000D+00  0.0000000000000D+00
384  3.8300000000000D+00  0.0000000000000D+00  0.0000000000000D+00
385  3.8400000000000D+00  0.0000000000000D+00  0.0000000000000D+00
386  3.8500000000000D+00  0.0000000000000D+00  0.0000000000000D+00
387  3.8600000000000D+00  0.0000000000000D+00  0.0000000000000D+00
388  3.8700000000000D+00  0.0000000000000D+00  0.0000000000000D+00
389  3.8800000000000D+00  0.0000000000000D+00  0.0000000000000D+00
390  3.8900000000000D+00  0.0000000000000D+00  0.0000000000000D+00
391  3.9000000000000D+00  0.0000000000000D+00  0.0000000000000D+00
392  3.9100000000000D+00  0.0000000000000D+00  0.0000000000000D+00
393  3.9200000000000D+00  0.0000000000000D+00  0.0000000000000D+00
394  3.9300000000000D+00  0.0000000000000D+00  0.0000000000000D+00
395  3.9400000000000D+00  0.0000000000000D+00  0.0000000000000D+00
396  3.9500000000000D+00  0.0000000000000D+00  0.0000000000000D+00
397  3.9600000000000D+00  0.0000000000000D+00  0.0000000000000D+00
398  3.9700000000000D+00  0.0000000000000D+00  0.0000000000000D+00
399  3.9800000000000D+00  0.0000000000000D+00  0.0000000000000D+00
400  3.9900000000000D+00  0.0000000000000D+00  0.0000000000000D+00
401  4.0000000000000D+00  0.0000000000000D+00  0.0000000000000D+00
402  4.0100000000000D+00  0.0000000000000D+00  0.0000000000000D+00
403  4.0200000000000D+00  0.0000000000000D+00  0.0000000000000D+00
404  4.0300000000000D+00  0.0000000000000D+00  0.0000000000000D+00
405  4.0400000000000D+00  0.0000000000000D+00  0.0000000000000D+00
406  4.0500000000000D+00  0.0000000000000D+00  0.0000000000000D+00
407  4.0600000000000D+00  0.0000000000000D+00  0.0000000000000D+00
408  4.0700000000000D+00  0.0000000000000D+00  0.0000000000000D+00
409  4.0800000000000D+00  0.0000000000000D+00  0.0000000000000D+00
410  4.0900000000000D+00  0.0000000000000D+00  0.0000000000000D+00
411  4.1000000000000D+00  0.0000000000000D+00  0.0000000000000D+00
412  4.1100000000000D+00  0.0000000000000D+00  0.0000000000000D+00
413  4.1200000000000D+00  0.0000000000000D+00  0.0000000000000D+00
414  4.1300000000000D+00  0.0000000000000D+00  0.0000000000000D+00
415  4.1400000000000D+00  0.0000000000000D+00  0.0000000000000D+00
416  4.1500000000000D+00  0.0000000000000D+00  0.0000000000000D+00
417  4.1600000000000D+00  0.0000000000000D+00  0.0000000000000D+00
418  4.1700000000000D+00  0.0000000000000D+00  0.0000000000000D+00
419  4.1800000000000D+00  0.0000000000000D+00  0.0000000000000D+00
420  4.1900000000000D+00  0.0000000000000D+00  0.0000000000000D+00
421  4.2000000000000D+00  0.0000000000000D+00  0.0000000000000D+00
422  4.2100000000000D+00  0.0000000000000D+00  0.0000000000000D+00
423  4.2200000000000D+00  0.0000000000000D+00  0.0000000000000D+00
424  4.2300000000000D+00  0.0000000000000D+00  0.0000000000000D+00
425  4.2400000000000D+00  0.0000000000000D+00  0.0000000000000D+00
426  4.2500000000000D+00  0.0000000000000D+00  0.0000000000000D+00
427  4.2600000000000D+00  0.0000000000000D+00  0.0000000000000D+00
428  4.2700000000000D+00  0.0000000000000D+00  0.0000000000000D+00
429  4.2800000000000D+00  0.0000000000000D+00  0.0000000000000D+00
430  4.2900000000000D+00  0.0000000000000D+00  0.0000000000000D+00
431  4.3000000000000D+00  0.0000000000000D+00  0.0000000000000D+00
432  4.3100000000000D+00  0.0000000000000D+00  0.0000000000000D+00
433  4.3200000000000D+00  0.0000000000000D+00  0.0000000000000D+00
434  4.3300000000000D+00  0.0000000000000D+00  0.0000000000000D+00
435  4.3400000000000D+00  0.0000000000000D+00  0.0000000000000D+00
436  4.3500000000000D+00  0.0000000000000D+00  0.0000000000000D+00
437  4.3600000000000D+00  0.0000000000000D+00  0.0000000000000D+00
438  4.3700000000000D+00  0.0000000000000D+00  0.0000000000000D+00
439  4.3800000000000D+00  0.0000000000000D+00  0.0000000000000D+00
440  4.3900000000000D+00  0.0000000000000D+00  0.0000000000000D+00
441  4.4000000000000D+00  0.0000000000000D+00  0.0000000000000D+00
442  4.4100000000000D+00  0.0000000000000D+00  0.0000000000000D+00
443  4.4200000000000D+00  0.0000000000000D+00  0.0000000000000D+00
444  4.4300000000000D+00  0.0000000000000D+00  0.0000000000000D+00