W     ONCVPSP  r_core=  2.63  1.90  1.97
74.0000     12.0000      140903    zatom,zion,pspd
8    11     2     4   601     0    pspcod,pspxc,lmax,lloc,mmax,r2well
6.00000000  0.60000000  0.00000000    rchrg fchrg qchrg
2     2     2     0     0    nproj
0                 extension_switch
0                         4.7677870575773D+00  5.2395474359764D-01
1  0.0000000000000D+00 -0.0000000000000D+00 -0.0000000000000D+00
2  1.0000000000000D-02 -1.8416629058546D-02 -2.1255937706618D-02
3  2.0000000000000D-02 -3.6819155919159D-02 -4.2481270097044D-02
4  3.0000000000000D-02 -5.5193502178286D-02 -6.3645434005959D-02
5  4.0000000000000D-02 -7.3525637010976D-02 -8.4717950587339D-02
6  5.0000000000000D-02 -9.1801600934515D-02 -1.0566846751728D-01
7  6.0000000000000D-02 -1.1000752954043D-01 -1.2646680124667D-01
8  7.0000000000000D-02 -1.2812967718310D-01 -1.4708297931727D-01
9  8.0000000000000D-02 -1.4615444061174D-01 -1.6748728275162D-01
10  9.0000000000000D-02 -1.6406838253200D-01 -1.8765028852492D-01
11  1.0000000000000D-01 -1.8185825508028D-01 -2.0754291212101D-01
12  1.1000000000000D-01 -1.9951102319350D-01 -2.2713645017229D-01
13  1.2000000000000D-01 -2.1701388785451D-01 -2.4640262317736D-01
14  1.3000000000000D-01 -2.3435430919225D-01 -2.6531361828749D-01
15  1.4000000000000D-01 -2.5152002940432D-01 -2.8384213212950D-01
16  1.5000000000000D-01 -2.6849909549243D-01 -3.0196141367391D-01
17  1.6000000000000D-01 -2.8527988175132D-01 -3.1964530706238D-01
18  1.7000000000000D-01 -3.0185111202024D-01 -3.3686829443482D-01
19  1.8000000000000D-01 -3.1820188161083D-01 -3.5360553861590D-01
20  1.9000000000000D-01 -3.3432167891363D-01 -3.6983292568476D-01
21  2.0000000000000D-01 -3.5020040662517D-01 -3.8552710733661D-01
22  2.1000000000000D-01 -3.6582840254047D-01 -4.0066554294710D-01
23  2.2000000000000D-01 -3.8119645990057D-01 -4.1522654133637D-01
24  2.3000000000000D-01 -3.9629584716750D-01 -4.2918930199578D-01
25  2.4000000000000D-01 -4.1111832728515D-01 -4.4253395590857D-01
26  2.5000000000000D-01 -4.2565617627274D-01 -4.5524160567301D-01
27  2.6000000000000D-01 -4.3990220109528D-01 -4.6729436482047D-01
28  2.7000000000000D-01 -4.5384975682942D-01 -4.7867539638222D-01
29  2.8000000000000D-01 -4.6749276304127D-01 -4.8936895054889D-01
30  2.9000000000000D-01 -4.8082571917343D-01 -4.9936040099847D-01
31  3.0000000000000D-01 -4.9384371907301D-01 -5.0863628018566D-01
32  3.1000000000000D-01 -5.0654246442031D-01 -5.1718431307943D-01
33  3.2000000000000D-01 -5.1891827720295D-01 -5.2499344969150D-01
34  3.3000000000000D-01 -5.3096811096640D-01 -5.3205389581605D-01
35  3.4000000000000D-01 -5.4268956054329D-01 -5.3835714123729D-01
36  3.5000000000000D-01 -5.5408087124926D-01 -5.4389598785412D-01
37  3.6000000000000D-01 -5.6514094554857D-01 -5.4866457280835D-01
38  3.7000000000000D-01 -5.7586934966424D-01 -5.5265839286862D-01
39  3.8000000000000D-01 -5.8626631740124D-01 -5.5587432309532D-01
40  3.9000000000000D-01 -5.9633275308636D-01 -5.5831063468230D-01
41  4.0000000000000D-01 -6.0607023284988D-01 -5.5996701010651D-01
42  4.1000000000000D-01 -6.1548100403336D-01 -5.6084455493557D-01
43  4.2000000000000D-01 -6.2456798281459D-01 -5.6094580648046D-01
44  4.3000000000000D-01 -6.3333475013759D-01 -5.6027473967776D-01
45  4.4000000000000D-01 -6.4178554573013D-01 -5.5883676954292D-01
46  4.5000000000000D-01 -6.4992526020785D-01 -5.5663875020279D-01
47  4.6000000000000D-01 -6.5775942524347D-01 -5.5368897029080D-01
48  4.7000000000000D-01 -6.6529420178326D-01 -5.4999714504174D-01
49  4.8000000000000D-01 -6.7253636609451D-01 -5.4557440449001D-01
50  4.9000000000000D-01 -6.7949329388704D-01 -5.4043327743189D-01
51  5.0000000000000D-01 -6.8617294252506D-01 -5.3458767193969D-01
52  5.1000000000000D-01 -6.9258383126139D-01 -5.2805285218337D-01
53  5.2000000000000D-01 -6.9873501798572D-01 -5.2084541027969D-01
54  5.3000000000000D-01 -7.0463607688514D-01 -5.1298323531840D-01
55  5.4000000000000D-01 -7.1029707113322D-01 -5.0448547750922D-01
56  5.5000000000000D-01 -7.1572852399599D-01 -4.9537250732069D-01
57  5.6000000000000D-01 -7.2094139198622D-01 -4.8566587519168D-01
58  5.7000000000000D-01 -7.2594702667111D-01 -4.7538825727989D-01
59  5.8000000000000D-01 -7.3075714891699D-01 -4.6456341287663D-01
60  5.9000000000000D-01 -7.3538380362668D-01 -4.5321611766438D-01
61  6.0000000000000D-01 -7.3983933063663D-01 -4.4137211458024D-01
62  6.1000000000000D-01 -7.4413632062743D-01 -4.2905804459511D-01
63  6.2000000000000D-01 -7.4828757174960D-01 -4.1630137625662D-01
64  6.3000000000000D-01 -7.5230605928312D-01 -4.0313035230797D-01
65  6.4000000000000D-01 -7.5620487321823D-01 -3.8957388962435D-01
66  6.5000000000000D-01 -7.5999718577152D-01 -3.7566152020601D-01
67  6.6000000000000D-01 -7.6369620908426D-01 -3.6142331792940D-01
68  6.7000000000000D-01 -7.6731513317614D-01 -3.4688979364322D-01
69  6.8000000000000D-01 -7.7086708467294D-01 -3.3209182033155D-01
70  6.9000000000000D-01 -7.7436508138321D-01 -3.1706055139667D-01
71  7.0000000000000D-01 -7.7782198509520D-01 -3.0182733546822D-01
72  7.1000000000000D-01 -7.8125043939586D-01 -2.8642360551576D-01
73  7.2000000000000D-01 -7.8466282309302D-01 -2.7088079183326D-01
74  7.3000000000000D-01 -7.8807120594635D-01 -2.5523023832760D-01
75  7.4000000000000D-01 -7.9148729484027D-01 -2.3950310209141D-01
76  7.5000000000000D-01 -7.9492238341371D-01 -2.2373025759478D-01
77  7.6000000000000D-01 -7.9838730315734D-01 -2.0794220243072D-01
78  7.7000000000000D-01 -8.0189237722696D-01 -1.9216896694597D-01
79  7.8000000000000D-01 -8.0544735608714D-01 -1.7643999066221D-01
80  7.9000000000000D-01 -8.0906138824649D-01 -1.6078405942432D-01
81  8.0000000000000D-01 -8.1274296783879D-01 -1.4522920110825D-01
82  8.1000000000000D-01 -8.1649988977901D-01 -1.2980259357280D-01
83  8.2000000000000D-01 -8.2033920651600D-01 -1.1453047447873D-01
84  8.3000000000000D-01 -8.2426718657348D-01 -9.9438053334285D-02
85  8.4000000000000D-01 -8.2828927506847D-01 -8.4549426125035D-02
86  8.5000000000000D-01 -8.3241005639413D-01 -6.9887492883127D-02
87  8.6000000000000D-01 -8.3663321925065D-01 -5.5473878548374D-02
88  8.7000000000000D-01 -8.4096152420446D-01 -4.1328857469599D-02
89  8.8000000000000D-01 -8.4539677395199D-01 -2.7471281889754D-02
90  8.9000000000000D-01 -8.4993978645870D-01 -1.3918514751932D-02
91  9.0000000000000D-01 -8.5459037113856D-01 -6.8636715608114D-04
92  9.1000000000000D-01 -8.5934730823064D-01  1.2210959215072D-02
93  9.2000000000000D-01 -8.6420833152013D-01  2.4760924395304D-02
94  9.3000000000000D-01 -8.6917012398334D-01  3.6952676740250D-02
95  9.4000000000000D-01 -8.7422828486727D-01  4.8777141182266D-02
96  9.5000000000000D-01 -8.7937733385728D-01  6.0227033027290D-02
97  9.6000000000000D-01 -8.8461071497710D-01  7.1296872304347D-02
98  9.7000000000000D-01 -8.8992079309769D-01  8.1983015840313D-02
99  9.8000000000000D-01 -8.9529885913538D-01  9.2283672784056D-02
100  9.9000000000000D-01 -9.0073513928127D-01  1.0219891326466D-01
101  1.0000000000000D+00 -9.0621880825043D-01  1.1173067012141D-01
102  1.0100000000000D+00 -9.1173802360052D-01  1.2088268700308D-01
103  1.0200000000000D+00 -9.1727989184406D-01  1.2966064947493D-01
104  1.0300000000000D+00 -9.2283054495871D-01  1.3807204019949D-01
105  1.0400000000000D+00 -9.2837515987097D-01  1.4612613560397D-01
106  1.0500000000000D+00 -9.3389798920365D-01  1.5383397926731D-01
107  1.0600000000000D+00 -9.3938240269123D-01  1.6120831834784D-01
108  1.0700000000000D+00 -9.4481091054628D-01  1.6826361456248D-01
109  1.0800000000000D+00 -9.5016521832352D-01  1.7501599244606D-01
110  1.0900000000000D+00 -9.5542628934202D-01  1.8148310858987D-01
111  1.1000000000000D+00 -9.6057438799059D-01  1.8768411600820D-01
112  1.1100000000000D+00 -9.6558911278441D-01  1.9363957929775D-01
113  1.1200000000000D+00 -9.7044949876779D-01  1.9937147396097D-01
114  1.1300000000000D+00 -9.7513406220537D-01  2.0490299307379D-01
115  1.1400000000000D+00 -9.7962086218150D-01  2.1025849358909D-01
116  1.1500000000000D+00 -9.8388750125019D-01  2.1546344952289D-01
117  1.1600000000000D+00 -9.8791137034079D-01  2.2054426660738D-01
118  1.1700000000000D+00 -9.9166958859944D-01  2.2552820353967D-01
119  1.1800000000000D+00 -9.9513905842481D-01  2.3044331385250D-01
120  1.1900000000000D+00 -9.9829657212875D-01  2.3531832604440D-01
121  1.2000000000000D+00 -1.0011190479197D+00  2.4018234865608D-01
122  1.2100000000000D+00 -1.0035834063539D+00  2.4506493934168D-01
123  1.2200000000000D+00 -1.0056665096119D+00  2.4999617380161D-01
124  1.2300000000000D+00 -1.0073458228475D+00  2.5500586302793D-01
125  1.2400000000000D+00 -1.0085989838716D+00  2.6012397993800D-01
126  1.2500000000000D+00 -1.0094037733609D+00  2.6538070903648D-01
127  1.2600000000000D+00 -1.0097388478386D+00  2.7080551610211D-01
128  1.2700000000000D+00 -1.0095833507782D+00  2.7642757319380D-01
129  1.2800000000000D+00 -1.0089166898965D+00  2.8227605472483D-01
130  1.2900000000000D+00 -1.0077195321275D+00  2.8837881616016D-01
131  1.3000000000000D+00 -1.0059732357355D+00  2.9476308891081D-01
132  1.3100000000000D+00 -1.0036594998650D+00  3.0145596883121D-01
133  1.3200000000000D+00 -1.0007618550717D+00  3.0848235983500D-01
134  1.3300000000000D+00 -9.9726440971523D-01  3.1586665122050D-01
135  1.3400000000000D+00 -9.9315206459157D-01  3.2363244225108D-01
136  1.3500000000000D+00 -9.8841176134260D-01  3.3180074909259D-01
137  1.3600000000000D+00 -9.8303087069403D-01  3.4039226570302D-01
138  1.3700000000000D+00 -9.7699842538105D-01  3.4942561344208D-01
139  1.3800000000000D+00 -9.7030517715466D-01  3.5891721215972D-01
140  1.3900000000000D+00 -9.6294222558801D-01  3.6888327899333D-01
141  1.4000000000000D+00 -9.5490354683701D-01  3.7933612002053D-01
142  1.4100000000000D+00 -9.4618366784599D-01  3.9028751204505D-01
143  1.4200000000000D+00 -9.3677884956701D-01  4.0174697461045D-01
144  1.4300000000000D+00 -9.2668760712863D-01  4.1372095401389D-01
145  1.4400000000000D+00 -9.1590867732882D-01  4.2621587266321D-01
146  1.4500000000000D+00 -9.0444426074877D-01  4.3923323889999D-01
147  1.4600000000000D+00 -8.9229678403488D-01  4.5277451158235D-01
148  1.4700000000000D+00 -8.7947114226028D-01  4.6683771195806D-01
149  1.4800000000000D+00 -8.6597388793863D-01  4.8141861925287D-01
150  1.4900000000000D+00 -8.5181267203546D-01  4.9651164908847D-01
151  1.5000000000000D+00 -8.3699810211702D-01  5.1210694672235D-01
152  1.5100000000000D+00 -8.2154077228400D-01  5.2819500645114D-01
153  1.5200000000000D+00 -8.0545491699183D-01  5.4476094710528D-01
154  1.5300000000000D+00 -7.8875477910818D-01  5.6179019498443D-01
155  1.5400000000000D+00 -7.7145747240338D-01  5.7926396824072D-01
156  1.5500000000000D+00 -7.5358098491498D-01  5.9716241069016D-01
157  1.5600000000000D+00 -7.3514526331299D-01  6.1546287716492D-01
158  1.5700000000000D+00 -7.1617181197162D-01  6.3414051594366D-01
159  1.5800000000000D+00 -6.9668335890971D-01  6.5316885922803D-01
160  1.5900000000000D+00 -6.7670462392678D-01  6.7251845638209D-01
161  1.6000000000000D+00 -6.5626103904997D-01  6.9215909150668D-01
162  1.6100000000000D+00 -6.3538018810741D-01  7.1205718731458D-01
163  1.6200000000000D+00 -6.1409008996318D-01  7.3217890889704D-01
164  1.6300000000000D+00 -5.9242080723185D-01  7.5248707328608D-01
165  1.6400000000000D+00 -5.7040278048881D-01  7.7294442185236D-01
166  1.6500000000000D+00 -5.4806814418387D-01  7.9351071679502D-01
167  1.6600000000000D+00 -5.2544954559547D-01  8.1414553508872D-01
168  1.6700000000000D+00 -5.0258077613645D-01  8.3480614919049D-01
169  1.6800000000000D+00 -4.7949640907180D-01  8.5544930760662D-01
170  1.6900000000000D+00 -4.5623148842726D-01  8.7603033555997D-01
171  1.7000000000000D+00 -4.3282218200350D-01  8.9650358619622D-01
172  1.7100000000000D+00 -4.0930437140799D-01  9.1682295158938D-01
173  1.7200000000000D+00 -3.8571547790235D-01  9.3694083732900D-01
174  1.7300000000000D+00 -3.6209180772902D-01  9.5681022001100D-01
175  1.7400000000000D+00 -3.3847158907782D-01  9.7638209609632D-01
176  1.7500000000000D+00 -3.1489123440446D-01  9.9560893943288D-01
177  1.7600000000000D+00 -2.9138927198913D-01  1.0144409457397D+00
178  1.7700000000000D+00 -2.6800193703453D-01  1.0328304243819D+00
179  1.7800000000000D+00 -2.4476749183302D-01  1.0507274374392D+00
180  1.7900000000000D+00 -2.2172178429868D-01  1.0680843666800D+00
181  1.8000000000000D+00 -1.9890217844877D-01  1.0848518575076D+00
182  1.8100000000000D+00 -1.7634400657312D-01  1.1009824955094D+00
183  1.8200000000000D+00 -1.5408304668403D-01  1.1164282481279D+00
184  1.8300000000000D+00 -1.3215406411714D-01  1.1311419459282D+00
185  1.8400000000000D+00 -1.1059053321049D-01  1.1450775626793D+00
186  1.8500000000000D+00 -8.9426654192616D-02  1.1581881694314D+00
187  1.8600000000000D+00 -6.8692908510676D-02  1.1704304524070D+00
188  1.8700000000000D+00 -4.8422919035750D-02  1.1817572436388D+00
189  1.8800000000000D+00 -2.8644037314780D-02  1.1921301601120D+00
190  1.8900000000000D+00 -9.3881744252963D-03  1.2015036563097D+00
191  1.9000000000000D+00  9.3193624925121D-03  1.2098439324357D+00
192  1.9100000000000D+00  2.7450186446174D-02  1.2171118757939D+00
193  1.9200000000000D+00  4.4979946134607D-02  1.2232757127552D+00
194  1.9300000000000D+00  6.1884999621063D-02  1.2283050908002D+00
195  1.9400000000000D+00  7.8141629236420D-02  1.2321696574444D+00
196  1.9500000000000D+00  9.3731747487250D-02  1.2348491733435D+00
197  1.9600000000000D+00  1.0863212375458D-01  1.2363144685480D+00
198  1.9700000000000D+00  1.2282945049075D-01  1.2365539846462D+00
199  1.9800000000000D+00  1.3630492429652D-01  1.2355466592393D+00
200  1.9900000000000D+00  1.4904614793633D-01  1.2332827812667D+00
201  2.0000000000000D+00  1.6104097941879D-01  1.2297532440722D+00
202  2.0100000000000D+00  1.7227722503879D-01  1.2249489800466D+00
203  2.0200000000000D+00  1.8274967065668D-01  1.2188731941168D+00
204  2.0300000000000D+00  1.9244740575035D-01  1.2115193786703D+00
205  2.0400000000000D+00  2.0136960795308D-01  1.2028985685048D+00
206  2.0500000000000D+00  2.0951162416377D-01  1.1930153665404D+00
207  2.0600000000000D+00  2.1687244728782D-01  1.1818807499874D+00
208  2.0700000000000D+00  2.2345547587406D-01  1.1695133767053D+00
209  2.0800000000000D+00  2.2925943018059D-01  1.1559241090899D+00
210  2.0900000000000D+00  2.3429364398596D-01  1.1411419111208D+00
211  2.1000000000000D+00  2.3856250463215D-01  1.1251875795861D+00
212  2.1100000000000D+00  2.4207510209520D-01  1.1080899192094D+00
213  2.1200000000000D+00  2.4484386196920D-01  1.0898834651502D+00
214  2.1300000000000D+00  2.4687734668510D-01  1.0705965415324D+00
215  2.1400000000000D+00  2.4819358978409D-01  1.0502731760394D+00
216  2.1500000000000D+00  2.4880665000708D-01  1.0289511114301D+00
217  2.1600000000000D+00  2.4873396903288D-01  1.0066736949884D+00
218  2.1700000000000D+00  2.4799665235910D-01  9.8349032796978D-01
219  2.1800000000000D+00  2.4661256087563D-01  9.5944554279098D-01
220  2.1900000000000D+00  2.4460652942349D-01  9.3459484078804D-01
221  2.2000000000000D+00  2.4200177527550D-01  9.0899152090247D-01
222  2.2100000000000D+00  2.3882239525695D-01  8.8269040806592D-01
223  2.2200000000000D+00  2.3509650550493D-01  8.5575239962254D-01
224  2.2300000000000D+00  2.3085051393057D-01  8.2823640934899D-01
225  2.2400000000000D+00  2.2611370425684D-01  8.0020530557464D-01
226  2.2500000000000D+00  2.2091641925296D-01  7.7172367568336D-01
227  2.2600000000000D+00  2.1528856839492D-01  7.4285640310741D-01
228  2.2700000000000D+00  2.0926250805530D-01  7.1367052071526D-01
229  2.2800000000000D+00  2.0287068134708D-01  6.8423431895892D-01
230  2.2900000000000D+00  1.9614614831038D-01  6.5461703242344D-01
231  2.3000000000000D+00  1.8912238672743D-01  6.2488716016068D-01
232  2.3100000000000D+00  1.8183421432411D-01  5.9511683208429D-01
233  2.3200000000000D+00  1.7431585640382D-01  5.6537594751887D-01
234  2.3300000000000D+00  1.6660149760419D-01  5.3573369650058D-01
235  2.3400000000000D+00  1.5872795588279D-01  5.0626526329065D-01
236  2.3500000000000D+00  1.5072866710043D-01  4.7703763382795D-01
237  2.3600000000000D+00  1.4263815602410D-01  4.4811999541076D-01
238  2.3700000000000D+00  1.3449454667554D-01  4.1958918129955D-01
239  2.3800000000000D+00  1.2632885352037D-01  3.9150634820072D-01
240  2.3900000000000D+00  1.1817608920627D-01  3.6394104458339D-01
241  2.4000000000000D+00  1.1007292995406D-01  3.3696611210272D-01
242  2.4100000000000D+00  1.0204851108211D-01  3.1063842367700D-01
243  2.4200000000000D+00  9.4137234387284D-02  2.8502560759494D-01
244  2.4300000000000D+00  8.6372976462185D-02  2.6019405391342D-01
245  2.4400000000000D+00  7.8782331918514D-02  2.3619509420065D-01
246  2.4500000000000D+00  7.1398258875691D-02  2.1309283375108D-01
247  2.4600000000000D+00  6.4250796648790D-02  1.9094534671705D-01
248  2.4700000000000D+00  5.7363282231412D-02  1.6979705301314D-01
249  2.4800000000000D+00  5.0766301019991D-02  1.4970675639073D-01
250  2.4900000000000D+00  4.4485370624075D-02  1.3072301239677D-01
251  2.5000000000000D+00  3.8539804297825D-02  1.1288186193530D-01
252  2.5100000000000D+00  3.2956822095886D-02  9.6234913118053D-02
253  2.5200000000000D+00  2.7757096562569D-02  8.0820673045131D-02
254  2.5300000000000D+00  2.2955127719339D-02  6.6665290204414D-02
255  2.5400000000000D+00  1.8573749978810D-02  5.3811232923814D-02
256  2.5500000000000D+00  1.4628808805674D-02  4.2287065227882D-02
257  2.5600000000000D+00  1.1129220350244D-02  3.2107564314764D-02
258  2.5700000000000D+00  8.0924262876528D-03  2.3304139282020D-02
259  2.5800000000000D+00  5.5297546625239D-03  1.5896059296211D-02
260  2.5900000000000D+00  3.4438430230424D-03  9.8853937590506D-03
261  2.6000000000000D+00  1.8926841652154D-03  5.4247558623675D-03
262  2.6100000000000D+00  8.8140735738908D-04  2.5188699446607D-03
263  2.6200000000000D+00  2.5483976092192D-04  7.2432551348495D-04
264  2.6300000000000D+00 -6.6528667147885D-05 -1.9286170869193D-04
265  2.6400000000000D+00 -1.6347417144031D-04 -4.7038488229173D-04
266  2.6500000000000D+00 -1.0984505108888D-04 -3.1577478378385D-04
267  2.6600000000000D+00  5.6242643408525D-08  1.8650008684328D-07
268  2.6700000000000D+00  3.0772046494357D-07  1.0203982237921D-06
269  2.6800000000000D+00  2.4609507284049D-07  8.1604899192021D-07
270  2.6900000000000D+00  1.9322792274736D-08  6.4074200978018D-08
271  2.7000000000000D+00  0.0000000000000D+00  0.0000000000000D+00
272  2.7100000000000D+00  0.0000000000000D+00  0.0000000000000D+00
273  2.7200000000000D+00  0.0000000000000D+00  0.0000000000000D+00
274  2.7300000000000D+00  0.0000000000000D+00  0.0000000000000D+00
275  2.7400000000000D+00  0.0000000000000D+00  0.0000000000000D+00
276  2.7500000000000D+00  0.0000000000000D+00  0.0000000000000D+00
277  2.7600000000000D+00  0.0000000000000D+00  0.0000000000000D+00
278  2.7700000000000D+00  0.0000000000000D+00  0.0000000000000D+00
279  2.7800000000000D+00  0.0000000000000D+00  0.0000000000000D+00
280  2.7900000000000D+00  0.0000000000000D+00  0.0000000000000D+00
281  2.8000000000000D+00  0.0000000000000D+00  0.0000000000000D+00
282  2.8100000000000D+00  0.0000000000000D+00  0.0000000000000D+00
283  2.8200000000000D+00  0.0000000000000D+00  0.0000000000000D+00
284  2.8300000000000D+00  0.0000000000000D+00  0.0000000000000D+00
285  2.8400000000000D+00  0.0000000000000D+00  0.0000000000000D+00
286  2.8500000000000D+00  0.0000000000000D+00  0.0000000000000D+00
287  2.8600000000000D+00  0.0000000000000D+00  0.0000000000000D+00
288  2.8700000000000D+00  0.0000000000000D+00  0.0000000000000D+00
289  2.8800000000000D+00  0.0000000000000D+00  0.0000000000000D+00
290  2.8900000000000D+00  0.0000000000000D+00  0.0000000000000D+00
291  2.9000000000000D+00  0.0000000000000D+00  0.0000000000000D+00
292  2.9100000000000D+00  0.0000000000000D+00  0.0000000000000D+00
293  2.9200000000000D+00  0.0000000000000D+00  0.0000000000000D+00
294  2.9300000000000D+00  0.0000000000000D+00  0.0000000000000D+00
295  2.9400000000000D+00  0.0000000000000D+00  0.0000000000000D+00
296  2.9500000000000D+00  0.0000000000000D+00  0.0000000000000D+00
297  2.9600000000000D+00  0.0000000000000D+00  0.0000000000000D+00
298  2.9700000000000D+00  0.0000000000000D+00  0.0000000000000D+00
299  2.9800000000000D+00  0.0000000000000D+00  0.0000000000000D+00
300  2.9900000000000D+00  0.0000000000000D+00  0.0000000000000D+00
301  3.0000000000000D+00  0.0000000000000D+00  0.0000000000000D+00
302  3.0100000000000D+00  0.0000000000000D+00  0.0000000000000D+00
303  3.0200000000000D+00  0.0000000000000D+00  0.0000000000000D+00
304  3.0300000000000D+00  0.0000000000000D+00  0.0000000000000D+00
305  3.0400000000000D+00  0.0000000000000D+00  0.0000000000000D+00
306  3.0500000000000D+00  0.0000000000000D+00  0.0000000000000D+00
307  3.0600000000000D+00  0.0000000000000D+00  0.0000000000000D+00
308  3.0700000000000D+00  0.0000000000000D+00  0.0000000000000D+00
309  3.0800000000000D+00  0.0000000000000D+00  0.0000000000000D+00
310  3.0900000000000D+00  0.0000000000000D+00  0.0000000000000D+00
311  3.1000000000000D+00  0.0000000000000D+00  0.0000000000000D+00
312  3.1100000000000D+00  0.0000000000000D+00  0.0000000000000D+00
313  3.1200000000000D+00  0.0000000000000D+00  0.0000000000000D+00
314  3.1300000000000D+00  0.0000000000000D+00  0.0000000000000D+00
315  3.1400000000000D+00  0.0000000000000D+00  0.0000000000000D+00
316  3.1500000000000D+00  0.0000000000000D+00  0.0000000000000D+00
317  3.1600000000000D+00  0.0000000000000D+00  0.0000000000000D+00
318  3.1700000000000D+00  0.0000000000000D+00  0.0000000000000D+00
319  3.1800000000000D+00  0.0000000000000D+00  0.0000000000000D+00
320  3.1900000000000D+00  0.0000000000000D+00  0.0000000000000D+00
321  3.2000000000000D+00  0.0000000000000D+00  0.0000000000000D+00
322  3.2100000000000D+00  0.0000000000000D+00  0.0000000000000D+00
323  3.2200000000000D+00  0.0000000000000D+00  0.0000000000000D+00
324  3.2300000000000D+00  0.0000000000000D+00  0.0000000000000D+00
325  3.2400000000000D+00  0.0000000000000D+00  0.0000000000000D+00
326  3.2500000000000D+00  0.0000000000000D+00  0.0000000000000D+00
327  3.2600000000000D+00  0.0000000000000D+00  0.0000000000000D+00
328  3.2700000000000D+00  0.0000000000000D+00  0.0000000000000D+00
329  3.2800000000000D+00  0.0000000000000D+00  0.0000000000000D+00
330  3.2900000000000D+00  0.0000000000000D+00  0.0000000000000D+00
331  3.3000000000000D+00  0.0000000000000D+00  0.0000000000000D+00
332  3.3100000000000D+00  0.0000000000000D+00  0.0000000000000D+00
333  3.3200000000000D+00  0.0000000000000D+00  0.0000000000000D+00
334  3.3300000000000D+00  0.0000000000000D+00  0.0000000000000D+00
335  3.3400000000000D+00  0.0000000000000D+00  0.0000000000000D+00
336  3.3500000000000D+00  0.0000000000000D+00  0.0000000000000D+00
337  3.3600000000000D+00  0.0000000000000D+00  0.0000000000000D+00
338  3.3700000000000D+00  0.0000000000000D+00  0.0000000000000D+00
339  3.3800000000000D+00  0.0000000000000D+00  0.0000000000000D+00
340  3.3900000000000D+00  0.0000000000000D+00  0.0000000000000D+00
341  3.4000000000000D+00  0.0000000000000D+00  0.0000000000000D+00
342  3.4100000000000D+00  0.0000000000000D+00  0.0000000000000D+00
343  3.4200000000000D+00  0.0000000000000D+00  0.0000000000000D+00
344  3.4300000000000D+00  0.0000000000000D+00  0.0000000000000D+00
345  3.4400000000000D+00  0.0000000000000D+00  0.0000000000000D+00
346  3.4500000000000D+00  0.0000000000000D+00  0.0000000000000D+00
347  3.4600000000000D+00  0.0000000000000D+00  0.0000000000000D+00
348  3.4700000000000D+00  0.0000000000000D+00  0.0000000000000D+00
349  3.4800000000000D+00  0.0000000000000D+00  0.0000000000000D+00
350  3.4900000000000D+00  0.0000000000000D+00  0.0000000000000D+00
351  3.5000000000000D+00  0.0000000000000D+00  0.0000000000000D+00
352  3.5100000000000D+00  0.0000000000000D+00  0.0000000000000D+00
353  3.5200000000000D+00  0.0000000000000D+00  0.0000000000000D+00
354  3.5300000000000D+00  0.0000000000000D+00  0.0000000000000D+00
355  3.5400000000000D+00  0.0000000000000D+00  0.0000000000000D+00
356  3.5500000000000D+00  0.0000000000000D+00  0.0000000000000D+00
357  3.5600000000000D+00  0.0000000000000D+00  0.0000000000000D+00
358  3.5700000000000D+00  0.0000000000000D+00  0.0000000000000D+00
359  3.5800000000000D+00  0.0000000000000D+00  0.0000000000000D+00
360  3.5900000000000D+00  0.0000000000000D+00  0.0000000000000D+00
361  3.6000000000000D+00  0.0000000000000D+00  0.0000000000000D+00
362  3.6100000000000D+00  0.0000000000000D+00  0.0000000000000D+00
363  3.6200000000000D+00  0.0000000000000D+00  0.0000000000000D+00
364  3.6300000000000D+00  0.0000000000000D+00  0.0000000000000D+00
365  3.6400000000000D+00  0.0000000000000D+00  0.0000000000000D+00
366  3.6500000000000D+00  0.0000000000000D+00  0.0000000000000D+00
367  3.6600000000000D+00  0.0000000000000D+00  0.0000000000000D+00
368  3.6700000000000D+00  0.0000000000000D+00  0.0000000000000D+00
369  3.6800000000000D+00  0.0000000000000D+00  0.0000000000000D+00
370  3.6900000000000D+00  0.0000000000000D+00  0.0000000000000D+00
371  3.7000000000000D+00  0.0000000000000D+00  0.0000000000000D+00
372  3.7100000000000D+00  0.0000000000000D+00  0.0000000000000D+00
373  3.7200000000000D+00  0.0000000000000D+00  0.0000000000000D+00
374  3.7300000000000D+00  0.0000000000000D+00  0.0000000000000D+00
375  3.7400000000000D+00  0.0000000000000D+00  0.0000000000000D+00
376  3.7500000000000D+00  0.0000000000000D+00  0.0000000000000D+00
377  3.7600000000000D+00  0.0000000000000D+00  0.0000000000000D+00
378  3.7700000000000D+00  0.0000000000000D+00  0.0000000000000D+00
379  3.7800000000000D+00  0.0000000000000D+00  0.0000000000000D+00
380  3.7900000000000D+00  0.0000000000000D+00  0.0000000000000D+00
381  3.8000000000000D+00  0.0000000000000D+00  0.0000000000000D+00
382  3.8100000000000D+00  0.0000000000000D+00  0.0000000000000D+00
383  3.8200000000000D+00  0.0000000000000D+00  0.0000000000000D+00
384  3.8300000000000D+00  0.0000000000000D+00  0.0000000000000D+00
385  3.8400000000000D+00  0.0000000000000D+00  0.0000000000000D+00
386  3.8500000000000D+00  0.0000000000000D+00  0.0000000000000D+00
387  3.8600000000000D+00  0.0000000000000D+00  0.0000000000000D+00
388  3.8700000000000D+00  0.0000000000000D+00  0.0000000000000D+00
389  3.8800000000000D+00  0.0000000000000D+00  0.0000000000000D+00
390  3.8900000000000D+00  0.0000000000000D+00  0.0000000000000D+00
391  3.9000000000000D+00  0.0000000000000D+00  0.0000000000000D+00
392  3.9100000000000D+00  0.0000000000000D+00  0.0000000000000D+00
393  3.9200000000000D+00  0.0000000000000D+00  0.0000000000000D+00
394  3.9300000000000D+00  0.0000000000000D+00  0.0000000000000D+00
395  3.9400000000000D+00  0.0000000000000D+00  0.0000000000000D+00
396  3.9500000000000D+00  0.0000000000000D+00  0.0000000000000D+00
397  3.9600000000000D+00  0.0000000000000D+00  0.0000000000000D+00
398  3.9700000000000D+00  0.0000000000000D+00  0.0000000000000D+00
399  3.9800000000000D+00  0.0000000000000D+00  0.0000000000000D+00
400  3.9900000000000D+00  0.0000000000000D+00  0.0000000000000D+00
401  4.0000000000000D+00  0.0000000000000D+00  0.0000000000000D+00
402  4.0100000000000D+00  0.0000000000000D+00  0.0000000000000D+00
403  4.0200000000000D+00  0.0000000000000D+00  0.0000000000000D+00
404  4.0300000000000D+00  0.0000000000000D+00  0.0000000000000D+00
405  4.0400000000000D+00  0.0000000000000D+00  0.0000000000000D+00
406  4.0500000000000D+00  0.0000000000000D+00  0.0000000000000D+00
407  4.0600000000000D+00  0.0000000000000D+00  0.0000000000000D+00
408  4.0700000000000D+00  0.0000000000000D+00  0.0000000000000D+00
409  4.0800000000000D+00  0.0000000000000D+00  0.0000000000000D+00
410  4.0900000000000D+00  0.0000000000000D+00  0.0000000000000D+00
411  4.1000000000000D+00  0.0000000000000D+00  0.0000000000000D+00
412  4.1100000000000D+00  0.0000000000000D+00  0.0000000000000D+00
413  4.1200000000000D+00  0.0000000000000D+00  0.0000000000000D+00
414  4.1300000000000D+00  0.0000000000000D+00  0.0000000000000D+00
415  4.1400000000000D+00  0.0000000000000D+00  0.0000000000000D+00
416  4.1500000000000D+00  0.0000000000000D+00  0.0000000000000D+00
417  4.1600000000000D+00  0.0000000000000D+00  0.0000000000000D+00
418  4.1700000000000D+00  0.0000000000000D+00  0.0000000000000D+00
419  4.1800000000000D+00  0.0000000000000D+00  0.0000000000000D+00
420  4.1900000000000D+00  0.0000000000000D+00  0.0000000000000D+00
421  4.2000000000000D+00  0.0000000000000D+00  0.0000000000000D+00
422  4.2100000000000D+00  0.0000000000000D+00  0.0000000000000D+00
423  4.2200000000000D+00  0.0000000000000D+00  0.0000000000000D+00
424  4.2300000000000D+00  0.0000000000000D+00  0.0000000000000D+00
425  4.2400000000000D+00  0.0000000000000D+00  0.0000000000000D+00
426  4.2500000000000D+00  0.0000000000000D+00  0.0000000000000D+00
427  4.2600000000000D+00  0.0000000000000D+00  0.0000000000000D+00
428  4.2700000000000D+00  0.0000000000000D+00  0.0000000000000D+00
429  4.2800000000000D+00  0.0000000000000D+00  0.0000000000000D+00
430  4.2900000000000D+00  0.0000000000000D+00  0.0000000000000D+00
431  4.3000000000000D+00  0.0000000000000D+00  0.0000000000000D+00
432  4.3100000000000D+00  0.0000000000000D+00  0.0000000000000D+00
433  4.3200000000000D+00  0.0000000000000D+00  0.0000000000000D+00
434  4.3300000000000D+00  0.0000000000000D+00  0.0000000000000D+00
435  4.3400000000000D+00  0.0000000000000D+00  0.0000000000000D+00
436  4.3500000000000D+00  0.0000000000000D+00  0.0000000000000D+00
437  4.3600000000000D+00  0.0000000000000D+00  0.0000000000000D+00
438  4.3700000000000D+00  0.0000000000000D+00  0.0000000000000D+00
439  4.3800000000000D+00  0.0000000000000D+00  0.0000000000000D+00
440  4.3900000000000D+00  0.0000000000000D+00  0.0000000000000D+00
441  4.4000000000000D+00  0.0000000000000D+00  0.0000000000000D+00
442  4.4100000000000D+00  0.0000000000000D+00  0.0000000000000D+00
443  4.4200000000000D+00  0.0000000000000D+00  0.0000000000000D+00
444  4.4300000000000D+00  0.0000000000000D+00  0.0000000000000D+00