W     ONCVPSP  r_core=  1.61  1.71  1.46
74.0000     14.0000      140826    zatom,zion,pspd
8    11     2     4   601     0    pspcod,pspxc,lmax,lloc,mmax,r2well
6.00000000  0.50000000  0.00000000    rchrg fchrg qchrg
2     2     2     0     0    nproj
0                 extension_switch
0                         1.4628149600132D+01  1.3123870690294D+00
1  0.0000000000000D+00 -0.0000000000000D+00  0.0000000000000D+00
2  1.0000000000000D-02 -6.6469081342113D-02  3.0575925072803D-02
3  2.0000000000000D-02 -1.3282637962965D-01  6.1034560980462D-02
4  3.0000000000000D-02 -1.9896021636606D-01  9.1258742927292D-02
5  4.0000000000000D-02 -2.6475912343605D-01  1.2113155724155D-01
6  5.0000000000000D-02 -3.3011195144198D-01  1.5053647286465D-01
7  6.0000000000000D-02 -3.9490798176569D-01  1.7935747985430D-01
8  7.0000000000000D-02 -4.5903704351660D-01  2.0747923707662D-01
9  8.0000000000000D-02 -5.2238963645713D-01  2.3478723112327D-01
10  9.0000000000000D-02 -5.8485706091466D-01  2.6116794832424D-01
11  1.0000000000000D-01 -6.4633155558407D-01  2.8650906152047D-01
12  1.1000000000000D-01 -7.0670644401717D-01  3.1069963304137D-01
13  1.2000000000000D-01 -7.6587629046727D-01  3.3363033507891D-01
14  1.3000000000000D-01 -8.2373706563011D-01  3.5519368839195D-01
15  1.4000000000000D-01 -8.8018632260714D-01  3.7528431988421D-01
16  1.5000000000000D-01 -9.3512338344529D-01  3.9379923955679D-01
17  1.6000000000000D-01 -9.8844953609530D-01  4.1063813650862D-01
18  1.7000000000000D-01 -1.0400682420112D+00  4.2570369413221D-01
19  1.8000000000000D-01 -1.0898853537066D+00  4.3890192323230D-01
20  1.9000000000000D-01 -1.1378093421458D+00  4.5014251254713D-01
21  2.0000000000000D-01 -1.1837515332200D+00  4.5933919514718D-01
22  2.1000000000000D-01 -1.2276263523998D+00  4.6641012886768D-01
23  2.2000000000000D-01 -1.2693515769878D+00  4.7127828938150D-01
24  2.3000000000000D-01 -1.3088485940121D+00  4.7387187233670D-01
25  2.4000000000000D-01 -1.3460426637119D+00  4.7412470387786D-01
26  2.5000000000000D-01 -1.3808631861412D+00  4.7197665508983D-01
27  2.6000000000000D-01 -1.4132439692319D+00  4.6737405711828D-01
28  2.7000000000000D-01 -1.4431234976742D+00  4.6027011528048D-01
29  2.8000000000000D-01 -1.4704452006651D+00  4.5062531842457D-01
30  2.9000000000000D-01 -1.4951577146817D+00  4.3840783687675D-01
31  3.0000000000000D-01 -1.5172151420296D+00  4.2359390940345D-01
32  3.1000000000000D-01 -1.5365773006757D+00  4.0616821157075D-01
33  3.2000000000000D-01 -1.5532099665749D+00  3.8612420658271D-01
34  3.3000000000000D-01 -1.5670851034808D+00  3.6346447018867D-01
35  3.4000000000000D-01 -1.5781810738103D+00  3.3820097961557D-01
36  3.5000000000000D-01 -1.5864828468181D+00  3.1035538954605D-01
37  3.6000000000000D-01 -1.5919821684739D+00  2.7995924259512D-01
38  3.7000000000000D-01 -1.5946777362385D+00  2.4705417587972D-01
39  3.8000000000000D-01 -1.5945753285547D+00  2.1169205142763D-01
40  3.9000000000000D-01 -1.5916879229825D+00  1.7393505841026D-01
41  4.0000000000000D-01 -1.5860357889747D+00  1.3385576613095D-01
42  4.1000000000000D-01 -1.5776465501332D+00  9.1537120774462D-02
43  4.2000000000000D-01 -1.5665552169545D+00  4.7072387586805D-02
44  4.3000000000000D-01 -1.5528041922720D+00  5.6504055961964D-04
45  4.4000000000000D-01 -1.5364432446175D+00 -4.7871406471710D-02
46  4.5000000000000D-01 -1.5175294494903D+00 -9.8113627216652D-02
47  4.6000000000000D-01 -1.4961270974554D+00 -1.5002876888168D-01
48  4.7000000000000D-01 -1.4723075707974D+00 -2.0347479660242D-01
49  4.8000000000000D-01 -1.4461491846618D+00 -2.5830090148900D-01
50  4.9000000000000D-01 -1.4177369933496D+00 -3.1434796362072D-01
51  5.0000000000000D-01 -1.3871625662948D+00 -3.7144906826712D-01
52  5.1000000000000D-01 -1.3545237327553D+00 -4.2943007556658D-01
53  5.2000000000000D-01 -1.3199242790254D+00 -4.8811028501713D-01
54  5.3000000000000D-01 -1.2834736414993D+00 -5.4730306460222D-01
55  5.4000000000000D-01 -1.2452865438007D+00 -6.0681661383738D-01
56  5.5000000000000D-01 -1.2054826038751D+00 -6.6645475706234D-01
57  5.6000000000000D-01 -1.1641859634030D+00 -7.2601766566079D-01
58  5.7000000000000D-01 -1.1215247787420D+00 -7.8530287895000D-01
59  5.8000000000000D-01 -1.0776308610129D+00 -8.4410596058955D-01
60  5.9000000000000D-01 -1.0326390781323D+00 -9.0222166717137D-01
61  6.0000000000000D-01 -9.8668695943832D-01 -9.5944465196240D-01
62  6.1000000000000D-01 -9.3991411758257D-01 -1.0155705443105D+00
63  6.2000000000000D-01 -8.9246168459041D-01 -1.0703969734730D+00
64  6.3000000000000D-01 -8.4447192121850D-01 -1.1237242289346D+00
65  6.4000000000000D-01 -7.9608742842089D-01 -1.1753566980507D+00
66  6.5000000000000D-01 -7.4745074992220D-01 -1.2251035058162D+00
67  6.6000000000000D-01 -6.9870386044796D-01 -1.2727793769887D+00
68  6.7000000000000D-01 -6.4998742112701D-01 -1.3182059169758D+00
69  6.8000000000000D-01 -6.0144031138630D-01 -1.3612123467346D+00
70  6.9000000000000D-01 -5.5319912294170D-01 -1.4016362996743D+00
71  7.0000000000000D-01 -5.0539764612676D-01 -1.4393246209477D+00
72  7.1000000000000D-01 -4.5816619710186D-01 -1.4741344281905D+00
73  7.2000000000000D-01 -4.1163115456099D-01 -1.5059337742550D+00
74  7.3000000000000D-01 -3.6591453961234D-01 -1.5346022233416D+00
75  7.4000000000000D-01 -3.2113350355618D-01 -1.5600315712242D+00
76  7.5000000000000D-01 -2.7739987840894D-01 -1.5821264362031D+00
77  7.6000000000000D-01 -2.3481976521099D-01 -1.6008047679418D+00
78  7.7000000000000D-01 -1.9349317166176D-01 -1.6159982584563D+00
79  7.8000000000000D-01 -1.5351348668407D-01 -1.6276529862858D+00
80  7.9000000000000D-01 -1.1496734443439D-01 -1.6357294209165D+00
81  8.0000000000000D-01 -7.7934265511526D-02 -1.6402027659394D+00
82  8.1000000000000D-01 -4.2486401126419D-02 -1.6410631170789D+00
83  8.2000000000000D-01 -8.6883154808919D-03 -1.6383155411018D+00
84  8.3000000000000D-01  2.3403192570882D-02 -1.6319800749830D+00
85  8.4000000000000D-01  5.3739227750413D-02 -1.6220916452197D+00
86  8.5000000000000D-01  8.2278895891531D-02 -1.6086999076873D+00
87  8.6000000000000D-01  1.0898936045282D-01 -1.5918690089356D+00
88  8.7000000000000D-01  1.3384585792189D-01 -1.5716772703163D+00
89  8.8000000000000D-01  1.5683167227850D-01 -1.5482167968277D+00
90  8.9000000000000D-01  1.7793806893845D-01 -1.5215930130527D+00
91  9.0000000000000D-01  1.9716418885979D-01 -1.4919241290616D+00
92  9.1000000000000D-01  2.1451690375954D-01 -1.4593405396468D+00
93  9.2000000000000D-01  2.3001063366435D-01 -1.4239841607586D+00
94  9.3000000000000D-01  2.4366708800448D-01 -1.3860077053892D+00
95  9.4000000000000D-01  2.5551512493138D-01 -1.3455739539311D+00
96  9.5000000000000D-01  2.6559039502903D-01 -1.3028548609091D+00
97  9.6000000000000D-01  2.7393500011927D-01 -1.2580306930041D+00
98  9.7000000000000D-01  2.8059716935603D-01 -1.2112891245013D+00
99  9.8000000000000D-01  2.8563088666918D-01 -1.1628242919434D+00
100  9.9000000000000D-01  2.8909549524811D-01 -1.1128358228650D+00
101  1.0000000000000D+00  2.9105528235648D-01 -1.0615278457222D+00
102  1.0100000000000D+00  2.9157909657127D-01 -1.0091083201721D+00
103  1.0200000000000D+00  2.9073981838297D-01 -9.5578716839158D-01
104  1.0300000000000D+00  2.8861389613486D-01 -9.0177582463280D-01
105  1.0400000000000D+00  2.8528089441318D-01 -8.4728615481928D-01
106  1.0500000000000D+00  2.8082301622569D-01 -7.9252941140379D-01
107  1.0600000000000D+00  2.7532474836691D-01 -7.3771565042927D-01
108  1.0700000000000D+00  2.6887222655796D-01 -6.8305211474867D-01
109  1.0800000000000D+00  2.6155251807712D-01 -6.2874167391354D-01
110  1.0900000000000D+00  2.5345349841496D-01 -5.7498307493090D-01
111  1.1000000000000D+00  2.4466328711558D-01 -5.2196966354017D-01
112  1.1100000000000D+00  2.3527033534971D-01 -4.6988996116615D-01
113  1.1200000000000D+00  2.2536139607829D-01 -4.1892249336721D-01
114  1.1300000000000D+00  2.1502242149555D-01 -3.6923882140539D-01
115  1.1400000000000D+00  2.0433787803120D-01 -3.2100197042547D-01
116  1.1500000000000D+00  1.9339116497335D-01 -2.7436767747776D-01
117  1.1600000000000D+00  1.8226165520704D-01 -2.2947741343915D-01
118  1.1700000000000D+00  1.7102666467134D-01 -1.8646366758535D-01
119  1.1800000000000D+00  1.5976097918094D-01 -1.4544889895578D-01
120  1.1900000000000D+00  1.4853598900849D-01 -1.0654367710543D-01
121  1.2000000000000D+00  1.3741816075861D-01 -6.9843570598982D-02
122  1.2100000000000D+00  1.2647081485268D-01 -3.5433432454006D-02
123  1.2200000000000D+00  1.1575457849310D-01 -3.3883861749619D-03
124  1.2300000000000D+00  1.0532277524177D-01  2.6235983454012D-02
125  1.2400000000000D+00  9.5225477446454D-02  5.3394513678533D-02
126  1.2500000000000D+00  8.5509523608054D-02  7.8052508182501D-02
127  1.2600000000000D+00  7.6214304943628D-02  1.0019439308487D-01
128  1.2700000000000D+00  6.7374975807415D-02  1.1981671823585D-01
129  1.2800000000000D+00  5.9023529561502D-02  1.3692601486729D-01
130  1.2900000000000D+00  5.1184000189562D-02  1.5154838358667D-01
131  1.3000000000000D+00  4.3876127926857D-02  1.6372185230752D-01
132  1.3100000000000D+00  3.7116669977330D-02  1.7349386028454D-01
133  1.3200000000000D+00  3.0913501304588D-02  1.8093273181975D-01
134  1.3300000000000D+00  2.5271449328858D-02  1.8611608523477D-01
135  1.3400000000000D+00  2.0191091909745D-02  1.8913325037570D-01
136  1.3500000000000D+00  1.5665052719155D-02  1.9009226388290D-01
137  1.3600000000000D+00  1.1683722549818D-02  1.8910885720060D-01
138  1.3700000000000D+00  8.2312509884476D-03  1.8631411942319D-01
139  1.3800000000000D+00  5.2861967229698D-03  1.8185321495246D-01
140  1.3900000000000D+00  2.8250815109612D-03  1.7587861967133D-01
141  1.4000000000000D+00  8.1615878962969D-04  1.6856212169647D-01
142  1.4100000000000D+00 -7.7423665340968D-04  1.6008236469217D-01
143  1.4200000000000D+00 -1.9855694993629D-03  1.5063401295144D-01
144  1.4300000000000D+00 -2.8587873528715D-03  1.4041002019574D-01
145  1.4400000000000D+00 -3.4375057946995D-03  1.2961379116605D-01
146  1.4500000000000D+00 -3.7622185687550D-03  1.1842602535382D-01
147  1.4600000000000D+00 -3.8744204566019D-03  1.0703243295062D-01
148  1.4700000000000D+00 -3.8130744268008D-03  9.5603213822496D-02
149  1.4800000000000D+00 -3.6148974251956D-03  8.4298408593349D-02
150  1.4900000000000D+00 -3.3164122408750D-03  7.3275591413873D-02
151  1.5000000000000D+00 -2.9476219809254D-03  6.2665298845008D-02
152  1.5100000000000D+00 -2.5412199878396D-03  5.2608332620157D-02
153  1.5200000000000D+00 -2.1200226094947D-03  4.3206937633844D-02
154  1.5300000000000D+00 -1.7092556416184D-03  3.4572830819283D-02
155  1.5400000000000D+00 -1.3258625078455D-03  2.6786855032336D-02
156  1.5500000000000D+00 -9.8561142445360D-04  1.9926137378092D-02
157  1.5600000000000D+00 -6.9888148161439D-04  1.4048451404690D-02
158  1.5700000000000D+00 -4.7116545889789D-04  9.1949762020866D-03
159  1.5800000000000D+00 -3.0562603721436D-04  5.3987503773103D-03
160  1.5900000000000D+00 -1.9715137296286D-04  2.6648614385603D-03
161  1.6000000000000D+00 -1.4821967871626D-04  1.1205085002398D-03
162  1.6100000000000D+00 -1.2393936396503D-04  4.0959966283764D-04
163  1.6200000000000D+00 -6.1977539250550D-05  7.4352278688751D-05
164  1.6300000000000D+00 -1.8707409758827D-06 -3.3241117887608D-07
165  1.6400000000000D+00  7.9600995597943D-06 -2.4102735161576D-05
166  1.6500000000000D+00  0.0000000000000D+00  0.0000000000000D+00
167  1.6600000000000D+00  0.0000000000000D+00  0.0000000000000D+00
168  1.6700000000000D+00  0.0000000000000D+00  0.0000000000000D+00
169  1.6800000000000D+00  0.0000000000000D+00  0.0000000000000D+00
170  1.6900000000000D+00  0.0000000000000D+00  0.0000000000000D+00
171  1.7000000000000D+00  0.0000000000000D+00  0.0000000000000D+00
172  1.7100000000000D+00  0.0000000000000D+00  0.0000000000000D+00
173  1.7200000000000D+00  0.0000000000000D+00  0.0000000000000D+00
174  1.7300000000000D+00  0.0000000000000D+00  0.0000000000000D+00
175  1.7400000000000D+00  0.0000000000000D+00  0.0000000000000D+00
176  1.7500000000000D+00  0.0000000000000D+00  0.0000000000000D+00
177  1.7600000000000D+00  0.0000000000000D+00  0.0000000000000D+00
178  1.7700000000000D+00  0.0000000000000D+00  0.0000000000000D+00
179  1.7800000000000D+00  0.0000000000000D+00  0.0000000000000D+00
180  1.7900000000000D+00  0.0000000000000D+00  0.0000000000000D+00
181  1.8000000000000D+00  0.0000000000000D+00  0.0000000000000D+00
182  1.8100000000000D+00  0.0000000000000D+00  0.0000000000000D+00
183  1.8200000000000D+00  0.0000000000000D+00  0.0000000000000D+00
184  1.8300000000000D+00  0.0000000000000D+00  0.0000000000000D+00
185  1.8400000000000D+00  0.0000000000000D+00  0.0000000000000D+00
186  1.8500000000000D+00  0.0000000000000D+00  0.0000000000000D+00
187  1.8600000000000D+00  0.0000000000000D+00  0.0000000000000D+00
188  1.8700000000000D+00  0.0000000000000D+00  0.0000000000000D+00
189  1.8800000000000D+00  0.0000000000000D+00  0.0000000000000D+00
190  1.8900000000000D+00  0.0000000000000D+00  0.0000000000000D+00
191  1.9000000000000D+00  0.0000000000000D+00  0.0000000000000D+00
192  1.9100000000000D+00  0.0000000000000D+00  0.0000000000000D+00
193  1.9200000000000D+00  0.0000000000000D+00  0.0000000000000D+00
194  1.9300000000000D+00  0.0000000000000D+00  0.0000000000000D+00
195  1.9400000000000D+00  0.0000000000000D+00  0.0000000000000D+00
196  1.9500000000000D+00  0.0000000000000D+00  0.0000000000000D+00
197  1.9600000000000D+00  0.0000000000000D+00  0.0000000000000D+00
198  1.9700000000000D+00  0.0000000000000D+00  0.0000000000000D+00
199  1.9800000000000D+00  0.0000000000000D+00  0.0000000000000D+00
200  1.9900000000000D+00  0.0000000000000D+00  0.0000000000000D+00
201  2.0000000000000D+00  0.0000000000000D+00  0.0000000000000D+00
202  2.0100000000000D+00  0.0000000000000D+00  0.0000000000000D+00
203  2.0200000000000D+00  0.0000000000000D+00  0.0000000000000D+00
204  2.0300000000000D+00  0.0000000000000D+00  0.0000000000000D+00
205  2.0400000000000D+00  0.0000000000000D+00  0.0000000000000D+00
206  2.0500000000000D+00  0.0000000000000D+00  0.0000000000000D+00
207  2.0600000000000D+00  0.0000000000000D+00  0.0000000000000D+00
208  2.0700000000000D+00  0.0000000000000D+00  0.0000000000000D+00
209  2.0800000000000D+00  0.0000000000000D+00  0.0000000000000D+00
210  2.0900000000000D+00  0.0000000000000D+00  0.0000000000000D+00
211  2.1000000000000D+00  0.0000000000000D+00  0.0000000000000D+00
212  2.1100000000000D+00  0.0000000000000D+00  0.0000000000000D+00
213  2.1200000000000D+00  0.0000000000000D+00  0.0000000000000D+00
214  2.1300000000000D+00  0.0000000000000D+00  0.0000000000000D+00
215  2.1400000000000D+00  0.0000000000000D+00  0.0000000000000D+00
216  2.1500000000000D+00  0.0000000000000D+00  0.0000000000000D+00
217  2.1600000000000D+00  0.0000000000000D+00  0.0000000000000D+00
218  2.1700000000000D+00  0.0000000000000D+00  0.0000000000000D+00
219  2.1800000000000D+00  0.0000000000000D+00  0.0000000000000D+00
220  2.1900000000000D+00  0.0000000000000D+00  0.0000000000000D+00
221  2.2000000000000D+00  0.0000000000000D+00  0.0000000000000D+00
222  2.2100000000000D+00  0.0000000000000D+00  0.0000000000000D+00
223  2.2200000000000D+00  0.0000000000000D+00  0.0000000000000D+00
224  2.2300000000000D+00  0.0000000000000D+00  0.0000000000000D+00
225  2.2400000000000D+00  0.0000000000000D+00  0.0000000000000D+00
226  2.2500000000000D+00  0.0000000000000D+00  0.0000000000000D+00
227  2.2600000000000D+00  0.0000000000000D+00  0.0000000000000D+00
228  2.2700000000000D+00  0.0000000000000D+00  0.0000000000000D+00
229  2.2800000000000D+00  0.0000000000000D+00  0.0000000000000D+00
230  2.2900000000000D+00  0.0000000000000D+00  0.0000000000000D+00
231  2.3000000000000D+00  0.0000000000000D+00  0.0000000000000D+00
232  2.3100000000000D+00  0.0000000000000D+00  0.0000000000000D+00
233  2.3200000000000D+00  0.0000000000000D+00  0.0000000000000D+00
234  2.3300000000000D+00  0.0000000000000D+00  0.0000000000000D+00
235  2.3400000000000D+00  0.0000000000000D+00  0.0000000000000D+00
236  2.3500000000000D+00  0.0000000000000D+00  0.0000000000000D+00
237  2.3600000000000D+00  0.0000000000000D+00  0.0000000000000D+00
238  2.3700000000000D+00  0.0000000000000D+00  0.0000000000000D+00
239  2.3800000000000D+00  0.0000000000000D+00  0.0000000000000D+00
240  2.3900000000000D+00  0.0000000000000D+00  0.0000000000000D+00
241  2.4000000000000D+00  0.0000000000000D+00  0.0000000000000D+00
242  2.4100000000000D+00  0.0000000000000D+00  0.0000000000000D+00
243  2.4200000000000D+00  0.0000000000000D+00  0.0000000000000D+00
244  2.4300000000000D+00  0.0000000000000D+00  0.0000000000000D+00
245  2.4400000000000D+00  0.0000000000000D+00  0.0000000000000D+00
246  2.4500000000000D+00  0.0000000000000D+00  0.0000000000000D+00
247  2.4600000000000D+00  0.0000000000000D+00  0.0000000000000D+00
248  2.4700000000000D+00  0.0000000000000D+00  0.0000000000000D+00
249  2.4800000000000D+00  0.0000000000000D+00  0.0000000000000D+00
250  2.4900000000000D+00  0.0000000000000D+00  0.0000000000000D+00
251  2.5000000000000D+00  0.0000000000000D+00  0.0000000000000D+00
252  2.5100000000000D+00  0.0000000000000D+00  0.0000000000000D+00
253  2.5200000000000D+00  0.0000000000000D+00  0.0000000000000D+00
254  2.5300000000000D+00  0.0000000000000D+00  0.0000000000000D+00
255  2.5400000000000D+00  0.0000000000000D+00  0.0000000000000D+00
256  2.5500000000000D+00  0.0000000000000D+00  0.0000000000000D+00
257  2.5600000000000D+00  0.0000000000000D+00  0.0000000000000D+00
258  2.5700000000000D+00  0.0000000000000D+00  0.0000000000000D+00
259  2.5800000000000D+00  0.0000000000000D+00  0.0000000000000D+00
260  2.5900000000000D+00  0.0000000000000D+00  0.0000000000000D+00
261  2.6000000000000D+00  0.0000000000000D+00  0.0000000000000D+00
262  2.6100000000000D+00  0.0000000000000D+00  0.0000000000000D+00
263  2.6200000000000D+00  0.0000000000000D+00  0.0000000000000D+00
264  2.6300000000000D+00  0.0000000000000D+00  0.0000000000000D+00
265  2.6400000000000D+00  0.0000000000000D+00  0.0000000000000D+00
266  2.6500000000000D+00  0.0000000000000D+00  0.0000000000000D+00
267  2.6600000000000D+00  0.0000000000000D+00  0.0000000000000D+00
268  2.6700000000000D+00  0.0000000000000D+00  0.0000000000000D+00
269  2.6800000000000D+00  0.0000000000000D+00  0.0000000000000D+00
270  2.6900000000000D+00  0.0000000000000D+00  0.0000000000000D+00
271  2.7000000000000D+00  0.0000000000000D+00  0.0000000000000D+00
272  2.7100000000000D+00  0.0000000000000D+00  0.0000000000000D+00
273  2.7200000000000D+00  0.0000000000000D+00  0.0000000000000D+00
274  2.7300000000000D+00  0.0000000000000D+00  0.0000000000000D+00
275  2.7400000000000D+00  0.0000000000000D+00  0.0000000000000D+00
276  2.7500000000000D+00  0.0000000000000D+00  0.0000000000000D+00
277  2.7600000000000D+00  0.0000000000000D+00  0.0000000000000D+00
278  2.7700000000000D+00  0.0000000000000D+00  0.0000000000000D+00
279  2.7800000000000D+00  0.0000000000000D+00  0.0000000000000D+00
280  2.7900000000000D+00  0.0000000000000D+00  0.0000000000000D+00
281  2.8000000000000D+00  0.0000000000000D+00  0.0000000000000D+00
282  2.8100000000000D+00  0.0000000000000D+00  0.0000000000000D+00
283  2.8200000000000D+00  0.0000000000000D+00  0.0000000000000D+00
284  2.8300000000000D+00  0.0000000000000D+00  0.0000000000000D+00
285  2.8400000000000D+00  0.0000000000000D+00  0.0000000000000D+00
286  2.8500000000000D+00  0.0000000000000D+00  0.0000000000000D+00
287  2.8600000000000D+00  0.0000000000000D+00  0.0000000000000D+00
288  2.8700000000000D+00  0.0000000000000D+00  0.0000000000000D+00
289  2.8800000000000D+00  0.0000000000000D+00  0.0000000000000D+00
290  2.8900000000000D+00  0.0000000000000D+00  0.0000000000000D+00
291  2.9000000000000D+00  0.0000000000000D+00  0.0000000000000D+00
292  2.9100000000000D+00  0.0000000000000D+00  0.0000000000000D+00
293  2.9200000000000D+00  0.0000000000000D+00  0.0000000000000D+00
294  2.9300000000000D+00  0.0000000000000D+00  0.0000000000000D+00
295  2.9400000000000D+00  0.0000000000000D+00  0.0000000000000D+00
296  2.9500000000000D+00  0.0000000000000D+00  0.0000000000000D+00
297  2.9600000000000D+00  0.0000000000000D+00  0.0000000000000D+00
298  2.9700000000000D+00  0.0000000000000D+00  0.0000000000000D+00
299  2.9800000000000D+00  0.0000000000000D+00  0.0000000000000D+00
300  2.9900000000000D+00  0.0000000000000D+00  0.0000000000000D+00
301  3.0000000000000D+00  0.0000000000000D+00  0.0000000000000D+00
302  3.0100000000000D+00  0.0000000000000D+00  0.0000000000000D+00
303  3.0200000000000D+00  0.0000000000000D+00  0.0000000000000D+00
304  3.0300000000000D+00  0.0000000000000D+00  0.0000000000000D+00
305  3.0400000000000D+00  0.0000000000000D+00  0.0000000000000D+00
306  3.0500000000000D+00  0.0000000000000D+00  0.0000000000000D+00
307  3.0600000000000D+00  0.0000000000000D+00  0.0000000000000D+00
308  3.0700000000000D+00  0.0000000000000D+00  0.0000000000000D+00
309  3.0800000000000D+00  0.0000000000000D+00  0.0000000000000D+00
310  3.0900000000000D+00  0.0000000000000D+00  0.0000000000000D+00
311  3.1000000000000D+00  0.0000000000000D+00  0.0000000000000D+00
312  3.1100000000000D+00  0.0000000000000D+00  0.0000000000000D+00
313  3.1200000000000D+00  0.0000000000000D+00  0.0000000000000D+00
314  3.1300000000000D+00  0.0000000000000D+00  0.0000000000000D+00
315  3.1400000000000D+00  0.0000000000000D+00  0.0000000000000D+00
316  3.1500000000000D+00  0.0000000000000D+00  0.0000000000000D+00
317  3.1600000000000D+00  0.0000000000000D+00  0.0000000000000D+00
318  3.1700000000000D+00  0.0000000000000D+00  0.0000000000000D+00
319  3.1800000000000D+00  0.0000000000000D+00  0.0000000000000D+00
320  3.1900000000000D+00  0.0000000000000D+00  0.0000000000000D+00
321  3.2000000000000D+00  0.0000000000000D+00  0.0000000000000D+00
322  3.2100000000000D+00  0.0000000000000D+00  0.0000000000000D+00
323  3.2200000000000D+00  0.0000000000000D+00  0.0000000000000D+00
324  3.2300000000000D+00  0.0000000000000D+00  0.0000000000000D+00
325  3.2400000000000D+00  0.0000000000000D+00  0.0000000000000D+00
326  3.2500000000000D+00  0.0000000000000D+00  0.0000000000000D+00
327  3.2600000000000D+00  0.0000000000000D+00  0.0000000000000D+00
328  3.2700000000000D+00  0.0000000000000D+00  0.0000000000000D+00
329  3.2800000000000D+00  0.0000000000000D+00  0.0000000000000D+00
330  3.2900000000000D+00  0.0000000000000D+00  0.0000000000000D+00
331  3.3000000000000D+00  0.0000000000000D+00  0.0000000000000D+00
332  3.3100000000000D+00  0.0000000000000D+00  0.0000000000000D+00
333  3.3200000000000D+00  0.0000000000000D+00  0.0000000000000D+00
334  3.3300000000000D+00  0.0000000000000D+00  0.0000000000000D+00
335  3.3400000000000D+00  0.0000000000000D+00  0.0000000000000D+00
336  3.3500000000000D+00  0.0000000000000D+00  0.0000000000000D+00
337  3.3600000000000D+00  0.0000000000000D+00  0.0000000000000D+00
338  3.3700000000000D+00  0.0000000000000D+00  0.0000000000000D+00
339  3.3800000000000D+00  0.0000000000000D+00  0.0000000000000D+00
340  3.3900000000000D+00  0.0000000000000D+00  0.0000000000000D+00
341  3.4000000000000D+00  0.0000000000000D+00  0.0000000000000D+00
342  3.4100000000000D+00  0.0000000000000D+00  0.0000000000000D+00
343  3.4200000000000D+00  0.0000000000000D+00  0.0000000000000D+00
344  3.4300000000000D+00  0.0000000000000D+00  0.0000000000000D+00
345  3.4400000000000D+00  0.0000000000000D+00  0.0000000000000D+00
346  3.4500000000000D+00  0.0000000000000D+00  0.0000000000000D+00
347  3.4600000000000D+00  0.0000000000000D+00  0.0000000000000D+00
348  3.4700000000000D+00  0.0000000000000D+00  0.0000000000000D+00
349  3.4800000000000D+00  0.0000000000000D+00  0.0000000000000D+00
350  3.4900000000000D+00  0.0000000000000D+00  0.0000000000000D+00
351  3.5000000000000D+00  0.0000000000000D+00  0.0000000000000D+00
352  3.5100000000000D+00  0.0000000000000D+00  0.0000000000000D+00
353  3.5200000000000D+00  0.0000000000000D+00  0.0000000000000D+00
354  3.5300000000000D+00  0.0000000000000D+00  0.0000000000000D+00
355  3.5400000000000D+00  0.0000000000000D+00  0.0000000000000D+00
356  3.5500000000000D+00  0.0000000000000D+00  0.0000000000000D+00
357  3.5600000000000D+00  0.0000000000000D+00  0.0000000000000D+00
358  3.5700000000000D+00  0.0000000000000D+00  0.0000000000000D+00
359  3.5800000000000D+00  0.0000000000000D+00  0.0000000000000D+00
360  3.5900000000000D+00  0.0000000000000D+00  0.0000000000000D+00
361  3.6000000000000D+00  0.0000000000000D+00  0.0000000000000D+00
362  3.6100000000000D+00  0.0000000000000D+00  0.0000000000000D+00
363  3.6200000000000D+00  0.0000000000000D+00  0.0000000000000D+00
364  3.6300000000000D+00  0.0000000000000D+00  0.0000000000000D+00
365  3.6400000000000D+00  0.0000000000000D+00  0.0000000000000D+00
366  3.6500000000000D+00  0.0000000000000D+00  0.0000000000000D+00
367  3.6600000000000D+00  0.0000000000000D+00  0.0000000000000D+00
368  3.6700000000000D+00  0.0000000000000D+00  0.0000000000000D+00
369  3.6800000000000D+00  0.0000000000000D+00  0.0000000000000D+00
370  3.6900000000000D+00  0.0000000000000D+00  0.0000000000000D+00
371  3.7000000000000D+00  0.0000000000000D+00  0.0000000000000D+00
372  3.7100000000000D+00  0.0000000000000D+00  0.0000000000000D+00
373  3.7200000000000D+00  0.0000000000000D+00  0.0000000000000D+00
374  3.7300000000000D+00  0.0000000000000D+00  0.0000000000000D+00
375  3.7400000000000D+00  0.0000000000000D+00  0.0000000000000D+00
376  3.7500000000000D+00  0.0000000000000D+00  0.0000000000000D+00
377  3.7600000000000D+00  0.0000000000000D+00  0.0000000000000D+00
378  3.7700000000000D+00  0.0000000000000D+00  0.0000000000000D+00
379  3.7800000000000D+00  0.0000000000000D+00  0.0000000000000D+00
380  3.7900000000000D+00  0.0000000000000D+00  0.0000000000000D+00
381  3.8000000000000D+00  0.0000000000000D+00  0.0000000000000D+00
382  3.8100000000000D+00  0.0000000000000D+00  0.0000000000000D+00
383  3.8200000000000D+00  0.0000000000000D+00  0.0000000000000D+00
384  3.8300000000000D+00  0.0000000000000D+00  0.0000000000000D+00
385  3.8400000000000D+00  0.0000000000000D+00  0.0000000000000D+00
386  3.8500000000000D+00  0.0000000000000D+00  0.0000000000000D+00
387  3.8600000000000D+00  0.0000000000000D+00  0.0000000000000D+00
388  3.8700000000000D+00  0.0000000000000D+00  0.0000000000000D+00
389  3.8800000000000D+00  0.0000000000000D+00  0.0000000000000D+00
390  3.8900000000000D+00  0.0000000000000D+00  0.0000000000000D+00
391  3.9000000000000D+00  0.0000000000000D+00  0.0000000000000D+00
392  3.9100000000000D+00  0.0000000000000D+00  0.0000000000000D+00
393  3.9200000000000D+00  0.0000000000000D+00  0.0000000000000D+00
394  3.9300000000000D+00  0.0000000000000D+00  0.0000000000000D+00
395  3.9400000000000D+00  0.0000000000000D+00  0.0000000000000D+00
396  3.9500000000000D+00  0.0000000000000D+00  0.0000000000000D+00
397  3.9600000000000D+00  0.0000000000000D+00  0.0000000000000D+00
398  3.9700000000000D+00  0.0000000000000D+00  0.0000000000000D+00
399  3.9800000000000D+00  0.0000000000000D+00  0.0000000000000D+00
400  3.9900000000000D+00  0.0000000000000D+00  0.0000000000000D+00
401  4.0000000000000D+00  0.0000000000000D+00  0.0000000000000D+00
402  4.0100000000000D+00  0.0000000000000D+00  0.0000000000000D+00
403  4.0200000000000D+00  0.0000000000000D+00  0.0000000000000D+00
404  4.0300000000000D+00  0.0000000000000D+00  0.0000000000000D+00
405  4.0400000000000D+00  0.0000000000000D+00  0.0000000000000D+00
406  4.0500000000000D+00  0.0000000000000D+00  0.0000000000000D+00
407  4.0600000000000D+00  0.0000000000000D+00  0.0000000000000D+00
408  4.0700000000000D+00  0.0000000000000D+00  0.0000000000000D+00
409  4.0800000000000D+00  0.0000000000000D+00  0.0000000000000D+00
410  4.0900000000000D+00  0.0000000000000D+00  0.0000000000000D+00
411  4.1000000000000D+00  0.0000000000000D+00  0.0000000000000D+00
412  4.1100000000000D+00  0.0000000000000D+00  0.0000000000000D+00
413  4.1200000000000D+00  0.0000000000000D+00  0.0000000000000D+00
414  4.1300000000000D+00  0.0000000000000D+00  0.0000000000000D+00
415  4.1400000000000D+00  0.0000000000000D+00  0.0000000000000D+00
416  4.1500000000000D+00  0.0000000000000D+00  0.0000000000000D+00
417  4.1600000000000D+00  0.0000000000000D+00  0.0000000000000D+00
418  4.1700000000000D+00  0.0000000000000D+00  0.0000000000000D+00
419  4.1800000000000D+00  0.0000000000000D+00  0.0000000000000D+00
420  4.1900000000000D+00  0.0000000000000D+00  0.0000000000000D+00
421  4.2000000000000D+00  0.0000000000000D+00  0.0000000000000D+00
422  4.2100000000000D+00  0.0000000000000D+00  0.0000000000000D+00
423  4.2200000000000D+00  0.0000000000000D+00  0.0000000000000D+00
424  4.2300000000000D+00  0.0000000000000D+00  0.0000000000000D+00
425  4.2400000000000D+00  0.0000000000000D+00  0.0000000000000D+00
426  4.2500000000000D+00  0.0000000000000D+00  0.0000000000000D+00
427  4.2600000000000D+00  0.0000000000000D+00  0.0000000000000D+00
428  4.2700000000000D+00  0.0000000000000D+00  0.0000000000000D+00
429  4.2800000000000D+00  0.0000000000000D+00  0.0000000000000D+00
430  4.2900000000000D+00  0.0000000000000D+00  0.0000000000000D+00
431  4.3000000000000D+00  0.0000000000000D+00  0.0000000000000D+00
432  4.3100000000000D+00  0.0000000000000D+00  0.0000000000000D+00
433  4.3200000000000D+00  0.0000000000000D+00  0.0000000000000D+00
434  4.3300000000000D+00  0.0000000000000D+00  0.0000000000000D+00
435  4.3400000000000D+00  0.0000000000000D+00  0.0000000000000D+00
436  4.3500000000000D+00  0.0000000000000D+00  0.0000000000000D+00
437  4.3600000000000D+00  0.0000000000000D+00  0.0000000000000D+00
438  4.3700000000000D+00  0.0000000000000D+00  0.0000000000000D+00
439  4.3800000000000D+00  0.0000000000000D+00  0.0000000000000D+00
440  4.3900000000000D+00  0.0000000000000D+00  0.0000000000000D+00
441  4.4000000000000D+00  0.0000000000000D+00  0.0000000000000D+00
442  4.4100000000000D+00  0.0000000000000D+00  0.0000000000000D+00
443  4.4200000000000D+00  0.0000000000000D+00  0.0000000000000D+00
444  4.4300000000000D+00  0.0000000000000D+00  0.0000000000000D+00