Cl    ONCVPSP-3.2.3.1  r_core=   1.40128   1.56009   1.80017
17.0000     15.0000      170504    zatom,zion,pspd
8      11   2     4   600     0    pspcod,pspxc,lmax,lloc,mmax,r2well
5.99000000  0.00000000  0.00000000    rchrg fchrg qchrg
2     2     2     0     0    nproj
1     1           extension_switch
0                        -7.9616851413612D+00 -1.8535189584591D+00
1  0.0000000000000D+00 -1.0242473535982D-10  1.0658233184913D-09
2  1.0000000000000D-02  7.9382094755256D-02 -6.4846920858766D-02
3  2.0000000000000D-02  1.5856788558223D-01 -1.2931235257626D-01
4  3.0000000000000D-02  2.3736176129326D-01 -1.9301722275103D-01
5  4.0000000000000D-02  3.1556949280206D-01 -2.5558727053740D-01
6  5.0000000000000D-02  3.9299891575128D-01 -3.1665539789029D-01
7  6.0000000000000D-02  4.6946060310576D-01 -3.7586395614063D-01
8  7.0000000000000D-02  5.4476852448870D-01 -4.3286694761629D-01
9  8.0000000000000D-02  6.1874068913998D-01 -4.8733212308966D-01
10  9.0000000000000D-02  6.9119976950191D-01 -5.3894295713504D-01
11  1.0000000000000D-01  7.6197370258493D-01 -5.8740048499969D-01
12  1.1000000000000D-01  8.3089626643304D-01 -6.3242498630750D-01
13  1.2000000000000D-01  8.9780762919449D-01 -6.7375750280005D-01
14  1.3000000000000D-01  9.6255486850388D-01 -7.1116117934811D-01
15  1.4000000000000D-01  1.0249924590967D+00 -7.4442241960749D-01
16  1.5000000000000D-01  1.0849827268024D+00 -7.7335184991659D-01
17  1.6000000000000D-01  1.1423962672962D+00 -7.9778508730458D-01
18  1.7000000000000D-01  1.1971123282292D+00 -8.1758330976877D-01
19  1.8000000000000D-01  1.2490191535975D+00 -8.3263362925137D-01
20  1.9000000000000D-01  1.2980142894571D+00 -8.4284926996960D-01
21  2.0000000000000D-01  1.3440048503269D+00 -8.4816955689502D-01
22  2.1000000000000D-01  1.3869077458637D+00 -8.4855972120962D-01
23  2.2000000000000D-01  1.4266498676167D+00 -8.4401053145751D-01
24  2.3000000000000D-01  1.4631682358928D+00 -8.3453776083707D-01
25  2.4000000000000D-01  1.4964101069695D+00 -8.2018150261520D-01
26  2.5000000000000D-01  1.5263330410892D+00 -8.0100534697207D-01
27  2.6000000000000D-01  1.5529049318500D+00 -7.7709543368579D-01
28  2.7000000000000D-01  1.5761039977711D+00 -7.4855939592661D-01
29  2.8000000000000D-01  1.5959187369627D+00 -7.1552521104176D-01
30  2.9000000000000D-01  1.6123478459587D+00 -6.7813997456844D-01
31  3.0000000000000D-01  1.6254001038858D+00 -6.3656861381260D-01
32  3.1000000000000D-01  1.6350942232375D+00 -5.9099255717822D-01
33  3.2000000000000D-01  1.6414586685996D+00 -5.4160837503159D-01
34  3.3000000000000D-01  1.6445314447361D+00 -4.8862640725009D-01
35  3.4000000000000D-01  1.6443598554868D+00 -4.3226939174775D-01
36  3.5000000000000D-01  1.6410002349609D+00 -3.7277110721044D-01
37  3.6000000000000D-01  1.6345176525233D+00 -3.1037504203219D-01
38  3.7000000000000D-01  1.6249855930765D+00 -2.4533310004580D-01
39  3.8000000000000D-01  1.6124856141312D+00 -1.7790435211206D-01
40  3.9000000000000D-01  1.5971069811440D+00 -1.0835384100237D-01
41  4.0000000000000D-01  1.5789462825761D+00 -3.6951445308714D-02
42  4.1000000000000D-01  1.5581070260981D+00  3.6029193624069D-02
43  4.2000000000000D-01  1.5346992173359D+00  1.1031167949438D-01
44  4.3000000000000D-01  1.5088389225175D+00  1.8561780303902D-01
45  4.4000000000000D-01  1.4806478163507D+00  2.6166841935954D-01
46  4.5000000000000D-01  1.4502527164308D+00  3.3818426328520D-01
47  4.6000000000000D-01  1.4177851054546D+00  4.1488670693240D-01
48  4.7000000000000D-01  1.3833806424948D+00  4.9149846493007D-01
49  4.8000000000000D-01  1.3471786645815D+00  5.6774425391925D-01
50  4.9000000000000D-01  1.3093216798308D+00  6.4335141388245D-01
51  5.0000000000000D-01  1.2699548533685D+00  7.1805049959456D-01
52  5.1000000000000D-01  1.2292254873131D+00  7.9157585099887D-01
53  5.2000000000000D-01  1.1872824961077D+00  8.6366615158733D-01
54  5.3000000000000D-01  1.1442758785277D+00  9.3406498389746D-01
55  5.4000000000000D-01  1.1003561877378D+00  1.0025213910272D+00
56  5.5000000000000D-01  1.0556740008257D+00  1.0687904526164D+00
57  5.6000000000000D-01  1.0103793893072D+00  1.1326338830553D+00
58  5.7000000000000D-01  9.6462139216520D-01  1.1938206587675D+00
59  5.8000000000000D-01  9.1854749306307D-01  1.2521276802959D+00
60  5.9000000000000D-01  8.7230310345415D-01  1.3073404736106D+00
61  6.0000000000000D-01  8.2603105338941D-01  1.3592539335800D+00
62  6.1000000000000D-01  7.7987109190834D-01  1.4076731109390D+00
63  6.2000000000000D-01  7.3395939897653D-01  1.4524140423581D+00
64  6.3000000000000D-01  6.8842811100692D-01  1.4933046214250D+00
65  6.4000000000000D-01  6.4340486206739D-01  1.5301855065044D+00
66  6.5000000000000D-01  5.9901234293262D-01  1.5629110595932D+00
67  6.6000000000000D-01  5.5536788017993D-01  1.5913503084752D+00
68  6.7000000000000D-01  5.1258303755575D-01  1.6153879227219D+00
69  6.8000000000000D-01  4.7076324184747D-01  1.6349251924410D+00
70  6.9000000000000D-01  4.3000743548409D-01  1.6498809971655D+00
71  7.0000000000000D-01  3.9040775805518D-01  1.6601927509399D+00
72  7.1000000000000D-01  3.5204925887984D-01  1.6658173085246D+00
73  7.2000000000000D-01  3.1500964267435D-01  1.6667318167450D+00
74  7.3000000000000D-01  2.7935905025739D-01  1.6629344943648D+00
75  7.4000000000000D-01  2.4515987609590D-01  1.6544453235075D+00
76  7.5000000000000D-01  2.1246662432938D-01  1.6413066355782D+00
77  7.6000000000000D-01  1.8132580472011D-01  1.6235835748869D+00
78  7.7000000000000D-01  1.5177586975820D-01  1.6013644237312D+00
79  7.8000000000000D-01  1.2384719390688D-01  1.5747607735760D+00
80  7.9000000000000D-01  9.7562095705899D-02  1.5439075281602D+00
81  8.0000000000000D-01  7.2934903160516D-02  1.5089627258612D+00
82  8.1000000000000D-01  4.9972062534350D-02  1.4701071704385D+00
83  8.2000000000000D-01  2.8672290337317D-02  1.4275438613424D+00
84  8.3000000000000D-01  9.0267679603823D-03  1.3814972170831D+00
85  8.4000000000000D-01 -8.9806219427284D-03  1.3322120876925D+00
86  8.5000000000000D-01 -2.5373018582421D-02  1.2799525550184D+00
87  8.6000000000000D-01 -4.0180267283512D-02  1.2250005224595D+00
88  8.7000000000000D-01 -5.3438566830046D-02  1.1676540987129D+00
89  8.8000000000000D-01 -6.5190082225607D-02  1.1082257831393D+00
90  8.9000000000000D-01 -7.5482525528252D-02  1.0470404633929D+00
91  9.0000000000000D-01 -8.4368707742486D-02  9.8443323898594D-01
92  9.1000000000000D-01 -9.1906065050392D-02  9.2074708737177D-01
93  9.2000000000000D-01 -9.8156162943650D-02  8.5633039195969D-01
94  9.3000000000000D-01 -1.0318418206379D-01  7.9153435408753D-01
95  9.4000000000000D-01 -1.0705838977318D-01  7.2671031339165D-01
96  9.5000000000000D-01 -1.0984960165665D-01  6.6220700315588D-01
97  9.6000000000000D-01 -1.1163063729081D-01  5.9836776905885D-01
98  9.7000000000000D-01 -1.1247577471254D-01  5.3552778123455D-01
99  9.8000000000000D-01 -1.1246020806700D-01  4.7401127068347D-01
100  9.9000000000000D-01 -1.1165951291797D-01  4.1412882179629D-01
101  1.0000000000000D+00 -1.1014912365341D-01  3.5617475303428D-01
102  1.0100000000000D+00 -1.0800382733039D-01  3.0042461770147D-01
103  1.0200000000000D+00 -1.0529727815319D-01  2.4713285613994D-01
104  1.0300000000000D+00 -1.0210153658856D-01  1.9653062964809D-01
105  1.0400000000000D+00 -9.8486636883161D-02  1.4882386494951D-01
106  1.0500000000000D+00 -9.4520186467832D-02  1.0419153615503D-01
107  1.0600000000000D+00 -9.0267000386569D-02  6.2784208669181D-02
108  1.0700000000000D+00 -8.5788773574311D-02  2.4722867169214D-02
109  1.0800000000000D+00 -8.1143793347231D-02 -9.9019537616693D-03
110  1.0900000000000D+00 -7.6386694082539D-02 -4.1030720838594D-02
111  1.1000000000000D+00 -7.1568255590229D-02 -6.8635123438996D-02
112  1.1100000000000D+00 -6.6735246199726D-02 -9.2717957406482D-02
113  1.1200000000000D+00 -6.1930311145760D-02 -1.1331266722743D-01
114  1.1300000000000D+00 -5.7191906255711D-02 -1.3048254745162D-01
115  1.1400000000000D+00 -5.2554276506692D-02 -1.4431960795811D-01
116  1.1500000000000D+00 -4.8047478471026D-02 -1.5494311242919D-01
117  1.1600000000000D+00 -4.3697445290215D-02 -1.6249780268978D-01
118  1.1700000000000D+00 -3.9526092194514D-02 -1.6715182705962D-01
119  1.1800000000000D+00 -3.5551460384188D-02 -1.6909439217278D-01
120  1.1900000000000D+00 -3.1787896212072D-02 -1.6853316719548D-01
121  1.2000000000000D+00 -2.8246260476658D-02 -1.6569149247099D-01
122  1.2100000000000D+00 -2.4934170948636D-02 -1.6080534767238D-01
123  1.2200000000000D+00 -2.1856281934931D-02 -1.5412001473161D-01
124  1.2300000000000D+00 -1.9014429880638D-02 -1.4588850935739D-01
125  1.2400000000000D+00 -1.6407786553852D-02 -1.3636998520363D-01
126  1.2500000000000D+00 -1.4033032752995D-02 -1.2582794996680D-01
127  1.2600000000000D+00 -1.1884691708346D-02 -1.1452663069803D-01
128  1.2700000000000D+00 -9.9554474891836D-03 -1.0272761690776D-01
129  1.2800000000000D+00 -8.2364629478673D-03 -9.0686594558292D-02
130  1.2900000000000D+00 -6.7176963726221D-03 -7.8650160120378D-02
131  1.3000000000000D+00 -5.3882105217153D-03 -6.6852778585090D-02
132  1.3100000000000D+00 -4.2364693188615D-03 -5.5513928914976D-02
133  1.3200000000000D+00 -3.2506179689289D-03 -4.4835474227816D-02
134  1.3300000000000D+00 -2.4187427862276D-03 -3.4999289447003D-02
135  1.3400000000000D+00 -1.7291075377737D-03 -2.6165174457330D-02
136  1.3500000000000D+00 -1.1703627108653D-03 -1.8469084409728D-02
137  1.3600000000000D+00 -7.3192620450260D-04 -1.2025735599143D-02
138  1.3700000000000D+00 -4.0278653274841D-04 -6.9000488254909D-03
139  1.3800000000000D+00 -1.7427419110912D-04 -3.1607573641985D-03
140  1.3900000000000D+00 -4.2811525957371D-05 -9.4187992745435D-04
141  1.4000000000000D+00  8.4822482239874D-06 -3.4072270684774D-05
142  1.4100000000000D+00  1.0107215038237D-05  9.5481107665168D-05
143  1.4200000000000D+00 -1.2720277733760D-06 -1.3649443852776D-05
144  1.4300000000000D+00 -2.0450488421458D-06 -2.3353918986583D-05
145  1.4400000000000D+00  4.8346387564384D-07  4.8560996513896D-06
146  1.4500000000000D+00  2.1907088837913D-07  2.2625435528206D-06
147  1.4600000000000D+00 -3.0380299729771D-08 -3.8003455676461D-08
148  1.4700000000000D+00  0.0000000000000D+00  0.0000000000000D+00
149  1.4800000000000D+00  0.0000000000000D+00  0.0000000000000D+00
150  1.4900000000000D+00  0.0000000000000D+00  0.0000000000000D+00
151  1.5000000000000D+00  0.0000000000000D+00  0.0000000000000D+00
152  1.5100000000000D+00  0.0000000000000D+00  0.0000000000000D+00
153  1.5200000000000D+00  0.0000000000000D+00  0.0000000000000D+00
154  1.5300000000000D+00  0.0000000000000D+00  0.0000000000000D+00
155  1.5400000000000D+00  0.0000000000000D+00  0.0000000000000D+00
156  1.5500000000000D+00  0.0000000000000D+00  0.0000000000000D+00
157  1.5600000000000D+00  0.0000000000000D+00  0.0000000000000D+00
158  1.5700000000000D+00  0.0000000000000D+00  0.0000000000000D+00
159  1.5800000000000D+00  0.0000000000000D+00  0.0000000000000D+00
160  1.5900000000000D+00  0.0000000000000D+00  0.0000000000000D+00
161  1.6000000000000D+00  0.0000000000000D+00  0.0000000000000D+00
162  1.6100000000000D+00  0.0000000000000D+00  0.0000000000000D+00
163  1.6200000000000D+00  0.0000000000000D+00  0.0000000000000D+00
164  1.6300000000000D+00  0.0000000000000D+00  0.0000000000000D+00
165  1.6400000000000D+00  0.0000000000000D+00  0.0000000000000D+00
166  1.6500000000000D+00  0.0000000000000D+00  0.0000000000000D+00
167  1.6600000000000D+00  0.0000000000000D+00  0.0000000000000D+00
168  1.6700000000000D+00  0.0000000000000D+00  0.0000000000000D+00
169  1.6800000000000D+00  0.0000000000000D+00  0.0000000000000D+00
170  1.6900000000000D+00  0.0000000000000D+00  0.0000000000000D+00
171  1.7000000000000D+00  0.0000000000000D+00  0.0000000000000D+00
172  1.7100000000000D+00  0.0000000000000D+00  0.0000000000000D+00
173  1.7200000000000D+00  0.0000000000000D+00  0.0000000000000D+00
174  1.7300000000000D+00  0.0000000000000D+00  0.0000000000000D+00
175  1.7400000000000D+00  0.0000000000000D+00  0.0000000000000D+00
176  1.7500000000000D+00  0.0000000000000D+00  0.0000000000000D+00
177  1.7600000000000D+00  0.0000000000000D+00  0.0000000000000D+00
178  1.7700000000000D+00  0.0000000000000D+00  0.0000000000000D+00
179  1.7800000000000D+00  0.0000000000000D+00  0.0000000000000D+00
180  1.7900000000000D+00  0.0000000000000D+00  0.0000000000000D+00
181  1.8000000000000D+00  0.0000000000000D+00  0.0000000000000D+00
182  1.8100000000000D+00  0.0000000000000D+00  0.0000000000000D+00
183  1.8200000000000D+00  0.0000000000000D+00  0.0000000000000D+00
184  1.8300000000000D+00  0.0000000000000D+00  0.0000000000000D+00
185  1.8400000000000D+00  0.0000000000000D+00  0.0000000000000D+00
186  1.8500000000000D+00  0.0000000000000D+00  0.0000000000000D+00
187  1.8600000000000D+00  0.0000000000000D+00  0.0000000000000D+00
188  1.8700000000000D+00  0.0000000000000D+00  0.0000000000000D+00
189  1.8800000000000D+00  0.0000000000000D+00  0.0000000000000D+00
190  1.8900000000000D+00  0.0000000000000D+00  0.0000000000000D+00
191  1.9000000000000D+00  0.0000000000000D+00  0.0000000000000D+00
192  1.9100000000000D+00  0.0000000000000D+00  0.0000000000000D+00
193  1.9200000000000D+00  0.0000000000000D+00  0.0000000000000D+00
194  1.9300000000000D+00  0.0000000000000D+00  0.0000000000000D+00
195  1.9400000000000D+00  0.0000000000000D+00  0.0000000000000D+00
196  1.9500000000000D+00  0.0000000000000D+00  0.0000000000000D+00
197  1.9600000000000D+00  0.0000000000000D+00  0.0000000000000D+00
198  1.9700000000000D+00  0.0000000000000D+00  0.0000000000000D+00
199  1.9800000000000D+00  0.0000000000000D+00  0.0000000000000D+00
200  1.9900000000000D+00  0.0000000000000D+00  0.0000000000000D+00
201  2.0000000000000D+00  0.0000000000000D+00  0.0000000000000D+00
202  2.0100000000000D+00  0.0000000000000D+00  0.0000000000000D+00
203  2.0200000000000D+00  0.0000000000000D+00  0.0000000000000D+00
204  2.0300000000000D+00  0.0000000000000D+00  0.0000000000000D+00
205  2.0400000000000D+00  0.0000000000000D+00  0.0000000000000D+00
206  2.0500000000000D+00  0.0000000000000D+00  0.0000000000000D+00
207  2.0600000000000D+00  0.0000000000000D+00  0.0000000000000D+00
208  2.0700000000000D+00  0.0000000000000D+00  0.0000000000000D+00
209  2.0800000000000D+00  0.0000000000000D+00  0.0000000000000D+00
210  2.0900000000000D+00  0.0000000000000D+00  0.0000000000000D+00
211  2.1000000000000D+00  0.0000000000000D+00  0.0000000000000D+00
212  2.1100000000000D+00  0.0000000000000D+00  0.0000000000000D+00
213  2.1200000000000D+00  0.0000000000000D+00  0.0000000000000D+00
214  2.1300000000000D+00  0.0000000000000D+00  0.0000000000000D+00
215  2.1400000000000D+00  0.0000000000000D+00  0.0000000000000D+00
216  2.1500000000000D+00  0.0000000000000D+00  0.0000000000000D+00
217  2.1600000000000D+00  0.0000000000000D+00  0.0000000000000D+00
218  2.1700000000000D+00  0.0000000000000D+00  0.0000000000000D+00
219  2.1800000000000D+00  0.0000000000000D+00  0.0000000000000D+00
220  2.1900000000000D+00  0.0000000000000D+00  0.0000000000000D+00
221  2.2000000000000D+00  0.0000000000000D+00  0.0000000000000D+00
222  2.2100000000000D+00  0.0000000000000D+00  0.0000000000000D+00
223  2.2200000000000D+00  0.0000000000000D+00  0.0000000000000D+00
224  2.2300000000000D+00  0.0000000000000D+00  0.0000000000000D+00
225  2.2400000000000D+00  0.0000000000000D+00  0.0000000000000D+00
226  2.2500000000000D+00  0.0000000000000D+00  0.0000000000000D+00
227  2.2600000000000D+00  0.0000000000000D+00  0.0000000000000D+00
228  2.2700000000000D+00  0.0000000000000D+00  0.0000000000000D+00
229  2.2800000000000D+00  0.0000000000000D+00  0.0000000000000D+00
230  2.2900000000000D+00  0.0000000000000D+00  0.0000000000000D+00
231  2.3000000000000D+00  0.0000000000000D+00  0.0000000000000D+00
232  2.3100000000000D+00  0.0000000000000D+00  0.0000000000000D+00
233  2.3200000000000D+00  0.0000000000000D+00  0.0000000000000D+00
234  2.3300000000000D+00  0.0000000000000D+00  0.0000000000000D+00
235  2.3400000000000D+00  0.0000000000000D+00  0.0000000000000D+00
236  2.3500000000000D+00  0.0000000000000D+00  0.0000000000000D+00
237  2.3600000000000D+00  0.0000000000000D+00  0.0000000000000D+00
238  2.3700000000000D+00  0.0000000000000D+00  0.0000000000000D+00
239  2.3800000000000D+00  0.0000000000000D+00  0.0000000000000D+00
240  2.3900000000000D+00  0.0000000000000D+00  0.0000000000000D+00
241  2.4000000000000D+00  0.0000000000000D+00  0.0000000000000D+00
242  2.4100000000000D+00  0.0000000000000D+00  0.0000000000000D+00
243  2.4200000000000D+00  0.0000000000000D+00  0.0000000000000D+00
244  2.4300000000000D+00  0.0000000000000D+00  0.0000000000000D+00
245  2.4400000000000D+00  0.0000000000000D+00  0.0000000000000D+00
246  2.4500000000000D+00  0.0000000000000D+00  0.0000000000000D+00
247  2.4600000000000D+00  0.0000000000000D+00  0.0000000000000D+00
248  2.4700000000000D+00  0.0000000000000D+00  0.0000000000000D+00
249  2.4800000000000D+00  0.0000000000000D+00  0.0000000000000D+00
250  2.4900000000000D+00  0.0000000000000D+00  0.0000000000000D+00
251  2.5000000000000D+00  0.0000000000000D+00  0.0000000000000D+00
252  2.5100000000000D+00  0.0000000000000D+00  0.0000000000000D+00
253  2.5200000000000D+00  0.0000000000000D+00  0.0000000000000D+00
254  2.5300000000000D+00  0.0000000000000D+00  0.0000000000000D+00
255  2.5400000000000D+00  0.0000000000000D+00  0.0000000000000D+00
256  2.5500000000000D+00  0.0000000000000D+00  0.0000000000000D+00
257  2.5600000000000D+00  0.0000000000000D+00  0.0000000000000D+00
258  2.5700000000000D+00  0.0000000000000D+00  0.0000000000000D+00
259  2.5800000000000D+00  0.0000000000000D+00  0.0000000000000D+00
260  2.5900000000000D+00  0.0000000000000D+00  0.0000000000000D+00
261  2.6000000000000D+00  0.0000000000000D+00  0.0000000000000D+00
262  2.6100000000000D+00  0.0000000000000D+00  0.0000000000000D+00
263  2.6200000000000D+00  0.0000000000000D+00  0.0000000000000D+00
264  2.6300000000000D+00  0.0000000000000D+00  0.0000000000000D+00
265  2.6400000000000D+00  0.0000000000000D+00  0.0000000000000D+00
266  2.6500000000000D+00  0.0000000000000D+00  0.0000000000000D+00
267  2.6600000000000D+00  0.0000000000000D+00  0.0000000000000D+00
268  2.6700000000000D+00  0.0000000000000D+00  0.0000000000000D+00
269  2.6800000000000D+00  0.0000000000000D+00  0.0000000000000D+00
270  2.6900000000000D+00  0.0000000000000D+00  0.0000000000000D+00
271  2.7000000000000D+00  0.0000000000000D+00  0.0000000000000D+00
272  2.7100000000000D+00  0.0000000000000D+00  0.0000000000000D+00
273  2.7200000000000D+00  0.0000000000000D+00  0.0000000000000D+00
274  2.7300000000000D+00  0.0000000000000D+00  0.0000000000000D+00
275  2.7400000000000D+00  0.0000000000000D+00  0.0000000000000D+00
276  2.7500000000000D+00  0.0000000000000D+00  0.0000000000000D+00
277  2.7600000000000D+00  0.0000000000000D+00  0.0000000000000D+00
278  2.7700000000000D+00  0.0000000000000D+00  0.0000000000000D+00
279  2.7800000000000D+00  0.0000000000000D+00  0.0000000000000D+00
280  2.7900000000000D+00  0.0000000000000D+00  0.0000000000000D+00
281  2.8000000000000D+00  0.0000000000000D+00  0.0000000000000D+00
282  2.8100000000000D+00  0.0000000000000D+00  0.0000000000000D+00
283  2.8200000000000D+00  0.0000000000000D+00  0.0000000000000D+00
284  2.8300000000000D+00  0.0000000000000D+00  0.0000000000000D+00
285  2.8400000000000D+00  0.0000000000000D+00  0.0000000000000D+00
286  2.8500000000000D+00  0.0000000000000D+00  0.0000000000000D+00
287  2.8600000000000D+00  0.0000000000000D+00  0.0000000000000D+00
288  2.8700000000000D+00  0.0000000000000D+00  0.0000000000000D+00
289  2.8800000000000D+00  0.0000000000000D+00  0.0000000000000D+00
290  2.8900000000000D+00  0.0000000000000D+00  0.0000000000000D+00
291  2.9000000000000D+00  0.0000000000000D+00  0.0000000000000D+00
292  2.9100000000000D+00  0.0000000000000D+00  0.0000000000000D+00
293  2.9200000000000D+00  0.0000000000000D+00  0.0000000000000D+00
294  2.9300000000000D+00  0.0000000000000D+00  0.0000000000000D+00
295  2.9400000000000D+00  0.0000000000000D+00  0.0000000000000D+00
296  2.9500000000000D+00  0.0000000000000D+00  0.0000000000000D+00
297  2.9600000000000D+00  0.0000000000000D+00  0.0000000000000D+00
298  2.9700000000000D+00  0.0000000000000D+00  0.0000000000000D+00
299  2.9800000000000D+00  0.0000000000000D+00  0.0000000000000D+00
300  2.9900000000000D+00  0.0000000000000D+00  0.0000000000000D+00
301  3.0000000000000D+00  0.0000000000000D+00  0.0000000000000D+00
302  3.0100000000000D+00  0.0000000000000D+00  0.0000000000000D+00
303  3.0200000000000D+00  0.0000000000000D+00  0.0000000000000D+00
304  3.0300000000000D+00  0.0000000000000D+00  0.0000000000000D+00
305  3.0400000000000D+00  0.0000000000000D+00  0.0000000000000D+00
306  3.0500000000000D+00  0.0000000000000D+00  0.0000000000000D+00
307  3.0600000000000D+00  0.0000000000000D+00  0.0000000000000D+00
308  3.0700000000000D+00  0.0000000000000D+00  0.0000000000000D+00
309  3.0800000000000D+00  0.0000000000000D+00  0.0000000000000D+00
310  3.0900000000000D+00  0.0000000000000D+00  0.0000000000000D+00
311  3.1000000000000D+00  0.0000000000000D+00  0.0000000000000D+00
312  3.1100000000000D+00  0.0000000000000D+00  0.0000000000000D+00
313  3.1200000000000D+00  0.0000000000000D+00  0.0000000000000D+00
314  3.1300000000000D+00  0.0000000000000D+00  0.0000000000000D+00
315  3.1400000000000D+00  0.0000000000000D+00  0.0000000000000D+00
316  3.1500000000000D+00  0.0000000000000D+00  0.0000000000000D+00
317  3.1600000000000D+00  0.0000000000000D+00  0.0000000000000D+00
318  3.1700000000000D+00  0.0000000000000D+00  0.0000000000000D+00
319  3.1800000000000D+00  0.0000000000000D+00  0.0000000000000D+00
320  3.1900000000000D+00  0.0000000000000D+00  0.0000000000000D+00
321  3.2000000000000D+00  0.0000000000000D+00  0.0000000000000D+00
322  3.2100000000000D+00  0.0000000000000D+00  0.0000000000000D+00
323  3.2200000000000D+00  0.0000000000000D+00  0.0000000000000D+00
324  3.2300000000000D+00  0.0000000000000D+00  0.0000000000000D+00
325  3.2400000000000D+00  0.0000000000000D+00  0.0000000000000D+00
326  3.2500000000000D+00  0.0000000000000D+00  0.0000000000000D+00
327  3.2600000000000D+00  0.0000000000000D+00  0.0000000000000D+00
328  3.2700000000000D+00  0.0000000000000D+00  0.0000000000000D+00
329  3.2800000000000D+00  0.0000000000000D+00  0.0000000000000D+00
330  3.2900000000000D+00  0.0000000000000D+00  0.0000000000000D+00
331  3.3000000000000D+00  0.0000000000000D+00  0.0000000000000D+00
332  3.3100000000000D+00  0.0000000000000D+00  0.0000000000000D+00
333  3.3200000000000D+00  0.0000000000000D+00  0.0000000000000D+00
334  3.3300000000000D+00  0.0000000000000D+00  0.0000000000000D+00
335  3.3400000000000D+00  0.0000000000000D+00  0.0000000000000D+00
336  3.3500000000000D+00  0.0000000000000D+00  0.0000000000000D+00
337  3.3600000000000D+00  0.0000000000000D+00  0.0000000000000D+00
338  3.3700000000000D+00  0.0000000000000D+00  0.0000000000000D+00
339  3.3800000000000D+00  0.0000000000000D+00  0.0000000000000D+00
340  3.3900000000000D+00  0.0000000000000D+00  0.0000000000000D+00
341  3.4000000000000D+00  0.0000000000000D+00  0.0000000000000D+00
342  3.4100000000000D+00  0.0000000000000D+00  0.0000000000000D+00
343  3.4200000000000D+00  0.0000000000000D+00  0.0000000000000D+00
344  3.4300000000000D+00  0.0000000000000D+00  0.0000000000000D+00
345  3.4400000000000D+00  0.0000000000000D+00  0.0000000000000D+00
346  3.4500000000000D+00  0.0000000000000D+00  0.0000000000000D+00
347  3.4600000000000D+00  0.0000000000000D+00  0.0000000000000D+00
348  3.4700000000000D+00  0.0000000000000D+00  0.0000000000000D+00
349  3.4800000000000D+00  0.0000000000000D+00  0.0000000000000D+00
350  3.4900000000000D+00  0.0000000000000D+00  0.0000000000000D+00
351  3.5000000000000D+00  0.0000000000000D+00  0.0000000000000D+00
352  3.5100000000000D+00  0.0000000000000D+00  0.0000000000000D+00
353  3.5200000000000D+00  0.0000000000000D+00  0.0000000000000D+00
354  3.5300000000000D+00  0.0000000000000D+00  0.0000000000000D+00
355  3.5400000000000D+00  0.0000000000000D+00  0.0000000000000D+00
356  3.5500000000000D+00  0.0000000000000D+00  0.0000000000000D+00
357  3.5600000000000D+00  0.0000000000000D+00  0.0000000000000D+00
358  3.5700000000000D+00  0.0000000000000D+00  0.0000000000000D+00
359  3.5800000000000D+00  0.0000000000000D+00  0.0000000000000D+00
360  3.5900000000000D+00  0.0000000000000D+00  0.0000000000000D+00
361  3.6000000000000D+00  0.0000000000000D+00  0.0000000000000D+00
362  3.6100000000000D+00  0.0000000000000D+00  0.0000000000000D+00
363  3.6200000000000D+00  0.0000000000000D+00  0.0000000000000D+00
364  3.6300000000000D+00  0.0000000000000D+00  0.0000000000000D+00
365  3.6400000000000D+00  0.0000000000000D+00  0.0000000000000D+00
366  3.6500000000000D+00  0.0000000000000D+00  0.0000000000000D+00
367  3.6600000000000D+00  0.0000000000000D+00  0.0000000000000D+00
368  3.6700000000000D+00  0.0000000000000D+00  0.0000000000000D+00
369  3.6800000000000D+00  0.0000000000000D+00  0.0000000000000D+00
370  3.6900000000000D+00  0.0000000000000D+00  0.0000000000000D+00
371  3.7000000000000D+00  0.0000000000000D+00  0.0000000000000D+00
372  3.7100000000000D+00  0.0000000000000D+00  0.0000000000000D+00
373  3.7200000000000D+00  0.0000000000000D+00  0.0000000000000D+00
374  3.7300000000000D+00  0.0000000000000D+00  0.0000000000000D+00
375  3.7400000000000D+00  0.0000000000000D+00  0.0000000000000D+00
376  3.7500000000000D+00  0.0000000000000D+00  0.0000000000000D+00
377  3.7600000000000D+00  0.0000000000000D+00  0.0000000000000D+00
378  3.7700000000000D+00  0.0000000000000D+00  0.0000000000000D+00
379  3.7800000000000D+00  0.0000000000000D+00  0.0000000000000D+00
380  3.7900000000000D+00  0.0000000000000D+00  0.0000000000000D+00
381  3.8000000000000D+00  0.0000000000000D+00  0.0000000000000D+00
382  3.8100000000000D+00  0.0000000000000D+00  0.0000000000000D+00
383  3.8200000000000D+00  0.0000000000000D+00  0.0000000000000D+00
384  3.8300000000000D+00  0.0000000000000D+00  0.0000000000000D+00
385  3.8400000000000D+00  0.0000000000000D+00  0.0000000000000D+00
386  3.8500000000000D+00  0.0000000000000D+00  0.0000000000000D+00
387  3.8600000000000D+00  0.0000000000000D+00  0.0000000000000D+00
388  3.8700000000000D+00  0.0000000000000D+00  0.0000000000000D+00
389  3.8800000000000D+00  0.0000000000000D+00  0.0000000000000D+00
390  3.8900000000000D+00  0.0000000000000D+00  0.0000000000000D+00
391  3.9000000000000D+00  0.0000000000000D+00  0.0000000000000D+00
392  3.9100000000000D+00  0.0000000000000D+00  0.0000000000000D+00
393  3.9200000000000D+00  0.0000000000000D+00  0.0000000000000D+00
394  3.9300000000000D+00  0.0000000000000D+00  0.0000000000000D+00
395  3.9400000000000D+00  0.0000000000000D+00  0.0000000000000D+00
396  3.9500000000000D+00  0.0000000000000D+00  0.0000000000000D+00
397  3.9600000000000D+00  0.0000000000000D+00  0.0000000000000D+00
398  3.9700000000000D+00  0.0000000000000D+00  0.0000000000000D+00
399  3.9800000000000D+00  0.0000000000000D+00  0.0000000000000D+00
400  3.9900000000000D+00  0.0000000000000D+00  0.0000000000000D+00
401  4.0000000000000D+00  0.0000000000000D+00  0.0000000000000D+00
402  4.0100000000000D+00  0.0000000000000D+00  0.0000000000000D+00
403  4.0200000000000D+00  0.0000000000000D+00  0.0000000000000D+00
404  4.0300000000000D+00  0.0000000000000D+00  0.0000000000000D+00
405  4.0400000000000D+00  0.0000000000000D+00  0.0000000000000D+00
406  4.0500000000000D+00  0.0000000000000D+00  0.0000000000000D+00
407  4.0600000000000D+00  0.0000000000000D+00  0.0000000000000D+00
408  4.0700000000000D+00  0.0000000000000D+00  0.0000000000000D+00
409  4.0800000000000D+00  0.0000000000000D+00  0.0000000000000D+00
410  4.0900000000000D+00  0.0000000000000D+00  0.0000000000000D+00
411  4.1000000000000D+00  0.0000000000000D+00  0.0000000000000D+00
412  4.1100000000000D+00  0.0000000000000D+00  0.0000000000000D+00
413  4.1200000000000D+00  0.0000000000000D+00  0.0000000000000D+00
414  4.1300000000000D+00  0.0000000000000D+00  0.0000000000000D+00
415  4.1400000000000D+00  0.0000000000000D+00  0.0000000000000D+00
416  4.1500000000000D+00  0.0000000000000D+00  0.0000000000000D+00
417  4.1600000000000D+00  0.0000000000000D+00  0.0000000000000D+00
418  4.1700000000000D+00  0.0000000000000D+00  0.0000000000000D+00
419  4.1800000000000D+00  0.0000000000000D+00  0.0000000000000D+00
420  4.1900000000000D+00  0.0000000000000D+00  0.0000000000000D+00
421  4.2000000000000D+00  0.0000000000000D+00  0.0000000000000D+00
422  4.2100000000000D+00  0.0000000000000D+00  0.0000000000000D+00
423  4.2200000000000D+00  0.0000000000000D+00  0.0000000000000D+00
424  4.2300000000000D+00  0.0000000000000D+00  0.0000000000000D+00
425  4.2400000000000D+00  0.0000000000000D+00  0.0000000000000D+00
426  4.2500000000000D+00  0.0000000000000D+00  0.0000000000000D+00
427  4.2600000000000D+00  0.0000000000000D+00  0.0000000000000D+00
428  4.2700000000000D+00  0.0000000000000D+00  0.0000000000000D+00
429  4.2800000000000D+00  0.0000000000000D+00  0.0000000000000D+00
430  4.2900000000000D+00  0.0000000000000D+00  0.0000000000000D+00
431  4.3000000000000D+00  0.0000000000000D+00  0.0000000000000D+00
432  4.3100000000000D+00  0.0000000000000D+00  0.0000000000000D+00
433  4.3200000000000D+00  0.0000000000000D+00  0.0000000000000D+00
434  4.3300000000000D+00  0.0000000000000D+00  0.0000000000000D+00
435  4.3400000000000D+00  0.0000000000000D+00  0.0000000000000D+00
436  4.3500000000000D+00  0.0000000000000D+00  0.0000000000000D+00
437  4.3600000000000D+00  0.0000000000000D+00  0.0000000000000D+00
438  4.3700000000000D+00  0.0000000000000D+00  0.0000000000000D+00
439  4.3800000000000D+00  0.0000000000000D+00  0.0000000000000D+00
440  4.3900000000000D+00  0.0000000000000D+00  0.0000000000000D+00
441  4.4000000000000D+00  0.0000000000000D+00  0.0000000000000D+00
442  4.4100000000000D+00  0.0000000000000D+00  0.0000000000000D+00
443  4.4200000000000D+00  0.0000000000000D+00  0.0000000000000D+00