S     ONCVPSP  r_core=  1.62  1.51  1.96
     16.0000      6.0000      141003    zatom,zion,pspd
     8     2     2     4   601     0    pspcod,pspxc,lmax,lloc,mmax,r2well
  6.00000000  0.00000000  0.00000000    rchrg fchrg qchrg
     2     2     2     0     0    nproj
     0                 extension_switch
   0                         6.4421489452613D+00  5.1591155265400D-01
     1  0.0000000000000D+00  0.0000000000000D+00  0.0000000000000D+00
     2  1.0000000000000D-02 -3.5552589269018D-02  1.6816872478980D-02
     3  2.0000000000000D-02 -7.1147500575355D-02  3.3256301736166D-02
     4  3.0000000000000D-02 -1.0682584016246D-01  4.8947207951855D-02
     5  4.0000000000000D-02 -1.4262630254315D-01  6.3531134863924D-02
     6  5.0000000000000D-02 -1.7858401396214D-01  7.6668305086818D-02
     7  6.0000000000000D-02 -2.1472943417362D-01  8.8043372299743D-02
     8  7.0000000000000D-02 -2.5108733452733D-01  9.7370776859487D-02
     9  8.0000000000000D-02 -2.8767586913661D-01  1.0439961781099D-01
    10  9.0000000000000D-02 -3.2450575444353D-01  1.0891796193389D-01
    11  1.0000000000000D-01 -3.6157957073520D-01  1.1075651971987D-01
    12  1.1000000000000D-01 -3.9889119728164D-01  1.0979162807328D-01
    13  1.2000000000000D-01 -4.3642539059419D-01  1.0594749092981D-01
    14  1.3000000000000D-01 -4.7415751307378D-01  9.9197640689370D-02
    15  1.4000000000000D-01 -5.1205341680877D-01  8.9565596537619D-02
    16  1.5000000000000D-01 -5.5006948506890D-01  7.7124707295872D-02
    17  1.6000000000000D-01 -5.8815283118407D-01  6.1997181479097D-02
    18  1.7000000000000D-01 -6.2624165222704D-01  4.4352318983089D-02
    19  1.8000000000000D-01 -6.6426573249658D-01  2.4403971707090D-02
    20  1.9000000000000D-01 -7.0214708901376D-01  2.4072746428575D-03
    21  2.0000000000000D-01 -7.3980074982165D-01 -2.1345303287167D-02
    22  2.1000000000000D-01 -7.7713565211526D-01 -4.6528520173768D-02
    23  2.2000000000000D-01 -8.1405564747057D-01 -7.2789466263288D-02
    24  2.3000000000000D-01 -8.5046059844987D-01 -9.9753130471387D-02
    25  2.4000000000000D-01 -8.8624754937190D-01 -1.2702833774750D-01
    26  2.5000000000000D-01 -9.2131194868935D-01 -1.5421393967405D-01
    27  2.6000000000000D-01 -9.5554891924633D-01 -1.8090523603645D-01
    28  2.7000000000000D-01 -9.8885453054038D-01 -2.0670039183182D-01
    29  2.8000000000000D-01 -1.0211270777233D+00 -2.3120687056838D-01
    30  2.9000000000000D-01 -1.0522683350043D+00 -2.5404771723580D-01
    31  3.0000000000000D-01 -1.0821847658404D+00 -2.7486759918172D-01
    32  3.1000000000000D-01 -1.1107886713854D+00 -2.9333850884739D-01
    33  3.2000000000000D-01 -1.1379992585003D+00 -3.0916503187980D-01
    34  3.3000000000000D-01 -1.1637436005784D+00 -3.2208904499693D-01
    35  3.4000000000000D-01 -1.1879575160726D+00 -3.3189396513809D-01
    36  3.5000000000000D-01 -1.2105862770495D+00 -3.3840811233852D-01
    37  3.6000000000000D-01 -1.2315852269221D+00 -3.4150757828448D-01
    38  3.7000000000000D-01 -1.2509201936080D+00 -3.4111803973871D-01
    39  3.8000000000000D-01 -1.2685678257124D+00 -3.3721614074642D-01
    40  3.9000000000000D-01 -1.2845156919175D+00 -3.2982966661720D-01
    41  4.0000000000000D-01 -1.2987622628977D+00 -3.1903709293809D-01
    42  4.1000000000000D-01 -1.3113167234769D+00 -3.0496625765346D-01
    43  4.2000000000000D-01 -1.3221986256325D+00 -2.8779221254143D-01
    44  4.3000000000000D-01 -1.3314373887330D+00 -2.6773429053276D-01
    45  4.4000000000000D-01 -1.3390716551200D+00 -2.4505243447300D-01
    46  4.5000000000000D-01 -1.3451485111693D+00 -2.2004284354535D-01
    47  4.6000000000000D-01 -1.3497225859982D+00 -1.9303300419762D-01
    48  4.7000000000000D-01 -1.3528550421709D+00 -1.6437618384501D-01
    49  4.8000000000000D-01 -1.3546124752285D+00 -1.3444547849077D-01
    50  4.9000000000000D-01 -1.3550657573095D+00 -1.0362760926995D-01
    51  5.0000000000000D-01 -1.3542887841864D+00 -7.2316221697956D-02
    52  5.1000000000000D-01 -1.3523571991585D+00 -4.0905124293342D-02
    53  5.2000000000000D-01 -1.3493471788615D+00 -9.7819075325954D-03
    54  5.3000000000000D-01 -1.3453341039779D+00  2.0679047667513D-02
    55  5.4000000000000D-01 -1.3403912700355D+00  5.0123284621701D-02
    56  5.5000000000000D-01 -1.3345889006821D+00  7.8221323985813D-02
    57  5.6000000000000D-01 -1.3279926301191D+00  1.0467655824415D-01
    58  5.7000000000000D-01 -1.3206629652064D+00  1.2922783690781D-01
    59  5.8000000000000D-01 -1.3126537597177D+00  1.5165732676168D-01
    60  5.9000000000000D-01 -1.3040120232666D+00  1.7179122802246D-01
    61  6.0000000000000D-01 -1.2947765814979D+00  1.8950655553612D-01
    62  6.1000000000000D-01 -1.2849780791215D+00  2.0473080911561D-01
    63  6.2000000000000D-01 -1.2746382714523D+00  2.1744535828237D-01
    64  6.3000000000000D-01 -1.2637697930332D+00  2.2768628924937D-01
    65  6.4000000000000D-01 -1.2523763663623D+00  2.3554297257273D-01
    66  6.5000000000000D-01 -1.2404525418827D+00  2.4115898148049D-01
    67  6.6000000000000D-01 -1.2279841555017D+00  2.4472930942916D-01
    68  6.7000000000000D-01 -1.2149488175300D+00  2.4649742303035D-01
    69  6.8000000000000D-01 -1.2013164310485D+00  2.4675212544632D-01
    70  6.9000000000000D-01 -1.1870498414087D+00  2.4582365873199D-01
    71  7.0000000000000D-01 -1.1721058831724D+00  2.4407790397547D-01
    72  7.1000000000000D-01 -1.1564363205642D+00  2.4191102856140D-01
    73  7.2000000000000D-01 -1.1399889473448D+00  2.3974337053259D-01
    74  7.3000000000000D-01 -1.1227088093436D+00  2.3801260250022D-01
    75  7.4000000000000D-01 -1.1045395306759D+00  2.3716645946144D-01
    76  7.5000000000000D-01 -1.0854246255228D+00  2.3765560101678D-01
    77  7.6000000000000D-01 -1.0653088800651D+00  2.3992606754021D-01
    78  7.7000000000000D-01 -1.0441397437010D+00  2.4441174315076D-01
    79  7.8000000000000D-01 -1.0218687117914D+00  2.5152689837285D-01
    80  7.9000000000000D-01 -9.9845267761264D-01  2.6165893094504D-01
    81  8.0000000000000D-01 -9.7385523159166D-01  2.7516142046749D-01
    82  8.1000000000000D-01 -9.4804788665894D-01  2.9234760791586D-01
    83  8.2000000000000D-01 -9.2101120963849D-01  3.1348440463481D-01
    84  8.3000000000000D-01 -8.9273581636063D-01  3.3878715769550D-01
    85  8.4000000000000D-01 -8.6322334658685D-01  3.6841452413811D-01
    86  8.5000000000000D-01 -8.3248711475121D-01  4.0246512733925D-01
    87  8.6000000000000D-01 -8.0055270245125D-01  4.4097451340892D-01
    88  8.7000000000000D-01 -7.6745839573338D-01  4.8391294329372D-01
    89  8.8000000000000D-01 -7.3325547287792D-01  5.3118398397635D-01
    90  8.9000000000000D-01 -6.9800820204834D-01  5.8262465661931D-01
    91  9.0000000000000D-01 -6.6179373148360D-01  6.3800613795241D-01
    92  9.1000000000000D-01 -6.2470177471744D-01  6.9703554214279D-01
    93  9.2000000000000D-01 -5.8683411169285D-01  7.5935866296835D-01
    94  9.3000000000000D-01 -5.4830391106462D-01  8.2456364182073D-01
    95  9.4000000000000D-01 -5.0923488192136D-01  8.9218551150853D-01
    96  9.5000000000000D-01 -4.6976026608941D-01  9.6171155044798D-01
    97  9.6000000000000D-01 -4.3002168503764D-01  1.0325873670024D+00
    98  9.7000000000000D-01 -3.9016785808946D-01  1.1042236199935D+00
    99  9.8000000000000D-01 -3.5035326010664D-01  1.1760030321333D+00
   100  9.9000000000000D-01 -3.1073668155090D-01  1.2472878295510D+00
   101  1.0000000000000D+00 -2.7147940509093D-01  1.3174291073826D+00
   102  1.0100000000000D+00 -2.3274373721259D-01  1.3857743763633D+00
   103  1.0200000000000D+00 -1.9469134139188D-01  1.4516760012058D+00
   104  1.0300000000000D+00 -1.5748159674981D-01  1.5144994626932D+00
   105  1.0400000000000D+00 -1.2127031555424D-01  1.5736297649659D+00
   106  1.0500000000000D+00 -8.6207794345972D-02  1.6284811081494D+00
   107  1.0600000000000D+00 -5.2436382807418D-02  1.6785088089125D+00
   108  1.0700000000000D+00 -2.0090253207275D-02  1.7232101978562D+00
   109  1.0800000000000D+00  1.0706301766593D-02  1.7621327581038D+00
   110  1.0900000000000D+00  3.9839087832388D-02  1.7948749430324D+00
   111  1.1000000000000D+00  6.7207479488180D-02  1.8211027237424D+00
   112  1.1100000000000D+00  9.2724676271321D-02  1.8405501186845D+00
   113  1.1200000000000D+00  1.1631728551680D-01  1.8530165899736D+00
   114  1.1300000000000D+00  1.3792546516113D-01  1.8583672753063D+00
   115  1.1400000000000D+00  1.5750545416204D-01  1.8565442992145D+00
   116  1.1500000000000D+00  1.7503045251621D-01  1.8475695057858D+00
   117  1.1600000000000D+00  1.9048788005343D-01  1.8315307669522D+00
   118  1.1700000000000D+00  2.0387882387101D-01  1.8085790972102D+00
   119  1.1800000000000D+00  2.1522253342266D-01  1.7789471502801D+00
   120  1.1900000000000D+00  2.2455246345753D-01  1.7429295813899D+00
   121  1.2000000000000D+00  2.3191467852487D-01  1.7008753907653D+00
   122  1.2100000000000D+00  2.3736865826133D-01  1.6531904740864D+00
   123  1.2200000000000D+00  2.4098849530627D-01  1.6003380895366D+00
   124  1.2300000000000D+00  2.4285770113087D-01  1.5428171255828D+00
   125  1.2400000000000D+00  2.4306942908669D-01  1.4811638340429D+00
   126  1.2500000000000D+00  2.4172800534920D-01  1.4159480433218D+00
   127  1.2600000000000D+00  2.3894356287892D-01  1.3477554219538D+00
   128  1.2700000000000D+00  2.3483304702193D-01  1.2771933384571D+00
   129  1.2800000000000D+00  2.2951828577202D-01  1.2048670017557D+00
   130  1.2900000000000D+00  2.2312371805770D-01  1.1313804881880D+00
   131  1.3000000000000D+00  2.1577778521204D-01  1.0573437626623D+00
   132  1.3100000000000D+00  2.0760662636315D-01  9.8332645265329D-01
   133  1.3200000000000D+00  1.9873701481871D-01  9.0988852529050D-01
   134  1.3300000000000D+00  1.8929543620652D-01  8.3757048266116D-01
   135  1.3400000000000D+00  1.7940062108584D-01  7.6684822899712D-01
   136  1.3500000000000D+00  1.6917151064112D-01  6.9818741939877D-01
   137  1.3600000000000D+00  1.5871957188034D-01  6.3199417024712D-01
   138  1.3700000000000D+00  1.4814760827137D-01  5.6861303753579D-01
   139  1.3800000000000D+00  1.3755891838094D-01  5.0838018791562D-01
   140  1.3900000000000D+00  1.2703950701594D-01  4.5152252867447D-01
   141  1.4000000000000D+00  1.1667382708574D-01  3.9825045272038D-01
   142  1.4100000000000D+00  1.0653742510119D-01  3.4871502240974D-01
   143  1.4200000000000D+00  9.6692188843714D-02  3.0298799741063D-01
   144  1.4300000000000D+00  8.7200958764507D-02  2.6113648100031D-01
   145  1.4400000000000D+00  7.8106939285930D-02  2.2312188952609D-01
   146  1.4500000000000D+00  6.9453349904463D-02  1.8889969050463D-01
   147  1.4600000000000D+00  6.1272030080678D-02  1.5836353769594D-01
   148  1.4700000000000D+00  5.3586340024767D-02  1.3136670626060D-01
   149  1.4800000000000D+00  4.6417419833523D-02  1.0774312699301D-01
   150  1.4900000000000D+00  3.9772912950932D-02  8.7274544271107D-02
   151  1.5000000000000D+00  3.3662371416568D-02  6.9740537215911D-02
   152  1.5100000000000D+00  2.8083751153550D-02  5.4885466129611D-02
   153  1.5200000000000D+00  2.3035745064409D-02  4.2453442296219D-02
   154  1.5300000000000D+00  1.8511174140885D-02  3.2178126341700D-02
   155  1.5400000000000D+00  1.4502443284206D-02  2.3805478716042D-02
   156  1.5500000000000D+00  1.0999789071135D-02  1.7078458560160D-02
   157  1.5600000000000D+00  7.9942420390585D-03  1.1779152949200D-02
   158  1.5700000000000D+00  5.4754123154073D-03  7.6748049913894D-03
   159  1.5800000000000D+00  3.4367316857494D-03  4.6082974167818D-03
   160  1.5900000000000D+00  1.8691616300745D-03  2.3864930540678D-03
   161  1.6000000000000D+00  7.7566676611626D-04  9.3191518126977D-04
   162  1.6100000000000D+00  1.8900147157006D-04  1.5819043476561D-04
   163  1.6200000000000D+00 -5.2253526622749D-05 -1.3132617945915D-04
   164  1.6300000000000D+00 -6.5182372443775D-05 -1.1192759300430D-04
   165  1.6400000000000D+00  1.0524961644748D-06  3.4630768824267D-06
   166  1.6500000000000D+00  1.9582705294533D-06  6.4433882317004D-06
   167  1.6600000000000D+00  0.0000000000000D+00  0.0000000000000D+00
   168  1.6700000000000D+00  0.0000000000000D+00  0.0000000000000D+00
   169  1.6800000000000D+00  0.0000000000000D+00  0.0000000000000D+00
   170  1.6900000000000D+00  0.0000000000000D+00  0.0000000000000D+00
   171  1.7000000000000D+00  0.0000000000000D+00  0.0000000000000D+00
   172  1.7100000000000D+00  0.0000000000000D+00  0.0000000000000D+00
   173  1.7200000000000D+00  0.0000000000000D+00  0.0000000000000D+00
   174  1.7300000000000D+00  0.0000000000000D+00  0.0000000000000D+00
   175  1.7400000000000D+00  0.0000000000000D+00  0.0000000000000D+00
   176  1.7500000000000D+00  0.0000000000000D+00  0.0000000000000D+00
   177  1.7600000000000D+00  0.0000000000000D+00  0.0000000000000D+00
   178  1.7700000000000D+00  0.0000000000000D+00  0.0000000000000D+00
   179  1.7800000000000D+00  0.0000000000000D+00  0.0000000000000D+00
   180  1.7900000000000D+00  0.0000000000000D+00  0.0000000000000D+00
   181  1.8000000000000D+00  0.0000000000000D+00  0.0000000000000D+00
   182  1.8100000000000D+00  0.0000000000000D+00  0.0000000000000D+00
   183  1.8200000000000D+00  0.0000000000000D+00  0.0000000000000D+00
   184  1.8300000000000D+00  0.0000000000000D+00  0.0000000000000D+00
   185  1.8400000000000D+00  0.0000000000000D+00  0.0000000000000D+00
   186  1.8500000000000D+00  0.0000000000000D+00  0.0000000000000D+00
   187  1.8600000000000D+00  0.0000000000000D+00  0.0000000000000D+00
   188  1.8700000000000D+00  0.0000000000000D+00  0.0000000000000D+00
   189  1.8800000000000D+00  0.0000000000000D+00  0.0000000000000D+00
   190  1.8900000000000D+00  0.0000000000000D+00  0.0000000000000D+00
   191  1.9000000000000D+00  0.0000000000000D+00  0.0000000000000D+00
   192  1.9100000000000D+00  0.0000000000000D+00  0.0000000000000D+00
   193  1.9200000000000D+00  0.0000000000000D+00  0.0000000000000D+00
   194  1.9300000000000D+00  0.0000000000000D+00  0.0000000000000D+00
   195  1.9400000000000D+00  0.0000000000000D+00  0.0000000000000D+00
   196  1.9500000000000D+00  0.0000000000000D+00  0.0000000000000D+00
   197  1.9600000000000D+00  0.0000000000000D+00  0.0000000000000D+00
   198  1.9700000000000D+00  0.0000000000000D+00  0.0000000000000D+00
   199  1.9800000000000D+00  0.0000000000000D+00  0.0000000000000D+00
   200  1.9900000000000D+00  0.0000000000000D+00  0.0000000000000D+00
   201  2.0000000000000D+00  0.0000000000000D+00  0.0000000000000D+00
   202  2.0100000000000D+00  0.0000000000000D+00  0.0000000000000D+00
   203  2.0200000000000D+00  0.0000000000000D+00  0.0000000000000D+00
   204  2.0300000000000D+00  0.0000000000000D+00  0.0000000000000D+00
   205  2.0400000000000D+00  0.0000000000000D+00  0.0000000000000D+00
   206  2.0500000000000D+00  0.0000000000000D+00  0.0000000000000D+00
   207  2.0600000000000D+00  0.0000000000000D+00  0.0000000000000D+00
   208  2.0700000000000D+00  0.0000000000000D+00  0.0000000000000D+00
   209  2.0800000000000D+00  0.0000000000000D+00  0.0000000000000D+00
   210  2.0900000000000D+00  0.0000000000000D+00  0.0000000000000D+00
   211  2.1000000000000D+00  0.0000000000000D+00  0.0000000000000D+00
   212  2.1100000000000D+00  0.0000000000000D+00  0.0000000000000D+00
   213  2.1200000000000D+00  0.0000000000000D+00  0.0000000000000D+00
   214  2.1300000000000D+00  0.0000000000000D+00  0.0000000000000D+00
   215  2.1400000000000D+00  0.0000000000000D+00  0.0000000000000D+00
   216  2.1500000000000D+00  0.0000000000000D+00  0.0000000000000D+00
   217  2.1600000000000D+00  0.0000000000000D+00  0.0000000000000D+00
   218  2.1700000000000D+00  0.0000000000000D+00  0.0000000000000D+00
   219  2.1800000000000D+00  0.0000000000000D+00  0.0000000000000D+00
   220  2.1900000000000D+00  0.0000000000000D+00  0.0000000000000D+00
   221  2.2000000000000D+00  0.0000000000000D+00  0.0000000000000D+00
   222  2.2100000000000D+00  0.0000000000000D+00  0.0000000000000D+00
   223  2.2200000000000D+00  0.0000000000000D+00  0.0000000000000D+00
   224  2.2300000000000D+00  0.0000000000000D+00  0.0000000000000D+00
   225  2.2400000000000D+00  0.0000000000000D+00  0.0000000000000D+00
   226  2.2500000000000D+00  0.0000000000000D+00  0.0000000000000D+00
   227  2.2600000000000D+00  0.0000000000000D+00  0.0000000000000D+00
   228  2.2700000000000D+00  0.0000000000000D+00  0.0000000000000D+00
   229  2.2800000000000D+00  0.0000000000000D+00  0.0000000000000D+00
   230  2.2900000000000D+00  0.0000000000000D+00  0.0000000000000D+00
   231  2.3000000000000D+00  0.0000000000000D+00  0.0000000000000D+00
   232  2.3100000000000D+00  0.0000000000000D+00  0.0000000000000D+00
   233  2.3200000000000D+00  0.0000000000000D+00  0.0000000000000D+00
   234  2.3300000000000D+00  0.0000000000000D+00  0.0000000000000D+00
   235  2.3400000000000D+00  0.0000000000000D+00  0.0000000000000D+00
   236  2.3500000000000D+00  0.0000000000000D+00  0.0000000000000D+00
   237  2.3600000000000D+00  0.0000000000000D+00  0.0000000000000D+00
   238  2.3700000000000D+00  0.0000000000000D+00  0.0000000000000D+00
   239  2.3800000000000D+00  0.0000000000000D+00  0.0000000000000D+00
   240  2.3900000000000D+00  0.0000000000000D+00  0.0000000000000D+00
   241  2.4000000000000D+00  0.0000000000000D+00  0.0000000000000D+00
   242  2.4100000000000D+00  0.0000000000000D+00  0.0000000000000D+00
   243  2.4200000000000D+00  0.0000000000000D+00  0.0000000000000D+00
   244  2.4300000000000D+00  0.0000000000000D+00  0.0000000000000D+00
   245  2.4400000000000D+00  0.0000000000000D+00  0.0000000000000D+00
   246  2.4500000000000D+00  0.0000000000000D+00  0.0000000000000D+00
   247  2.4600000000000D+00  0.0000000000000D+00  0.0000000000000D+00
   248  2.4700000000000D+00  0.0000000000000D+00  0.0000000000000D+00
   249  2.4800000000000D+00  0.0000000000000D+00  0.0000000000000D+00
   250  2.4900000000000D+00  0.0000000000000D+00  0.0000000000000D+00
   251  2.5000000000000D+00  0.0000000000000D+00  0.0000000000000D+00
   252  2.5100000000000D+00  0.0000000000000D+00  0.0000000000000D+00
   253  2.5200000000000D+00  0.0000000000000D+00  0.0000000000000D+00
   254  2.5300000000000D+00  0.0000000000000D+00  0.0000000000000D+00
   255  2.5400000000000D+00  0.0000000000000D+00  0.0000000000000D+00
   256  2.5500000000000D+00  0.0000000000000D+00  0.0000000000000D+00
   257  2.5600000000000D+00  0.0000000000000D+00  0.0000000000000D+00
   258  2.5700000000000D+00  0.0000000000000D+00  0.0000000000000D+00
   259  2.5800000000000D+00  0.0000000000000D+00  0.0000000000000D+00
   260  2.5900000000000D+00  0.0000000000000D+00  0.0000000000000D+00
   261  2.6000000000000D+00  0.0000000000000D+00  0.0000000000000D+00
   262  2.6100000000000D+00  0.0000000000000D+00  0.0000000000000D+00
   263  2.6200000000000D+00  0.0000000000000D+00  0.0000000000000D+00
   264  2.6300000000000D+00  0.0000000000000D+00  0.0000000000000D+00
   265  2.6400000000000D+00  0.0000000000000D+00  0.0000000000000D+00
   266  2.6500000000000D+00  0.0000000000000D+00  0.0000000000000D+00
   267  2.6600000000000D+00  0.0000000000000D+00  0.0000000000000D+00
   268  2.6700000000000D+00  0.0000000000000D+00  0.0000000000000D+00
   269  2.6800000000000D+00  0.0000000000000D+00  0.0000000000000D+00
   270  2.6900000000000D+00  0.0000000000000D+00  0.0000000000000D+00
   271  2.7000000000000D+00  0.0000000000000D+00  0.0000000000000D+00
   272  2.7100000000000D+00  0.0000000000000D+00  0.0000000000000D+00
   273  2.7200000000000D+00  0.0000000000000D+00  0.0000000000000D+00
   274  2.7300000000000D+00  0.0000000000000D+00  0.0000000000000D+00
   275  2.7400000000000D+00  0.0000000000000D+00  0.0000000000000D+00
   276  2.7500000000000D+00  0.0000000000000D+00  0.0000000000000D+00
   277  2.7600000000000D+00  0.0000000000000D+00  0.0000000000000D+00
   278  2.7700000000000D+00  0.0000000000000D+00  0.0000000000000D+00
   279  2.7800000000000D+00  0.0000000000000D+00  0.0000000000000D+00
   280  2.7900000000000D+00  0.0000000000000D+00  0.0000000000000D+00
   281  2.8000000000000D+00  0.0000000000000D+00  0.0000000000000D+00
   282  2.8100000000000D+00  0.0000000000000D+00  0.0000000000000D+00
   283  2.8200000000000D+00  0.0000000000000D+00  0.0000000000000D+00
   284  2.8300000000000D+00  0.0000000000000D+00  0.0000000000000D+00
   285  2.8400000000000D+00  0.0000000000000D+00  0.0000000000000D+00
   286  2.8500000000000D+00  0.0000000000000D+00  0.0000000000000D+00
   287  2.8600000000000D+00  0.0000000000000D+00  0.0000000000000D+00
   288  2.8700000000000D+00  0.0000000000000D+00  0.0000000000000D+00
   289  2.8800000000000D+00  0.0000000000000D+00  0.0000000000000D+00
   290  2.8900000000000D+00  0.0000000000000D+00  0.0000000000000D+00
   291  2.9000000000000D+00  0.0000000000000D+00  0.0000000000000D+00
   292  2.9100000000000D+00  0.0000000000000D+00  0.0000000000000D+00
   293  2.9200000000000D+00  0.0000000000000D+00  0.0000000000000D+00
   294  2.9300000000000D+00  0.0000000000000D+00  0.0000000000000D+00
   295  2.9400000000000D+00  0.0000000000000D+00  0.0000000000000D+00
   296  2.9500000000000D+00  0.0000000000000D+00  0.0000000000000D+00
   297  2.9600000000000D+00  0.0000000000000D+00  0.0000000000000D+00
   298  2.9700000000000D+00  0.0000000000000D+00  0.0000000000000D+00
   299  2.9800000000000D+00  0.0000000000000D+00  0.0000000000000D+00
   300  2.9900000000000D+00  0.0000000000000D+00  0.0000000000000D+00
   301  3.0000000000000D+00  0.0000000000000D+00  0.0000000000000D+00
   302  3.0100000000000D+00  0.0000000000000D+00  0.0000000000000D+00
   303  3.0200000000000D+00  0.0000000000000D+00  0.0000000000000D+00
   304  3.0300000000000D+00  0.0000000000000D+00  0.0000000000000D+00
   305  3.0400000000000D+00  0.0000000000000D+00  0.0000000000000D+00
   306  3.0500000000000D+00  0.0000000000000D+00  0.0000000000000D+00
   307  3.0600000000000D+00  0.0000000000000D+00  0.0000000000000D+00
   308  3.0700000000000D+00  0.0000000000000D+00  0.0000000000000D+00
   309  3.0800000000000D+00  0.0000000000000D+00  0.0000000000000D+00
   310  3.0900000000000D+00  0.0000000000000D+00  0.0000000000000D+00
   311  3.1000000000000D+00  0.0000000000000D+00  0.0000000000000D+00
   312  3.1100000000000D+00  0.0000000000000D+00  0.0000000000000D+00
   313  3.1200000000000D+00  0.0000000000000D+00  0.0000000000000D+00
   314  3.1300000000000D+00  0.0000000000000D+00  0.0000000000000D+00
   315  3.1400000000000D+00  0.0000000000000D+00  0.0000000000000D+00
   316  3.1500000000000D+00  0.0000000000000D+00  0.0000000000000D+00
   317  3.1600000000000D+00  0.0000000000000D+00  0.0000000000000D+00
   318  3.1700000000000D+00  0.0000000000000D+00  0.0000000000000D+00
   319  3.1800000000000D+00  0.0000000000000D+00  0.0000000000000D+00
   320  3.1900000000000D+00  0.0000000000000D+00  0.0000000000000D+00
   321  3.2000000000000D+00  0.0000000000000D+00  0.0000000000000D+00
   322  3.2100000000000D+00  0.0000000000000D+00  0.0000000000000D+00
   323  3.2200000000000D+00  0.0000000000000D+00  0.0000000000000D+00
   324  3.2300000000000D+00  0.0000000000000D+00  0.0000000000000D+00
   325  3.2400000000000D+00  0.0000000000000D+00  0.0000000000000D+00
   326  3.2500000000000D+00  0.0000000000000D+00  0.0000000000000D+00
   327  3.2600000000000D+00  0.0000000000000D+00  0.0000000000000D+00
   328  3.2700000000000D+00  0.0000000000000D+00  0.0000000000000D+00
   329  3.2800000000000D+00  0.0000000000000D+00  0.0000000000000D+00
   330  3.2900000000000D+00  0.0000000000000D+00  0.0000000000000D+00
   331  3.3000000000000D+00  0.0000000000000D+00  0.0000000000000D+00
   332  3.3100000000000D+00  0.0000000000000D+00  0.0000000000000D+00
   333  3.3200000000000D+00  0.0000000000000D+00  0.0000000000000D+00
   334  3.3300000000000D+00  0.0000000000000D+00  0.0000000000000D+00
   335  3.3400000000000D+00  0.0000000000000D+00  0.0000000000000D+00
   336  3.3500000000000D+00  0.0000000000000D+00  0.0000000000000D+00
   337  3.3600000000000D+00  0.0000000000000D+00  0.0000000000000D+00
   338  3.3700000000000D+00  0.0000000000000D+00  0.0000000000000D+00
   339  3.3800000000000D+00  0.0000000000000D+00  0.0000000000000D+00
   340  3.3900000000000D+00  0.0000000000000D+00  0.0000000000000D+00
   341  3.4000000000000D+00  0.0000000000000D+00  0.0000000000000D+00
   342  3.4100000000000D+00  0.0000000000000D+00  0.0000000000000D+00
   343  3.4200000000000D+00  0.0000000000000D+00  0.0000000000000D+00
   344  3.4300000000000D+00  0.0000000000000D+00  0.0000000000000D+00
   345  3.4400000000000D+00  0.0000000000000D+00  0.0000000000000D+00
   346  3.4500000000000D+00  0.0000000000000D+00  0.0000000000000D+00
   347  3.4600000000000D+00  0.0000000000000D+00  0.0000000000000D+00
   348  3.4700000000000D+00  0.0000000000000D+00  0.0000000000000D+00
   349  3.4800000000000D+00  0.0000000000000D+00  0.0000000000000D+00
   350  3.4900000000000D+00  0.0000000000000D+00  0.0000000000000D+00
   351  3.5000000000000D+00  0.0000000000000D+00  0.0000000000000D+00
   352  3.5100000000000D+00  0.0000000000000D+00  0.0000000000000D+00
   353  3.5200000000000D+00  0.0000000000000D+00  0.0000000000000D+00
   354  3.5300000000000D+00  0.0000000000000D+00  0.0000000000000D+00
   355  3.5400000000000D+00  0.0000000000000D+00  0.0000000000000D+00
   356  3.5500000000000D+00  0.0000000000000D+00  0.0000000000000D+00
   357  3.5600000000000D+00  0.0000000000000D+00  0.0000000000000D+00
   358  3.5700000000000D+00  0.0000000000000D+00  0.0000000000000D+00
   359  3.5800000000000D+00  0.0000000000000D+00  0.0000000000000D+00
   360  3.5900000000000D+00  0.0000000000000D+00  0.0000000000000D+00
   361  3.6000000000000D+00  0.0000000000000D+00  0.0000000000000D+00
   362  3.6100000000000D+00  0.0000000000000D+00  0.0000000000000D+00
   363  3.6200000000000D+00  0.0000000000000D+00  0.0000000000000D+00
   364  3.6300000000000D+00  0.0000000000000D+00  0.0000000000000D+00
   365  3.6400000000000D+00  0.0000000000000D+00  0.0000000000000D+00
   366  3.6500000000000D+00  0.0000000000000D+00  0.0000000000000D+00
   367  3.6600000000000D+00  0.0000000000000D+00  0.0000000000000D+00
   368  3.6700000000000D+00  0.0000000000000D+00  0.0000000000000D+00
   369  3.6800000000000D+00  0.0000000000000D+00  0.0000000000000D+00
   370  3.6900000000000D+00  0.0000000000000D+00  0.0000000000000D+00
   371  3.7000000000000D+00  0.0000000000000D+00  0.0000000000000D+00
   372  3.7100000000000D+00  0.0000000000000D+00  0.0000000000000D+00
   373  3.7200000000000D+00  0.0000000000000D+00  0.0000000000000D+00
   374  3.7300000000000D+00  0.0000000000000D+00  0.0000000000000D+00
   375  3.7400000000000D+00  0.0000000000000D+00  0.0000000000000D+00
   376  3.7500000000000D+00  0.0000000000000D+00  0.0000000000000D+00
   377  3.7600000000000D+00  0.0000000000000D+00  0.0000000000000D+00
   378  3.7700000000000D+00  0.0000000000000D+00  0.0000000000000D+00
   379  3.7800000000000D+00  0.0000000000000D+00  0.0000000000000D+00
   380  3.7900000000000D+00  0.0000000000000D+00  0.0000000000000D+00
   381  3.8000000000000D+00  0.0000000000000D+00  0.0000000000000D+00
   382  3.8100000000000D+00  0.0000000000000D+00  0.0000000000000D+00
   383  3.8200000000000D+00  0.0000000000000D+00  0.0000000000000D+00
   384  3.8300000000000D+00  0.0000000000000D+00  0.0000000000000D+00
   385  3.8400000000000D+00  0.0000000000000D+00  0.0000000000000D+00
   386  3.8500000000000D+00  0.0000000000000D+00  0.0000000000000D+00
   387  3.8600000000000D+00  0.0000000000000D+00  0.0000000000000D+00
   388  3.8700000000000D+00  0.0000000000000D+00  0.0000000000000D+00
   389  3.8800000000000D+00  0.0000000000000D+00  0.0000000000000D+00
   390  3.8900000000000D+00  0.0000000000000D+00  0.0000000000000D+00
   391  3.9000000000000D+00  0.0000000000000D+00  0.0000000000000D+00
   392  3.9100000000000D+00  0.0000000000000D+00  0.0000000000000D+00
   393  3.9200000000000D+00  0.0000000000000D+00  0.0000000000000D+00
   394  3.9300000000000D+00  0.0000000000000D+00  0.0000000000000D+00
   395  3.9400000000000D+00  0.0000000000000D+00  0.0000000000000D+00
   396  3.9500000000000D+00  0.0000000000000D+00  0.0000000000000D+00
   397  3.9600000000000D+00  0.0000000000000D+00  0.0000000000000D+00
   398  3.9700000000000D+00  0.0000000000000D+00  0.0000000000000D+00
   399  3.9800000000000D+00  0.0000000000000D+00  0.0000000000000D+00
   400  3.9900000000000D+00  0.0000000000000D+00  0.0000000000000D+00
   401  4.0000000000000D+00  0.0000000000000D+00  0.0000000000000D+00
   402  4.0100000000000D+00  0.0000000000000D+00  0.0000000000000D+00
   403  4.0200000000000D+00  0.0000000000000D+00  0.0000000000000D+00
   404  4.0300000000000D+00  0.0000000000000D+00  0.0000000000000D+00
   405  4.0400000000000D+00  0.0000000000000D+00  0.0000000000000D+00
   406  4.0500000000000D+00  0.0000000000000D+00  0.0000000000000D+00
   407  4.0600000000000D+00  0.0000000000000D+00  0.0000000000000D+00
   408  4.0700000000000D+00  0.0000000000000D+00  0.0000000000000D+00
   409  4.0800000000000D+00  0.0000000000000D+00  0.0000000000000D+00
   410  4.0900000000000D+00  0.0000000000000D+00  0.0000000000000D+00
   411  4.1000000000000D+00  0.0000000000000D+00  0.0000000000000D+00
   412  4.1100000000000D+00  0.0000000000000D+00  0.0000000000000D+00
   413  4.1200000000000D+00  0.0000000000000D+00  0.0000000000000D+00
   414  4.1300000000000D+00  0.0000000000000D+00  0.0000000000000D+00
   415  4.1400000000000D+00  0.0000000000000D+00  0.0000000000000D+00
   416  4.1500000000000D+00  0.0000000000000D+00  0.0000000000000D+00
   417  4.1600000000000D+00  0.0000000000000D+00  0.0000000000000D+00
   418  4.1700000000000D+00  0.0000000000000D+00  0.0000000000000D+00
   419  4.1800000000000D+00  0.0000000000000D+00  0.0000000000000D+00
   420  4.1900000000000D+00  0.0000000000000D+00  0.0000000000000D+00
   421  4.2000000000000D+00  0.0000000000000D+00  0.0000000000000D+00
   422  4.2100000000000D+00  0.0000000000000D+00  0.0000000000000D+00
   423  4.2200000000000D+00  0.0000000000000D+00  0.0000000000000D+00