Sn    ONCVPSP-3.3.0  r_core=   2.27326   2.62311   1.85601
50.0000     14.0000      180112    zatom,zion,pspd
8 -116133   2     4   600     0    pspcod,pspxc,lmax,lloc,mmax,r2well
5.99000000  6.50000000  0.00000000    rchrg fchrg qchrg
2     2     2     0     0    nproj
1     1           extension_switch
0                         5.5878694385752D+00  7.4937337181851D-01
1  0.0000000000000D+00  7.5489614559388D-13 -5.6760290911839D-12
2  1.0000000000000D-02  1.3689884956423D-02  7.2661682161049D-03
3  2.0000000000000D-02  2.7392025176497D-02  1.4482195423777D-02
4  3.0000000000000D-02  4.1118627928361D-02  2.1598131471891D-02
5  4.0000000000000D-02  5.4881804601052D-02  2.8564407342001D-02
6  5.0000000000000D-02  6.8693523044612D-02  3.5332024261263D-02
7  6.0000000000000D-02  8.2565560245238D-02  4.1852741075225D-02
8  7.0000000000000D-02  9.6509455446297D-02  4.8079259307058D-02
9  8.0000000000000D-02  1.1053646382528D-01  5.3965405335463D-02
10  9.0000000000000D-02  1.2465751083578D-01  5.9466309130537D-02
11  1.0000000000000D-01  1.3888314732259D-01  6.4538578995380D-02
12  1.1000000000000D-01  1.5322350551645D-01  6.9140471771054D-02
13  1.2000000000000D-01  1.6768825601387D-01  7.3232057973722D-02
14  1.3000000000000D-01  1.8228656584530D-01  7.6775381345440D-02
15  1.4000000000000D-01  1.9702705773345D-01  7.9734612314015D-02
16  1.5000000000000D-01  2.1191777064129D-01  8.2076194872540D-02
17  1.6000000000000D-01  2.2696612170711D-01  8.3768986406038D-02
18  1.7000000000000D-01  2.4217886966140D-01  8.4784390010282D-02
19  1.8000000000000D-01  2.5756207981812D-01  8.5096478867265D-02
20  1.9000000000000D-01  2.7312109072954D-01  8.4682112262130D-02
21  2.0000000000000D-01  2.8886048259146D-01  8.3521042847990D-02
22  2.1000000000000D-01  3.0478404748192D-01  8.1596014788000D-02
23  2.2000000000000D-01  3.2089476151359D-01  7.8892852427964D-02
24  2.3000000000000D-01  3.3719475897625D-01  7.5400539177948D-02
25  2.4000000000000D-01  3.5368530854212D-01  7.1111286307476D-02
26  2.5000000000000D-01  3.7036679160303D-01  6.6020591386250D-02
27  2.6000000000000D-01  3.8723868280431D-01  6.0127286130315D-02
28  2.7000000000000D-01  4.0429953283598D-01  5.3433573443087D-02
29  2.8000000000000D-01  4.2154695353763D-01  4.5945053470320D-02
30  2.9000000000000D-01  4.3897760536870D-01  3.7670738519185D-02
31  3.0000000000000D-01  4.5658718729126D-01  2.8623056723092D-02
32  3.1000000000000D-01  4.7437042910746D-01  1.8817844366288D-02
33  3.2000000000000D-01  4.9232108628907D-01  8.2743268150222D-03
34  3.3000000000000D-01  5.1043193733091D-01 -2.9849119643176D-03
35  3.4000000000000D-01  5.2869478365546D-01 -1.4933971285999D-02
36  3.5000000000000D-01  5.4710045208971D-01 -2.7543686976036D-02
37  3.6000000000000D-01  5.6563879993062D-01 -4.0781695870598D-02
38  3.7000000000000D-01  5.8429872260930D-01 -5.4612511463906D-02
39  3.8000000000000D-01  6.0306816395870D-01 -6.8997610552758D-02
40  3.9000000000000D-01  6.2193412908369D-01 -8.3895530690226D-02
41  4.0000000000000D-01  6.4088269982649D-01 -9.9261978226052D-02
42  4.1000000000000D-01  6.5989905281450D-01 -1.1504994667665D-01
43  4.2000000000000D-01  6.7896748007165D-01 -1.3120984513356D-01
44  4.3000000000000D-01  6.9807141216802D-01 -1.4768963638499D-01
45  4.4000000000000D-01  7.1719344387696D-01 -1.6443498439205D-01
46  4.5000000000000D-01  7.3631536230214D-01 -1.8138941072818D-01
47  4.6000000000000D-01  7.5541817743137D-01 -1.9849445955872D-01
48  4.7000000000000D-01  7.7448215506769D-01 -2.1568987070602D-01
49  4.8000000000000D-01  7.9348685208205D-01 -2.3291376031571D-01
50  4.9000000000000D-01  8.1241115392608D-01 -2.5010280861043D-01
51  5.0000000000000D-01  8.3123331433713D-01 -2.6719245418968D-01
52  5.1000000000000D-01  8.4993099716203D-01 -2.8411709430773D-01
53  5.2000000000000D-01  8.6848132021999D-01 -3.0081029053670D-01
54  5.3000000000000D-01  8.8686090111954D-01 -3.1720497919823D-01
55  5.4000000000000D-01  9.0504590493814D-01 -3.3323368592514D-01
56  5.5000000000000D-01  9.2301209366845D-01 -3.4882874369475D-01
57  5.6000000000000D-01  9.4073487732886D-01 -3.6392251365676D-01
58  5.7000000000000D-01  9.5818936663151D-01 -3.7844760806285D-01
59  5.8000000000000D-01  9.7535042709527D-01 -3.9233711459036D-01
60  5.9000000000000D-01  9.9219273448683D-01 -4.0552482134060D-01
61  6.0000000000000D-01  1.0086908314680D+00 -4.1794544178243D-01
62  6.1000000000000D-01  1.0248191853230D+00 -4.2953483890406D-01
63  6.2000000000000D-01  1.0405522466358D+00 -4.4023024783078D-01
64  6.3000000000000D-01  1.0558645087821D+00 -4.4997049616351D-01
65  6.4000000000000D-01  1.0707305680998D+00 -4.5869622129287D-01
66  6.5000000000000D-01  1.0851251845946D+00 -4.6635008394532D-01
67  6.6000000000000D-01  1.0990233430381D+00 -4.7287697722320D-01
68  6.7000000000000D-01  1.1124003143100D+00 -4.7822423040702D-01
69  6.8000000000000D-01  1.1252317168358D+00 -4.8234180679936D-01
70  6.9000000000000D-01  1.1374935779674D+00 -4.8518249490123D-01
71  7.0000000000000D-01  1.1491623951549D+00 -4.8670209222750D-01
72  7.1000000000000D-01  1.1602151967530D+00 -4.8685958108591D-01
73  7.2000000000000D-01  1.1706296023074D+00 -4.8561729566393D-01
74  7.3000000000000D-01  1.1803838821662D+00 -4.8294107979100D-01
75  7.4000000000000D-01  1.1894570162568D+00 -4.7880043476941D-01
76  7.5000000000000D-01  1.1978287518760D+00 -4.7316865669401D-01
77  7.6000000000000D-01  1.2054796603350D+00 -4.6602296271211D-01
78  7.7000000000000D-01  1.2123911923056D+00 -4.5734460570690D-01
79  7.8000000000000D-01  1.2185457317163D+00 -4.4711897692265D-01
80  7.9000000000000D-01  1.2239266480445D+00 -4.3533569608673D-01
81  8.0000000000000D-01  1.2285183468584D+00 -4.2198868862270D-01
82  8.1000000000000D-01  1.2323063184623D+00 -4.0707624958893D-01
83  8.2000000000000D-01  1.2352771845008D+00 -3.9060109402038D-01
84  8.3000000000000D-01  1.2374187423861D+00 -3.7257039339493D-01
85  8.4000000000000D-01  1.2387200074102D+00 -3.5299579799168D-01
86  8.5000000000000D-01  1.2391712524128D+00 -3.3189344495509D-01
87  8.6000000000000D-01  1.2387640448799D+00 -3.0928395192787D-01
88  8.7000000000000D-01  1.2374912813515D+00 -2.8519239616405D-01
89  8.8000000000000D-01  1.2353472190231D+00 -2.5964827908364D-01
90  8.9000000000000D-01  1.2323275044348D+00 -2.3268547628165D-01
91  9.0000000000000D-01  1.2284291991430D+00 -2.0434217305463D-01
92  9.1000000000000D-01  1.2236508022807D+00 -1.7466078555958D-01
93  9.2000000000000D-01  1.2179922699173D+00 -1.4368786777166D-01
94  9.3000000000000D-01  1.2114550311383D+00 -1.1147400445818D-01
95  9.4000000000000D-01  1.2040420007696D+00 -7.8073690437485D-02
96  9.5000000000000D-01  1.1957575886840D+00 -4.3545196442139D-02
97  9.6000000000000D-01  1.1866077056306D+00 -7.9504219549181D-03
98  9.7000000000000D-01  1.1765997655419D+00  2.8645264564904D-02
99  9.8000000000000D-01  1.1657426842761D+00  6.6173197599130D-02
100  9.9000000000000D-01  1.1540468747683D+00  1.0456159812096D-01
101  1.0000000000000D+00  1.1415242385656D+00  1.4373576822143D-01
102  1.0100000000000D+00  1.1281881537389D+00  1.8361829621254D-01
103  1.0200000000000D+00  1.1140534591656D+00  2.2412927156662D-01
104  1.0300000000000D+00  1.0991364351944D+00  2.6518650901120D-01
105  1.0400000000000D+00  1.0834547807069D+00  3.0670578106498D-01
106  1.0500000000000D+00  1.0670275866058D+00  3.4860105826187D-01
107  1.0600000000000D+00  1.0498753057657D+00  3.9078475628133D-01
108  1.0700000000000D+00  1.0320197194930D+00  4.3316798917336D-01
109  1.0800000000000D+00  1.0134839005547D+00  4.7566082783906D-01
110  1.0900000000000D+00  9.9429217283918D-01  5.1817256290743D-01
111  1.1000000000000D+00  9.7447006772828D-01  5.6061197112532D-01
112  1.1100000000000D+00  9.5404427726560D-01  6.0288758436303D-01
113  1.1200000000000D+00  9.3304260421694D-01  6.4490796032330D-01
114  1.1300000000000D+00  9.1149390912780D-01  6.8658195403229D-01
115  1.1400000000000D+00  8.8942805449137D-01  7.2781898918306D-01
116  1.1500000000000D+00  8.6687584615050D-01  7.6852932839905D-01
117  1.1600000000000D+00  8.4386897206522D-01  8.0862434148627D-01
118  1.1700000000000D+00  8.2043993858513D-01  8.4801677074564D-01
119  1.1800000000000D+00  7.9662200437432D-01  8.8662099242340D-01
120  1.1900000000000D+00  7.7244911214505D-01  9.2435327338960D-01
121  1.2000000000000D+00  7.4795581836332D-01  9.6113202215177D-01
122  1.2100000000000D+00  7.2317722109448D-01  9.9687803331925D-01
123  1.2200000000000D+00  6.9814888616678D-01  1.0315147246643D+00
124  1.2300000000000D+00  6.7290677183545D-01  1.0649683659501D+00
125  1.2400000000000D+00  6.4748715213417D-01  1.0971682987152D+00
126  1.2500000000000D+00  6.2192653910794D-01  1.1280471462391D+00
127  1.2600000000000D+00  5.9626160412581D-01  1.1575410129556D+00
128  1.2700000000000D+00  5.7052909847499D-01  1.1855896726058D+00
129  1.2800000000000D+00  5.4476577344189D-01  1.2121367444561D+00
130  1.2900000000000D+00  5.1900830009019D-01  1.2371298569779D+00
131  1.3000000000000D+00  4.9329318894632D-01  1.2605207983993D+00
132  1.3100000000000D+00  4.6765670980613D-01  1.2822656535839D+00
133  1.3200000000000D+00  4.4213481187817D-01  1.3023249267861D+00
134  1.3300000000000D+00  4.1676304447835D-01  1.3206636498201D+00
135  1.3400000000000D+00  3.9157647849315D-01  1.3372514752609D+00
136  1.3500000000000D+00  3.6660962882545D-01  1.3520627543921D+00
137  1.3600000000000D+00  3.4189637803925D-01  1.3650765995610D+00
138  1.3700000000000D+00  3.1746990141586D-01  1.3762769307715D+00
139  1.3800000000000D+00  2.9336259363042D-01  1.3856525063630D+00
140  1.3900000000000D+00  2.6960599726195D-01  1.3931969375996D+00
141  1.4000000000000D+00  2.4623073333559D-01  1.3989086872214D+00
142  1.4100000000000D+00  2.2326643410232D-01  1.4027910518878D+00
143  1.4200000000000D+00  2.0074167825334D-01  1.4048521285993D+00
144  1.4300000000000D+00  1.7868392875223D-01  1.4051047652792D+00
145  1.4400000000000D+00  1.5711947348585D-01  1.4035664955663D+00
146  1.4500000000000D+00  1.3607336889557D-01  1.4002594582038D+00
147  1.4600000000000D+00  1.1556938677628D-01  1.3952103011827D+00
148  1.4700000000000D+00  9.5629964403034D-02  1.3884500710444D+00
149  1.4800000000000D+00  7.6276158136587D-02  1.3800140877427D+00
150  1.4900000000000D+00  5.7527600678579D-02  1.3699418054101D+00
151  1.5000000000000D+00  3.9402462082935D-02  1.3582766596705D+00
152  1.5100000000000D+00  2.1917414699158D-02  1.3450659018301D+00
153  1.5200000000000D+00  5.0876021264095D-03  1.3303604207071D+00
154  1.5300000000000D+00 -1.1073387673972D-02  1.3142145525594D+00
155  1.5400000000000D+00 -2.6553545025030D-02  1.2966858798470D+00
156  1.5500000000000D+00 -4.1342456844884D-02  1.2778350194744D+00
157  1.5600000000000D+00 -5.5431320524020D-02  1.2577254012058D+00
158  1.5700000000000D+00 -6.8812953335221D-02  1.2364230370476D+00
159  1.5800000000000D+00 -8.1481797259970D-02  1.2139962822722D+00
160  1.5900000000000D+00 -9.3433919261574D-02  1.1905155889720D+00
161  1.6000000000000D+00 -1.0466700687314D-01  1.1660532528301D+00
162  1.6100000000000D+00 -1.1518035918537D-01  1.1406831540286D+00
163  1.6200000000000D+00 -1.2497487310678D-01  1.1144804930320D+00
164  1.6300000000000D+00 -1.3405302501111D-01  1.0875215221379D+00
165  1.6400000000000D+00 -1.4241884767335D-01  1.0598832735998D+00
166  1.6500000000000D+00 -1.5007790262216D-01  1.0316432851628D+00
167  1.6600000000000D+00 -1.5703724784658D-01  1.0028793238640D+00
168  1.6700000000000D+00 -1.6330540099714D-01  9.7366910888282D-01
169  1.6800000000000D+00 -1.6889229805241D-01  9.4409003432094D-01
170  1.6900000000000D+00 -1.7380924760771D-01  9.1421889263047D-01
171  1.7000000000000D+00 -1.7806888078374D-01  8.8413159958506D-01
172  1.7100000000000D+00 -1.8168509693477D-01  8.5390292142787D-01
173  1.7200000000000D+00 -1.8467300517199D-01  8.2360620510887D-01
174  1.7300000000000D+00 -1.8704886191259D-01  7.9331311212318D-01
175  1.7400000000000D+00 -1.8883000447767D-01  7.6309335690589D-01
176  1.7500000000000D+00 -1.9003478098817D-01  7.3301445011660D-01
177  1.7600000000000D+00 -1.9068247658013D-01  7.0314144785717D-01
178  1.7700000000000D+00 -1.9079323623269D-01  6.7353670690454D-01
179  1.7800000000000D+00 -1.9038798422088D-01  6.4425964715361D-01
180  1.7900000000000D+00 -1.8948834053288D-01  6.1536652101946D-01
181  1.8000000000000D+00 -1.8811653366230D-01  5.8691018696535D-01
182  1.8100000000000D+00 -1.8629531405862D-01  5.5893991444776D-01
183  1.8200000000000D+00 -1.8404785333763D-01  5.3150111876738D-01
184  1.8300000000000D+00 -1.8139767154654D-01  5.0463530330840D-01
185  1.8400000000000D+00 -1.7836852510535D-01  4.7837978342215D-01
186  1.8500000000000D+00 -1.7498427369642D-01  4.5276724467712D-01
187  1.8600000000000D+00 -1.7126883109329D-01  4.2782593672080D-01
188  1.8700000000000D+00 -1.6724614808502D-01  4.0358014607061D-01
189  1.8800000000000D+00 -1.6294019087855D-01  3.8005056416806D-01
190  1.8900000000000D+00 -1.5837495686983D-01  3.5725478461133D-01
191  1.9000000000000D+00 -1.5357450784016D-01  3.3520796753506D-01
192  1.9100000000000D+00 -1.4856287945019D-01  3.1392258785382D-01
193  1.9200000000000D+00 -1.4336402237769D-01  2.9340836185348D-01
194  1.9300000000000D+00 -1.3800177165876D-01  2.7367245922776D-01
195  1.9400000000000D+00 -1.3249979585036D-01  2.5471953934445D-01
196  1.9500000000000D+00 -1.2688155145763D-01  2.3655183446105D-01
197  1.9600000000000D+00 -1.2117023904816D-01  2.1916924925707D-01
198  1.9700000000000D+00 -1.1538875896603D-01  2.0256945851194D-01
199  1.9800000000000D+00 -1.0955966819112D-01  1.8674801416281D-01
200  1.9900000000000D+00 -1.0370513800280D-01  1.7169845807170D-01
201  2.0000000000000D+00 -9.7846912592186D-02  1.5741244046240D-01
202  2.0100000000000D+00 -9.2006268573990D-02  1.4387984280596D-01
203  2.0200000000000D+00 -8.6203975493387D-02  1.3108890469891D-01
204  2.0300000000000D+00 -8.0460257345713D-02  1.1902635395654D-01
205  2.0400000000000D+00 -7.4794755134414D-02  1.0767753917936D-01
206  2.0500000000000D+00 -6.9226490531511D-02  9.7026563995175D-02
207  2.0600000000000D+00 -6.3773830639190D-02  8.7056422510128D-02
208  2.0700000000000D+00 -5.8454453917689D-02  7.7749134834805D-02
209  2.0800000000000D+00 -5.3285317292268D-02  6.9085882392464D-02
210  2.0900000000000D+00 -4.8282624477806D-02  6.1047142159519D-02
211  2.1000000000000D+00 -4.3461795562085D-02  5.3612818838215D-02
212  2.1100000000000D+00 -3.8837437858150D-02  4.6762375186015D-02
213  2.1200000000000D+00 -3.4423318086334D-02  4.0474958592157D-02
214  2.1300000000000D+00 -3.0232335890417D-02  3.4729524447011D-02
215  2.1400000000000D+00 -2.6276498729866D-02  2.9504955219459D-02
216  2.1500000000000D+00 -2.2566898191928D-02  2.4780174138217D-02
217  2.1600000000000D+00 -1.9113687711057D-02  2.0534254466858D-02
218  2.1700000000000D+00 -1.5926061782910D-02  1.6746521835459D-02
219  2.1800000000000D+00 -1.3012236651914D-02  1.3396650744595D-02
220  2.1900000000000D+00 -1.0379432505988D-02  1.0464754542993D-02
221  2.2000000000000D+00 -8.0353236711169D-03  7.9325929405098D-03
222  2.2100000000000D+00 -5.9827855786927D-03  5.7796257238750D-03
223  2.2200000000000D+00 -4.2236438466291D-03  3.9859845312915D-03
224  2.2300000000000D+00 -2.7552852830388D-03  2.5302870028154D-03
225  2.2400000000000D+00 -1.6012709752203D-03  1.4115576639518D-03
226  2.2500000000000D+00 -7.7245758451408D-04  6.2040889790672D-04
227  2.2600000000000D+00 -2.5349407767933D-04  1.3121040558053D-04
228  2.2700000000000D+00  1.2903872266880D-05 -1.0809388385347D-04
229  2.2800000000000D+00  9.2596390282455D-05 -1.5477674090197D-04
230  2.2900000000000D+00  6.4493673062581D-05 -9.2251271524845D-05
231  2.3000000000000D+00  3.1052217067894D-06 -4.2020485053573D-06
232  2.3100000000000D+00 -2.1840591132867D-05  2.9159806811064D-05
233  2.3200000000000D+00 -1.6565750440545D-05  2.1651839580227D-05
234  2.3300000000000D+00  1.1017240735297D-06 -1.5802039244673D-06
235  2.3400000000000D+00  4.4054956619176D-06 -6.2356021161991D-06
236  2.3500000000000D+00  2.6368297676925D-06 -3.6942693134207D-06
237  2.3600000000000D+00 -7.6296927435798D-08  1.9313999616776D-07
238  2.3700000000000D+00 -1.5913390759458D-07  4.0283564929715D-07
239  2.3800000000000D+00 -7.0085499344732D-08  1.7741622801583D-07
240  2.3900000000000D+00  0.0000000000000D+00  0.0000000000000D+00
241  2.4000000000000D+00  0.0000000000000D+00  0.0000000000000D+00
242  2.4100000000000D+00  0.0000000000000D+00  0.0000000000000D+00
243  2.4200000000000D+00  0.0000000000000D+00  0.0000000000000D+00
244  2.4300000000000D+00  0.0000000000000D+00  0.0000000000000D+00
245  2.4400000000000D+00  0.0000000000000D+00  0.0000000000000D+00
246  2.4500000000000D+00  0.0000000000000D+00  0.0000000000000D+00
247  2.4600000000000D+00  0.0000000000000D+00  0.0000000000000D+00
248  2.4700000000000D+00  0.0000000000000D+00  0.0000000000000D+00
249  2.4800000000000D+00  0.0000000000000D+00  0.0000000000000D+00
250  2.4900000000000D+00  0.0000000000000D+00  0.0000000000000D+00
251  2.5000000000000D+00  0.0000000000000D+00  0.0000000000000D+00
252  2.5100000000000D+00  0.0000000000000D+00  0.0000000000000D+00
253  2.5200000000000D+00  0.0000000000000D+00  0.0000000000000D+00
254  2.5300000000000D+00  0.0000000000000D+00  0.0000000000000D+00
255  2.5400000000000D+00  0.0000000000000D+00  0.0000000000000D+00
256  2.5500000000000D+00  0.0000000000000D+00  0.0000000000000D+00
257  2.5600000000000D+00  0.0000000000000D+00  0.0000000000000D+00
258  2.5700000000000D+00  0.0000000000000D+00  0.0000000000000D+00
259  2.5800000000000D+00  0.0000000000000D+00  0.0000000000000D+00
260  2.5900000000000D+00  0.0000000000000D+00  0.0000000000000D+00
261  2.6000000000000D+00  0.0000000000000D+00  0.0000000000000D+00
262  2.6100000000000D+00  0.0000000000000D+00  0.0000000000000D+00
263  2.6200000000000D+00  0.0000000000000D+00  0.0000000000000D+00
264  2.6300000000000D+00  0.0000000000000D+00  0.0000000000000D+00
265  2.6400000000000D+00  0.0000000000000D+00  0.0000000000000D+00
266  2.6500000000000D+00  0.0000000000000D+00  0.0000000000000D+00
267  2.6600000000000D+00  0.0000000000000D+00  0.0000000000000D+00
268  2.6700000000000D+00  0.0000000000000D+00  0.0000000000000D+00
269  2.6800000000000D+00  0.0000000000000D+00  0.0000000000000D+00
270  2.6900000000000D+00  0.0000000000000D+00  0.0000000000000D+00
271  2.7000000000000D+00  0.0000000000000D+00  0.0000000000000D+00
272  2.7100000000000D+00  0.0000000000000D+00  0.0000000000000D+00
273  2.7200000000000D+00  0.0000000000000D+00  0.0000000000000D+00
274  2.7300000000000D+00  0.0000000000000D+00  0.0000000000000D+00
275  2.7400000000000D+00  0.0000000000000D+00  0.0000000000000D+00
276  2.7500000000000D+00  0.0000000000000D+00  0.0000000000000D+00
277  2.7600000000000D+00  0.0000000000000D+00  0.0000000000000D+00
278  2.7700000000000D+00  0.0000000000000D+00  0.0000000000000D+00
279  2.7800000000000D+00  0.0000000000000D+00  0.0000000000000D+00
280  2.7900000000000D+00  0.0000000000000D+00  0.0000000000000D+00
281  2.8000000000000D+00  0.0000000000000D+00  0.0000000000000D+00
282  2.8100000000000D+00  0.0000000000000D+00  0.0000000000000D+00
283  2.8200000000000D+00  0.0000000000000D+00  0.0000000000000D+00
284  2.8300000000000D+00  0.0000000000000D+00  0.0000000000000D+00
285  2.8400000000000D+00  0.0000000000000D+00  0.0000000000000D+00
286  2.8500000000000D+00  0.0000000000000D+00  0.0000000000000D+00
287  2.8600000000000D+00  0.0000000000000D+00  0.0000000000000D+00
288  2.8700000000000D+00  0.0000000000000D+00  0.0000000000000D+00
289  2.8800000000000D+00  0.0000000000000D+00  0.0000000000000D+00
290  2.8900000000000D+00  0.0000000000000D+00  0.0000000000000D+00
291  2.9000000000000D+00  0.0000000000000D+00  0.0000000000000D+00
292  2.9100000000000D+00  0.0000000000000D+00  0.0000000000000D+00
293  2.9200000000000D+00  0.0000000000000D+00  0.0000000000000D+00
294  2.9300000000000D+00  0.0000000000000D+00  0.0000000000000D+00
295  2.9400000000000D+00  0.0000000000000D+00  0.0000000000000D+00
296  2.9500000000000D+00  0.0000000000000D+00  0.0000000000000D+00
297  2.9600000000000D+00  0.0000000000000D+00  0.0000000000000D+00
298  2.9700000000000D+00  0.0000000000000D+00  0.0000000000000D+00
299  2.9800000000000D+00  0.0000000000000D+00  0.0000000000000D+00
300  2.9900000000000D+00  0.0000000000000D+00  0.0000000000000D+00
301  3.0000000000000D+00  0.0000000000000D+00  0.0000000000000D+00
302  3.0100000000000D+00  0.0000000000000D+00  0.0000000000000D+00
303  3.0200000000000D+00  0.0000000000000D+00  0.0000000000000D+00
304  3.0300000000000D+00  0.0000000000000D+00  0.0000000000000D+00
305  3.0400000000000D+00  0.0000000000000D+00  0.0000000000000D+00
306  3.0500000000000D+00  0.0000000000000D+00  0.0000000000000D+00
307  3.0600000000000D+00  0.0000000000000D+00  0.0000000000000D+00
308  3.0700000000000D+00  0.0000000000000D+00  0.0000000000000D+00
309  3.0800000000000D+00  0.0000000000000D+00  0.0000000000000D+00
310  3.0900000000000D+00  0.0000000000000D+00  0.0000000000000D+00
311  3.1000000000000D+00  0.0000000000000D+00  0.0000000000000D+00
312  3.1100000000000D+00  0.0000000000000D+00  0.0000000000000D+00
313  3.1200000000000D+00  0.0000000000000D+00  0.0000000000000D+00
314  3.1300000000000D+00  0.0000000000000D+00  0.0000000000000D+00
315  3.1400000000000D+00  0.0000000000000D+00  0.0000000000000D+00
316  3.1500000000000D+00  0.0000000000000D+00  0.0000000000000D+00
317  3.1600000000000D+00  0.0000000000000D+00  0.0000000000000D+00
318  3.1700000000000D+00  0.0000000000000D+00  0.0000000000000D+00
319  3.1800000000000D+00  0.0000000000000D+00  0.0000000000000D+00
320  3.1900000000000D+00  0.0000000000000D+00  0.0000000000000D+00
321  3.2000000000000D+00  0.0000000000000D+00  0.0000000000000D+00
322  3.2100000000000D+00  0.0000000000000D+00  0.0000000000000D+00
323  3.2200000000000D+00  0.0000000000000D+00  0.0000000000000D+00
324  3.2300000000000D+00  0.0000000000000D+00  0.0000000000000D+00
325  3.2400000000000D+00  0.0000000000000D+00  0.0000000000000D+00
326  3.2500000000000D+00  0.0000000000000D+00  0.0000000000000D+00
327  3.2600000000000D+00  0.0000000000000D+00  0.0000000000000D+00
328  3.2700000000000D+00  0.0000000000000D+00  0.0000000000000D+00
329  3.2800000000000D+00  0.0000000000000D+00  0.0000000000000D+00
330  3.2900000000000D+00  0.0000000000000D+00  0.0000000000000D+00
331  3.3000000000000D+00  0.0000000000000D+00  0.0000000000000D+00
332  3.3100000000000D+00  0.0000000000000D+00  0.0000000000000D+00
333  3.3200000000000D+00  0.0000000000000D+00  0.0000000000000D+00
334  3.3300000000000D+00  0.0000000000000D+00  0.0000000000000D+00
335  3.3400000000000D+00  0.0000000000000D+00  0.0000000000000D+00
336  3.3500000000000D+00  0.0000000000000D+00  0.0000000000000D+00
337  3.3600000000000D+00  0.0000000000000D+00  0.0000000000000D+00
338  3.3700000000000D+00  0.0000000000000D+00  0.0000000000000D+00
339  3.3800000000000D+00  0.0000000000000D+00  0.0000000000000D+00
340  3.3900000000000D+00  0.0000000000000D+00  0.0000000000000D+00
341  3.4000000000000D+00  0.0000000000000D+00  0.0000000000000D+00
342  3.4100000000000D+00  0.0000000000000D+00  0.0000000000000D+00
343  3.4200000000000D+00  0.0000000000000D+00  0.0000000000000D+00
344  3.4300000000000D+00  0.0000000000000D+00  0.0000000000000D+00
345  3.4400000000000D+00  0.0000000000000D+00  0.0000000000000D+00
346  3.4500000000000D+00  0.0000000000000D+00  0.0000000000000D+00
347  3.4600000000000D+00  0.0000000000000D+00  0.0000000000000D+00
348  3.4700000000000D+00  0.0000000000000D+00  0.0000000000000D+00
349  3.4800000000000D+00  0.0000000000000D+00  0.0000000000000D+00
350  3.4900000000000D+00  0.0000000000000D+00  0.0000000000000D+00
351  3.5000000000000D+00  0.0000000000000D+00  0.0000000000000D+00
352  3.5100000000000D+00  0.0000000000000D+00  0.0000000000000D+00
353  3.5200000000000D+00  0.0000000000000D+00  0.0000000000000D+00
354  3.5300000000000D+00  0.0000000000000D+00  0.0000000000000D+00
355  3.5400000000000D+00  0.0000000000000D+00  0.0000000000000D+00
356  3.5500000000000D+00  0.0000000000000D+00  0.0000000000000D+00
357  3.5600000000000D+00  0.0000000000000D+00  0.0000000000000D+00
358  3.5700000000000D+00  0.0000000000000D+00  0.0000000000000D+00
359  3.5800000000000D+00  0.0000000000000D+00  0.0000000000000D+00
360  3.5900000000000D+00  0.0000000000000D+00  0.0000000000000D+00
361  3.6000000000000D+00  0.0000000000000D+00  0.0000000000000D+00
362  3.6100000000000D+00  0.0000000000000D+00  0.0000000000000D+00
363  3.6200000000000D+00  0.0000000000000D+00  0.0000000000000D+00
364  3.6300000000000D+00  0.0000000000000D+00  0.0000000000000D+00
365  3.6400000000000D+00  0.0000000000000D+00  0.0000000000000D+00
366  3.6500000000000D+00  0.0000000000000D+00  0.0000000000000D+00
367  3.6600000000000D+00  0.0000000000000D+00  0.0000000000000D+00
368  3.6700000000000D+00  0.0000000000000D+00  0.0000000000000D+00
369  3.6800000000000D+00  0.0000000000000D+00  0.0000000000000D+00
370  3.6900000000000D+00  0.0000000000000D+00  0.0000000000000D+00
371  3.7000000000000D+00  0.0000000000000D+00  0.0000000000000D+00
372  3.7100000000000D+00  0.0000000000000D+00  0.0000000000000D+00
373  3.7200000000000D+00  0.0000000000000D+00  0.0000000000000D+00
374  3.7300000000000D+00  0.0000000000000D+00  0.0000000000000D+00
375  3.7400000000000D+00  0.0000000000000D+00  0.0000000000000D+00
376  3.7500000000000D+00  0.0000000000000D+00  0.0000000000000D+00
377  3.7600000000000D+00  0.0000000000000D+00  0.0000000000000D+00
378  3.7700000000000D+00  0.0000000000000D+00  0.0000000000000D+00
379  3.7800000000000D+00  0.0000000000000D+00  0.0000000000000D+00
380  3.7900000000000D+00  0.0000000000000D+00  0.0000000000000D+00
381  3.8000000000000D+00  0.0000000000000D+00  0.0000000000000D+00
382  3.8100000000000D+00  0.0000000000000D+00  0.0000000000000D+00
383  3.8200000000000D+00  0.0000000000000D+00  0.0000000000000D+00
384  3.8300000000000D+00  0.0000000000000D+00  0.0000000000000D+00
385  3.8400000000000D+00  0.0000000000000D+00  0.0000000000000D+00
386  3.8500000000000D+00  0.0000000000000D+00  0.0000000000000D+00
387  3.8600000000000D+00  0.0000000000000D+00  0.0000000000000D+00
388  3.8700000000000D+00  0.0000000000000D+00  0.0000000000000D+00
389  3.8800000000000D+00  0.0000000000000D+00  0.0000000000000D+00
390  3.8900000000000D+00  0.0000000000000D+00  0.0000000000000D+00
391  3.9000000000000D+00  0.0000000000000D+00  0.0000000000000D+00
392  3.9100000000000D+00  0.0000000000000D+00  0.0000000000000D+00
393  3.9200000000000D+00  0.0000000000000D+00  0.0000000000000D+00
394  3.9300000000000D+00  0.0000000000000D+00  0.0000000000000D+00
395  3.9400000000000D+00  0.0000000000000D+00  0.0000000000000D+00
396  3.9500000000000D+00  0.0000000000000D+00  0.0000000000000D+00
397  3.9600000000000D+00  0.0000000000000D+00  0.0000000000000D+00
398  3.9700000000000D+00  0.0000000000000D+00  0.0000000000000D+00
399  3.9800000000000D+00  0.0000000000000D+00  0.0000000000000D+00
400  3.9900000000000D+00  0.0000000000000D+00  0.0000000000000D+00
401  4.0000000000000D+00  0.0000000000000D+00  0.0000000000000D+00
402  4.0100000000000D+00  0.0000000000000D+00  0.0000000000000D+00
403  4.0200000000000D+00  0.0000000000000D+00  0.0000000000000D+00
404  4.0300000000000D+00  0.0000000000000D+00  0.0000000000000D+00
405  4.0400000000000D+00  0.0000000000000D+00  0.0000000000000D+00
406  4.0500000000000D+00  0.0000000000000D+00  0.0000000000000D+00
407  4.0600000000000D+00  0.0000000000000D+00  0.0000000000000D+00
408  4.0700000000000D+00  0.0000000000000D+00  0.0000000000000D+00
409  4.0800000000000D+00  0.0000000000000D+00  0.0000000000000D+00
410  4.0900000000000D+00  0.0000000000000D+00  0.0000000000000D+00
411  4.1000000000000D+00  0.0000000000000D+00  0.0000000000000D+00
412  4.1100000000000D+00  0.0000000000000D+00  0.0000000000000D+00
413  4.1200000000000D+00  0.0000000000000D+00  0.0000000000000D+00
414  4.1300000000000D+00  0.0000000000000D+00  0.0000000000000D+00
415  4.1400000000000D+00  0.0000000000000D+00  0.0000000000000D+00
416  4.1500000000000D+00  0.0000000000000D+00  0.0000000000000D+00
417  4.1600000000000D+00  0.0000000000000D+00  0.0000000000000D+00
418  4.1700000000000D+00  0.0000000000000D+00  0.0000000000000D+00
419  4.1800000000000D+00  0.0000000000000D+00  0.0000000000000D+00
420  4.1900000000000D+00  0.0000000000000D+00  0.0000000000000D+00
421  4.2000000000000D+00  0.0000000000000D+00  0.0000000000000D+00
422  4.2100000000000D+00  0.0000000000000D+00  0.0000000000000D+00
423  4.2200000000000D+00  0.0000000000000D+00  0.0000000000000D+00
424  4.2300000000000D+00  0.0000000000000D+00  0.0000000000000D+00
425  4.2400000000000D+00  0.0000000000000D+00  0.0000000000000D+00
426  4.2500000000000D+00  0.0000000000000D+00  0.0000000000000D+00
427  4.2600000000000D+00  0.0000000000000D+00  0.0000000000000D+00
428  4.2700000000000D+00  0.0000000000000D+00  0.0000000000000D+00
429  4.2800000000000D+00  0.0000000000000D+00  0.0000000000000D+00
430  4.2900000000000D+00  0.0000000000000D+00  0.0000000000000D+00
431  4.3000000000000D+00  0.0000000000000D+00  0.0000000000000D+00
432  4.3100000000000D+00  0.0000000000000D+00  0.0000000000000D+00
433  4.3200000000000D+00  0.0000000000000D+00  0.0000000000000D+00
434  4.3300000000000D+00  0.0000000000000D+00  0.0000000000000D+00
435  4.3400000000000D+00  0.0000000000000D+00  0.0000000000000D+00
436  4.3500000000000D+00  0.0000000000000D+00  0.0000000000000D+00
437  4.3600000000000D+00  0.0000000000000D+00  0.0000000000000D+00
438  4.3700000000000D+00  0.0000000000000D+00  0.0000000000000D+00
439  4.3800000000000D+00  0.0000000000000D+00  0.0000000000000D+00
440  4.3900000000000D+00  0.0000000000000D+00  0.0000000000000D+00
441  4.4000000000000D+00  0.0000000000000D+00  0.0000000000000D+00
442  4.4100000000000D+00  0.0000000000000D+00  0.0000000000000D+00
443  4.4200000000000D+00  0.0000000000000D+00  0.0000000000000D+00