Sb    ONCVPSP-3.2.3  r_core=   2.00182   2.12485   1.81962
51.0000     15.0000      161006    zatom,zion,pspd
8   -1012   2     4   600     0    pspcod,pspxc,lmax,lloc,mmax,r2well
5.99000000  5.00000000  0.00000000    rchrg fchrg qchrg
2     2     2     0     0    nproj
1     1           extension_switch
0                         6.8044950984165D+00  7.3209333448311D-01
1  0.0000000000000D+00 -9.5212171480341D-12  1.3889916994358D-11
2  1.0000000000000D-02  2.5212930215730D-02 -2.5993586304039D-02
3  2.0000000000000D-02  5.0387389647432D-02 -5.1909793494537D-02
4  3.0000000000000D-02  7.5485079310095D-02 -7.7671547393520D-02
5  4.0000000000000D-02  1.0046804305811D-01 -1.0320238246948D-01
6  5.0000000000000D-02  1.2529883711079D-01 -1.2842674310245D-01
7  6.0000000000000D-02  1.4994069731153D-01 -1.5327028118891D-01
8  7.0000000000000D-02  1.7435770337627D-01 -1.7766014888288D-01
9  8.0000000000000D-02  1.9851493939645D-01 -2.0152528528313D-01
10  9.0000000000000D-02  2.2237864987362D-01 -2.2479669589418D-01
11  1.0000000000000D-01  2.4591639057708D-01 -2.4740772370971D-01
12  1.1000000000000D-01  2.6909717353279D-01 -2.6929431079153D-01
13  1.2000000000000D-01  2.9189160547079D-01 -2.9039524924558D-01
14  1.3000000000000D-01  3.1427201908008D-01 -3.1065242052826D-01
15  1.4000000000000D-01  3.3621259644363D-01 -3.3001102205191D-01
16  1.5000000000000D-01  3.5768948405270D-01 -3.4841978009765D-01
17  1.6000000000000D-01  3.7868089882840D-01 -3.6583114808664D-01
18  1.7000000000000D-01  3.9916722460944D-01 -3.8220148930770D-01
19  1.8000000000000D-01  4.1913109859859D-01 -3.9749124324958D-01
20  1.9000000000000D-01  4.3855748729612D-01 -4.1166507474066D-01
21  2.0000000000000D-01  4.5743375148668D-01 -4.2469200515658D-01
22  2.1000000000000D-01  4.7574969988640D-01 -4.3654552501822D-01
23  2.2000000000000D-01  4.9349763109955D-01 -4.4720368736773D-01
24  2.3000000000000D-01  5.1067236357875D-01 -4.5664918137911D-01
25  2.4000000000000D-01  5.2727125332962D-01 -4.6486938573263D-01
26  2.5000000000000D-01  5.4329419914921D-01 -4.7185640135771D-01
27  2.6000000000000D-01  5.5874363523831D-01 -4.7760706322851D-01
28  2.7000000000000D-01  5.7362451107984D-01 -4.8212293097809D-01
29  2.8000000000000D-01  5.8794425852956D-01 -4.8541025818246D-01
30  2.9000000000000D-01  6.0171274612040D-01 -4.8747994025346D-01
31  3.0000000000000D-01  6.1494222063853D-01 -4.8834744096949D-01
32  3.1000000000000D-01  6.2764723608674D-01 -4.8803269776557D-01
33  3.2000000000000D-01  6.3984457020938D-01 -4.8656000599834D-01
34  3.3000000000000D-01  6.5155312881222D-01 -4.8395788249733D-01
35  3.4000000000000D-01  6.6279383817029D-01 -4.8025890881080D-01
36  3.5000000000000D-01  6.7358952587663D-01 -4.7549955465180D-01
37  3.6000000000000D-01  6.8396479054456D-01 -4.6971998214864D-01
38  3.7000000000000D-01  6.9394586083561D-01 -4.6296383160110D-01
39  3.8000000000000D-01  7.0356044434398D-01 -4.5527798954188D-01
40  3.9000000000000D-01  7.1283756692644D-01 -4.4671233999829D-01
41  4.0000000000000D-01  7.2180740312283D-01 -4.3731949994451D-01
42  4.1000000000000D-01  7.3050109836806D-01 -4.2715454002697D-01
43  4.2000000000000D-01  7.3895058374915D-01 -4.1627469173555D-01
44  4.3000000000000D-01  7.4718838411206D-01 -4.0473904227998D-01
45  4.4000000000000D-01  7.5524742037194D-01 -3.9260821851411D-01
46  4.5000000000000D-01  7.6316080692546D-01 -3.7994406132891D-01
47  4.6000000000000D-01  7.7096164510684D-01 -3.6680929200950D-01
48  4.7000000000000D-01  7.7868281366800D-01 -3.5326717211922D-01
49  4.8000000000000D-01  7.8635675729839D-01 -3.3938115853668D-01
50  4.9000000000000D-01  7.9401527423105D-01 -3.2521455532714D-01
51  5.0000000000000D-01  8.0168930400807D-01 -3.1083016417818D-01
52  5.1000000000000D-01  8.0940871650055D-01 -2.9628993517128D-01
53  5.2000000000000D-01  8.1720210329486D-01 -2.8165461969317D-01
54  5.3000000000000D-01  8.2509657256878D-01 -2.6698342731614D-01
55  5.4000000000000D-01  8.3311754858725D-01 -2.5233368849127D-01
56  5.5000000000000D-01  8.4128857694800D-01 -2.3776052490552D-01
57  5.6000000000000D-01  8.4963113670194D-01 -2.2331652934960D-01
58  5.7000000000000D-01  8.5816446046198D-01 -2.0905145693084D-01
59  5.8000000000000D-01  8.6690536359640D-01 -1.9501192944097D-01
60  5.9000000000000D-01  8.7586808357933D-01 -1.8124115465567D-01
61  6.0000000000000D-01  8.8506413054115D-01 -1.6777866229794D-01
62  6.1000000000000D-01  8.9450215002514D-01 -1.5466005834250D-01
63  6.2000000000000D-01  9.0418779891474D-01 -1.4191679927311D-01
64  6.3000000000000D-01  9.1412363544676D-01 -1.2957598782884D-01
65  6.4000000000000D-01  9.2430902417175D-01 -1.1766019168904D-01
66  6.5000000000000D-01  9.3474005666139D-01 -1.0618728645027D-01
67  6.6000000000000D-01  9.4540948869707D-01 -9.5170324142715D-02
68  6.7000000000000D-01  9.5630669460153D-01 -8.4617428417246D-02
69  6.8000000000000D-01  9.6741763929782D-01 -7.4531717409975D-02
70  6.9000000000000D-01  9.7872486859854D-01 -6.4911255157795D-02
71  7.0000000000000D-01  9.9020751814015D-01 -5.5749032296344D-02
72  7.1000000000000D-01  1.0018413412871D+00 -4.7032976623848D-02
73  7.2000000000000D-01  1.0135987562345D+00 -3.8745993957513D-02
74  7.3000000000000D-01  1.0254489124398D+00 -3.0866039548943D-02
75  7.4000000000000D-01  1.0373577764132D+00 -2.3366220156904D-02
76  7.5000000000000D-01  1.0492882367917D+00 -1.6214926705552D-02
77  7.6000000000000D-01  1.0612002285152D+00 -9.3759972811958D-03
78  7.7000000000000D-01  1.0730508758191D+00 -2.8089100439360D-03
79  7.8000000000000D-01  1.0847946536455D+00  3.5309945477775D-03
80  7.9000000000000D-01  1.0963835669708D+00  9.6922629808765D-03
81  8.0000000000000D-01  1.1077673474383D+00  1.5727050358587D-02
82  8.1000000000000D-01  1.1188936665784D+00  2.1690815633945D-02
83  8.2000000000000D-01  1.1297083647943D+00  2.7641991714919D-02
84  8.3000000000000D-01  1.1401556951887D+00  3.3641631919736D-02
85  8.4000000000000D-01  1.1501785812098D+00  3.9753034425310D-02
86  8.5000000000000D-01  1.1597188869953D+00  4.6041346509683D-02
87  8.6000000000000D-01  1.1687176992086D+00  5.2573150540901D-02
88  8.7000000000000D-01  1.1771156190682D+00  5.9416033806483D-02
89  8.8000000000000D-01  1.1848530631972D+00  6.6638144411233D-02
90  8.9000000000000D-01  1.1918705718418D+00  7.4307735593332D-02
91  9.0000000000000D-01  1.1981091229417D+00  8.2492700919980D-02
92  9.1000000000000D-01  1.2035104504756D+00  9.1260102922358D-02
93  9.2000000000000D-01  1.2080173654517D+00  1.0067569781561D-01
94  9.3000000000000D-01  1.2115740778704D+00  1.1080345901991D-01
95  9.4000000000000D-01  1.2141265179495D+00  1.2170510225680D-01
96  9.5000000000000D-01  1.2156226548777D+00  1.3343961503505D-01
97  9.6000000000000D-01  1.2160128113446D+00  1.4606279336569D-01
98  9.7000000000000D-01  1.2152499720871D+00  1.5962678855528D-01
99  9.8000000000000D-01  1.2132900846981D+00  1.7417966691740D-01
100  9.9000000000000D-01  1.2100923509511D+00  1.8976498521765D-01
101  1.0000000000000D+00  1.2056195069237D+00  2.0642138462482D-01
102  1.0100000000000D+00  1.1998380902305D+00  2.2418220587922D-01
103  1.0200000000000D+00  1.1927186927218D+00  2.4307512831604D-01
104  1.0300000000000D+00  1.1842361970591D+00  2.6312183528143D-01
105  1.0400000000000D+00  1.1743699956394D+00  2.8433770837092D-01
106  1.0500000000000D+00  1.1631041904153D+00  3.0673155279138D-01
107  1.0600000000000D+00  1.1504277722415D+00  3.3030535599910D-01
108  1.0700000000000D+00  1.1363347784682D+00  3.5505408161200D-01
109  1.0800000000000D+00  1.1208244276017D+00  3.8096550042018D-01
110  1.0900000000000D+00  1.1039012299669D+00  4.0802006012050D-01
111  1.1000000000000D+00  1.0855750734158D+00  4.3619079521112D-01
112  1.1100000000000D+00  1.0658612832641D+00  4.6544327824632D-01
113  1.1200000000000D+00  1.0447806557436D+00  4.9573561346669D-01
114  1.1300000000000D+00  1.0223594644211D+00  5.2701847354000D-01
115  1.1400000000000D+00  9.9862943916132D-01  5.5923517993204D-01
116  1.1500000000000D+00  9.7362771737271D-01  5.9232182714612D-01
117  1.1600000000000D+00  9.4739676739400D-01  6.2620745087010D-01
118  1.1700000000000D+00  9.1998428406613D-01  6.6081423974593D-01
119  1.1800000000000D+00  8.9144305667245D-01  6.9605779024343D-01
120  1.1900000000000D+00  8.6183080960560D-01  7.3184740381913D-01
121  1.2000000000000D+00  8.3121001621565D-01  7.6808642537753D-01
122  1.2100000000000D+00  7.9964768653262D-01  8.0467262164627D-01
123  1.2200000000000D+00  7.6721512967014D-01  8.4149859788419D-01
124  1.2300000000000D+00  7.3398769183741D-01  8.7845225113791D-01
125  1.2400000000000D+00  7.0004447108097D-01  9.1541725793304D-01
126  1.2500000000000D+00  6.6546801002384D-01  9.5227359404159D-01
127  1.2600000000000D+00  6.3034396796174D-01  9.8889808381266D-01
128  1.2700000000000D+00  5.9476077382722D-01  1.0251649762995D+00
129  1.2800000000000D+00  5.5880926170434D-01  1.0609465451314D+00
130  1.2900000000000D+00  5.2258229061709D-01  1.0961137090125D+00
131  1.3000000000000D+00  4.8617435045130D-01  1.1305366695027D+00
132  1.3100000000000D+00  4.4968115602171D-01  1.1640855624907D+00
133  1.3200000000000D+00  4.1319923128786D-01  1.1966311197819D+00
134  1.3300000000000D+00  3.7682548586715D-01  1.2280453369908D+00
135  1.3400000000000D+00  3.4065678607029D-01  1.2582021438120D+00
136  1.3500000000000D+00  3.0478952266173D-01  1.2869780727785D+00
137  1.3600000000000D+00  2.6931917768778D-01  1.3142529223992D+00
138  1.3700000000000D+00  2.3433989267467D-01  1.3399104106572D+00
139  1.3800000000000D+00  1.9994404054685D-01  1.3638388147466D+00
140  1.3900000000000D+00  1.6622180362229D-01  1.3859315929759D+00
141  1.4000000000000D+00  1.3326076000304D-01  1.4060879848087D+00
142  1.4100000000000D+00  1.0114548073843D-01  1.4242135849304D+00
143  1.4200000000000D+00  6.9957139938939D-02  1.4402208876221D+00
144  1.4300000000000D+00  3.9773140226230D-02  1.4540297973133D+00
145  1.4400000000000D+00  1.0666755563347D-02  1.4655681018649D+00
146  1.4500000000000D+00 -1.7293206375773D-02  1.4747719048935D+00
147  1.4600000000000D+00 -4.4042720190465D-02  1.4815860135695D+00
148  1.4700000000000D+00 -6.9522835422710D-02  1.4859642791264D+00
149  1.4800000000000D+00 -9.3679943684528D-02  1.4878698862897D+00
150  1.4900000000000D+00 -1.1646601902450D-01  1.4872755896986D+00
151  1.5000000000000D+00 -1.3783882952332D-01  1.4841638939309D+00
152  1.5100000000000D+00 -1.5776211897753D-01  1.4785271753435D+00
153  1.5200000000000D+00 -1.7620575730832D-01  1.4703677435253D+00
154  1.5300000000000D+00 -1.9314585836377D-01  1.4596978402266D+00
155  1.5400000000000D+00 -2.0856486463091D-01  1.4465395751526D+00
156  1.5500000000000D+00 -2.2245159724983D-01  1.4309247959929D+00
157  1.5600000000000D+00 -2.3480127171505D-01  1.4128948926062D+00
158  1.5700000000000D+00 -2.4561547769842D-01  1.3925005363212D+00
159  1.5800000000000D+00 -2.5490212334753D-01  1.3698013474037D+00
160  1.5900000000000D+00 -2.6267534521784D-01  1.3448655142274D+00
161  1.6000000000000D+00 -2.6895538514019D-01  1.3177694231130D+00
162  1.6100000000000D+00 -2.7376840991055D-01  1.2885967496956D+00
163  1.6200000000000D+00 -2.7714633121406D-01  1.2574381899287D+00
164  1.6300000000000D+00 -2.7912661581054D-01  1.2243919798547D+00
165  1.6400000000000D+00 -2.7975209318256D-01  1.1895641827724D+00
166  1.6500000000000D+00 -2.7907078458423D-01  1.1530693740004D+00
167  1.6600000000000D+00 -2.7713567655268D-01  1.1150305333314D+00
168  1.6700000000000D+00 -2.7400445640148D-01  1.0755782005428D+00
169  1.6800000000000D+00 -2.6973923535885D-01  1.0348499957512D+00
170  1.6900000000000D+00 -2.6440624766796D-01  9.9299009685827D-01
171  1.7000000000000D+00 -2.5807552940754D-01  9.5014861785047D-01
172  1.7100000000000D+00 -2.5082057930648D-01  9.0648098658114D-01
173  1.7200000000000D+00 -2.4271800217983D-01  8.6214728231955D-01
174  1.7300000000000D+00 -2.3384713731753D-01  8.1731155076226D-01
175  1.7400000000000D+00 -2.2428967337676D-01  7.7214109673093D-01
176  1.7500000000000D+00 -2.1412925172759D-01  7.2680575796572D-01
177  1.7600000000000D+00 -2.0345106016495D-01  6.8147716336976D-01
178  1.7700000000000D+00 -1.9234141886638D-01  6.3632797899491D-01
179  1.7800000000000D+00 -1.8088736074712D-01  5.9153114552145D-01
180  1.7900000000000D+00 -1.6917620804858D-01  5.4725911045230D-01
181  1.8000000000000D+00 -1.5729514739228D-01  5.0368305889797D-01
182  1.8100000000000D+00 -1.4533080523393D-01  4.6097214634957D-01
183  1.8200000000000D+00 -1.3336882574173D-01  4.1929273694234D-01
184  1.8300000000000D+00 -1.2149345341162D-01  3.7880765126641D-01
185  1.8400000000000D+00 -1.0978712182309D-01  3.3967542614295D-01
186  1.8500000000000D+00 -9.8330051528729D-02  3.0204959160105D-01
187  1.8600000000000D+00 -8.7199857670216D-02  2.6607796606937D-01
188  1.8700000000000D+00 -7.6471170788280D-02  2.3190197582807D-01
189  1.8800000000000D+00 -6.6215271059251D-02  1.9965599912318D-01
190  1.8900000000000D+00 -5.6499739136842D-02  1.6946674047276D-01
191  1.9000000000000D+00 -4.7388124317691D-02  1.4145263642015D-01
192  1.9100000000000D+00 -3.8939631900516D-02  1.1572329598632D-01
193  1.9200000000000D+00 -3.1208831975993D-02  9.2378979712095D-02
194  1.9300000000000D+00 -2.4245389103028D-02  7.1510116358582D-02
195  1.9400000000000D+00 -1.8099002389980D-02  5.3211931488902D-02
196  1.9500000000000D+00 -1.2797143189852D-02  3.7520007485017D-02
197  1.9600000000000D+00 -8.3557526398360D-03  2.4441582741017D-02
198  1.9700000000000D+00 -4.8385727255393D-03  1.4128154555775D-02
199  1.9800000000000D+00 -2.3268198052754D-03  6.7876200900266D-03
200  1.9900000000000D+00 -8.1157184926809D-04  2.3716162574814D-03
201  2.0000000000000D+00 -7.9395724631236D-05  2.4213381032717D-04
202  2.0100000000000D+00  1.2771236331325D-04 -3.6268416250900D-04
203  2.0200000000000D+00  6.8586896135726D-05 -1.9619366846177D-04
204  2.0300000000000D+00 -2.5159588087498D-05  7.2255962744655D-05
205  2.0400000000000D+00 -3.8151071494061D-05  1.0967121504444D-04
206  2.0500000000000D+00 -7.0155128939117D-07  2.0176173481606D-06
207  2.0600000000000D+00  7.2373744963832D-06 -2.0820018178590D-05
208  2.0700000000000D+00  4.0121244413126D-06 -1.1549013241980D-05
209  2.0800000000000D+00  2.1043380536424D-08 -8.2809849555708D-08
210  2.0900000000000D+00  2.8371808647838D-08 -1.1164865843128D-07
211  2.1000000000000D+00  0.0000000000000D+00  0.0000000000000D+00
212  2.1100000000000D+00  0.0000000000000D+00  0.0000000000000D+00
213  2.1200000000000D+00  0.0000000000000D+00  0.0000000000000D+00
214  2.1300000000000D+00  0.0000000000000D+00  0.0000000000000D+00
215  2.1400000000000D+00  0.0000000000000D+00  0.0000000000000D+00
216  2.1500000000000D+00  0.0000000000000D+00  0.0000000000000D+00
217  2.1600000000000D+00  0.0000000000000D+00  0.0000000000000D+00
218  2.1700000000000D+00  0.0000000000000D+00  0.0000000000000D+00
219  2.1800000000000D+00  0.0000000000000D+00  0.0000000000000D+00
220  2.1900000000000D+00  0.0000000000000D+00  0.0000000000000D+00
221  2.2000000000000D+00  0.0000000000000D+00  0.0000000000000D+00
222  2.2100000000000D+00  0.0000000000000D+00  0.0000000000000D+00
223  2.2200000000000D+00  0.0000000000000D+00  0.0000000000000D+00
224  2.2300000000000D+00  0.0000000000000D+00  0.0000000000000D+00
225  2.2400000000000D+00  0.0000000000000D+00  0.0000000000000D+00
226  2.2500000000000D+00  0.0000000000000D+00  0.0000000000000D+00
227  2.2600000000000D+00  0.0000000000000D+00  0.0000000000000D+00
228  2.2700000000000D+00  0.0000000000000D+00  0.0000000000000D+00
229  2.2800000000000D+00  0.0000000000000D+00  0.0000000000000D+00
230  2.2900000000000D+00  0.0000000000000D+00  0.0000000000000D+00
231  2.3000000000000D+00  0.0000000000000D+00  0.0000000000000D+00
232  2.3100000000000D+00  0.0000000000000D+00  0.0000000000000D+00
233  2.3200000000000D+00  0.0000000000000D+00  0.0000000000000D+00
234  2.3300000000000D+00  0.0000000000000D+00  0.0000000000000D+00
235  2.3400000000000D+00  0.0000000000000D+00  0.0000000000000D+00
236  2.3500000000000D+00  0.0000000000000D+00  0.0000000000000D+00
237  2.3600000000000D+00  0.0000000000000D+00  0.0000000000000D+00
238  2.3700000000000D+00  0.0000000000000D+00  0.0000000000000D+00
239  2.3800000000000D+00  0.0000000000000D+00  0.0000000000000D+00
240  2.3900000000000D+00  0.0000000000000D+00  0.0000000000000D+00
241  2.4000000000000D+00  0.0000000000000D+00  0.0000000000000D+00
242  2.4100000000000D+00  0.0000000000000D+00  0.0000000000000D+00
243  2.4200000000000D+00  0.0000000000000D+00  0.0000000000000D+00
244  2.4300000000000D+00  0.0000000000000D+00  0.0000000000000D+00
245  2.4400000000000D+00  0.0000000000000D+00  0.0000000000000D+00
246  2.4500000000000D+00  0.0000000000000D+00  0.0000000000000D+00
247  2.4600000000000D+00  0.0000000000000D+00  0.0000000000000D+00
248  2.4700000000000D+00  0.0000000000000D+00  0.0000000000000D+00
249  2.4800000000000D+00  0.0000000000000D+00  0.0000000000000D+00
250  2.4900000000000D+00  0.0000000000000D+00  0.0000000000000D+00
251  2.5000000000000D+00  0.0000000000000D+00  0.0000000000000D+00
252  2.5100000000000D+00  0.0000000000000D+00  0.0000000000000D+00
253  2.5200000000000D+00  0.0000000000000D+00  0.0000000000000D+00
254  2.5300000000000D+00  0.0000000000000D+00  0.0000000000000D+00
255  2.5400000000000D+00  0.0000000000000D+00  0.0000000000000D+00
256  2.5500000000000D+00  0.0000000000000D+00  0.0000000000000D+00
257  2.5600000000000D+00  0.0000000000000D+00  0.0000000000000D+00
258  2.5700000000000D+00  0.0000000000000D+00  0.0000000000000D+00
259  2.5800000000000D+00  0.0000000000000D+00  0.0000000000000D+00
260  2.5900000000000D+00  0.0000000000000D+00  0.0000000000000D+00
261  2.6000000000000D+00  0.0000000000000D+00  0.0000000000000D+00
262  2.6100000000000D+00  0.0000000000000D+00  0.0000000000000D+00
263  2.6200000000000D+00  0.0000000000000D+00  0.0000000000000D+00
264  2.6300000000000D+00  0.0000000000000D+00  0.0000000000000D+00
265  2.6400000000000D+00  0.0000000000000D+00  0.0000000000000D+00
266  2.6500000000000D+00  0.0000000000000D+00  0.0000000000000D+00
267  2.6600000000000D+00  0.0000000000000D+00  0.0000000000000D+00
268  2.6700000000000D+00  0.0000000000000D+00  0.0000000000000D+00
269  2.6800000000000D+00  0.0000000000000D+00  0.0000000000000D+00
270  2.6900000000000D+00  0.0000000000000D+00  0.0000000000000D+00
271  2.7000000000000D+00  0.0000000000000D+00  0.0000000000000D+00
272  2.7100000000000D+00  0.0000000000000D+00  0.0000000000000D+00
273  2.7200000000000D+00  0.0000000000000D+00  0.0000000000000D+00
274  2.7300000000000D+00  0.0000000000000D+00  0.0000000000000D+00
275  2.7400000000000D+00  0.0000000000000D+00  0.0000000000000D+00
276  2.7500000000000D+00  0.0000000000000D+00  0.0000000000000D+00
277  2.7600000000000D+00  0.0000000000000D+00  0.0000000000000D+00
278  2.7700000000000D+00  0.0000000000000D+00  0.0000000000000D+00
279  2.7800000000000D+00  0.0000000000000D+00  0.0000000000000D+00
280  2.7900000000000D+00  0.0000000000000D+00  0.0000000000000D+00
281  2.8000000000000D+00  0.0000000000000D+00  0.0000000000000D+00
282  2.8100000000000D+00  0.0000000000000D+00  0.0000000000000D+00
283  2.8200000000000D+00  0.0000000000000D+00  0.0000000000000D+00
284  2.8300000000000D+00  0.0000000000000D+00  0.0000000000000D+00
285  2.8400000000000D+00  0.0000000000000D+00  0.0000000000000D+00
286  2.8500000000000D+00  0.0000000000000D+00  0.0000000000000D+00
287  2.8600000000000D+00  0.0000000000000D+00  0.0000000000000D+00
288  2.8700000000000D+00  0.0000000000000D+00  0.0000000000000D+00
289  2.8800000000000D+00  0.0000000000000D+00  0.0000000000000D+00
290  2.8900000000000D+00  0.0000000000000D+00  0.0000000000000D+00
291  2.9000000000000D+00  0.0000000000000D+00  0.0000000000000D+00
292  2.9100000000000D+00  0.0000000000000D+00  0.0000000000000D+00
293  2.9200000000000D+00  0.0000000000000D+00  0.0000000000000D+00
294  2.9300000000000D+00  0.0000000000000D+00  0.0000000000000D+00
295  2.9400000000000D+00  0.0000000000000D+00  0.0000000000000D+00
296  2.9500000000000D+00  0.0000000000000D+00  0.0000000000000D+00
297  2.9600000000000D+00  0.0000000000000D+00  0.0000000000000D+00
298  2.9700000000000D+00  0.0000000000000D+00  0.0000000000000D+00
299  2.9800000000000D+00  0.0000000000000D+00  0.0000000000000D+00
300  2.9900000000000D+00  0.0000000000000D+00  0.0000000000000D+00
301  3.0000000000000D+00  0.0000000000000D+00  0.0000000000000D+00
302  3.0100000000000D+00  0.0000000000000D+00  0.0000000000000D+00
303  3.0200000000000D+00  0.0000000000000D+00  0.0000000000000D+00
304  3.0300000000000D+00  0.0000000000000D+00  0.0000000000000D+00
305  3.0400000000000D+00  0.0000000000000D+00  0.0000000000000D+00
306  3.0500000000000D+00  0.0000000000000D+00  0.0000000000000D+00
307  3.0600000000000D+00  0.0000000000000D+00  0.0000000000000D+00
308  3.0700000000000D+00  0.0000000000000D+00  0.0000000000000D+00
309  3.0800000000000D+00  0.0000000000000D+00  0.0000000000000D+00
310  3.0900000000000D+00  0.0000000000000D+00  0.0000000000000D+00
311  3.1000000000000D+00  0.0000000000000D+00  0.0000000000000D+00
312  3.1100000000000D+00  0.0000000000000D+00  0.0000000000000D+00
313  3.1200000000000D+00  0.0000000000000D+00  0.0000000000000D+00
314  3.1300000000000D+00  0.0000000000000D+00  0.0000000000000D+00
315  3.1400000000000D+00  0.0000000000000D+00  0.0000000000000D+00
316  3.1500000000000D+00  0.0000000000000D+00  0.0000000000000D+00
317  3.1600000000000D+00  0.0000000000000D+00  0.0000000000000D+00
318  3.1700000000000D+00  0.0000000000000D+00  0.0000000000000D+00
319  3.1800000000000D+00  0.0000000000000D+00  0.0000000000000D+00
320  3.1900000000000D+00  0.0000000000000D+00  0.0000000000000D+00
321  3.2000000000000D+00  0.0000000000000D+00  0.0000000000000D+00
322  3.2100000000000D+00  0.0000000000000D+00  0.0000000000000D+00
323  3.2200000000000D+00  0.0000000000000D+00  0.0000000000000D+00
324  3.2300000000000D+00  0.0000000000000D+00  0.0000000000000D+00
325  3.2400000000000D+00  0.0000000000000D+00  0.0000000000000D+00
326  3.2500000000000D+00  0.0000000000000D+00  0.0000000000000D+00
327  3.2600000000000D+00  0.0000000000000D+00  0.0000000000000D+00
328  3.2700000000000D+00  0.0000000000000D+00  0.0000000000000D+00
329  3.2800000000000D+00  0.0000000000000D+00  0.0000000000000D+00
330  3.2900000000000D+00  0.0000000000000D+00  0.0000000000000D+00
331  3.3000000000000D+00  0.0000000000000D+00  0.0000000000000D+00
332  3.3100000000000D+00  0.0000000000000D+00  0.0000000000000D+00
333  3.3200000000000D+00  0.0000000000000D+00  0.0000000000000D+00
334  3.3300000000000D+00  0.0000000000000D+00  0.0000000000000D+00
335  3.3400000000000D+00  0.0000000000000D+00  0.0000000000000D+00
336  3.3500000000000D+00  0.0000000000000D+00  0.0000000000000D+00
337  3.3600000000000D+00  0.0000000000000D+00  0.0000000000000D+00
338  3.3700000000000D+00  0.0000000000000D+00  0.0000000000000D+00
339  3.3800000000000D+00  0.0000000000000D+00  0.0000000000000D+00
340  3.3900000000000D+00  0.0000000000000D+00  0.0000000000000D+00
341  3.4000000000000D+00  0.0000000000000D+00  0.0000000000000D+00
342  3.4100000000000D+00  0.0000000000000D+00  0.0000000000000D+00
343  3.4200000000000D+00  0.0000000000000D+00  0.0000000000000D+00
344  3.4300000000000D+00  0.0000000000000D+00  0.0000000000000D+00
345  3.4400000000000D+00  0.0000000000000D+00  0.0000000000000D+00
346  3.4500000000000D+00  0.0000000000000D+00  0.0000000000000D+00
347  3.4600000000000D+00  0.0000000000000D+00  0.0000000000000D+00
348  3.4700000000000D+00  0.0000000000000D+00  0.0000000000000D+00
349  3.4800000000000D+00  0.0000000000000D+00  0.0000000000000D+00
350  3.4900000000000D+00  0.0000000000000D+00  0.0000000000000D+00
351  3.5000000000000D+00  0.0000000000000D+00  0.0000000000000D+00
352  3.5100000000000D+00  0.0000000000000D+00  0.0000000000000D+00
353  3.5200000000000D+00  0.0000000000000D+00  0.0000000000000D+00
354  3.5300000000000D+00  0.0000000000000D+00  0.0000000000000D+00
355  3.5400000000000D+00  0.0000000000000D+00  0.0000000000000D+00
356  3.5500000000000D+00  0.0000000000000D+00  0.0000000000000D+00
357  3.5600000000000D+00  0.0000000000000D+00  0.0000000000000D+00
358  3.5700000000000D+00  0.0000000000000D+00  0.0000000000000D+00
359  3.5800000000000D+00  0.0000000000000D+00  0.0000000000000D+00
360  3.5900000000000D+00  0.0000000000000D+00  0.0000000000000D+00
361  3.6000000000000D+00  0.0000000000000D+00  0.0000000000000D+00
362  3.6100000000000D+00  0.0000000000000D+00  0.0000000000000D+00
363  3.6200000000000D+00  0.0000000000000D+00  0.0000000000000D+00
364  3.6300000000000D+00  0.0000000000000D+00  0.0000000000000D+00
365  3.6400000000000D+00  0.0000000000000D+00  0.0000000000000D+00
366  3.6500000000000D+00  0.0000000000000D+00  0.0000000000000D+00
367  3.6600000000000D+00  0.0000000000000D+00  0.0000000000000D+00
368  3.6700000000000D+00  0.0000000000000D+00  0.0000000000000D+00
369  3.6800000000000D+00  0.0000000000000D+00  0.0000000000000D+00
370  3.6900000000000D+00  0.0000000000000D+00  0.0000000000000D+00
371  3.7000000000000D+00  0.0000000000000D+00  0.0000000000000D+00
372  3.7100000000000D+00  0.0000000000000D+00  0.0000000000000D+00
373  3.7200000000000D+00  0.0000000000000D+00  0.0000000000000D+00
374  3.7300000000000D+00  0.0000000000000D+00  0.0000000000000D+00
375  3.7400000000000D+00  0.0000000000000D+00  0.0000000000000D+00
376  3.7500000000000D+00  0.0000000000000D+00  0.0000000000000D+00
377  3.7600000000000D+00  0.0000000000000D+00  0.0000000000000D+00
378  3.7700000000000D+00  0.0000000000000D+00  0.0000000000000D+00
379  3.7800000000000D+00  0.0000000000000D+00  0.0000000000000D+00
380  3.7900000000000D+00  0.0000000000000D+00  0.0000000000000D+00
381  3.8000000000000D+00  0.0000000000000D+00  0.0000000000000D+00
382  3.8100000000000D+00  0.0000000000000D+00  0.0000000000000D+00
383  3.8200000000000D+00  0.0000000000000D+00  0.0000000000000D+00
384  3.8300000000000D+00  0.0000000000000D+00  0.0000000000000D+00
385  3.8400000000000D+00  0.0000000000000D+00  0.0000000000000D+00
386  3.8500000000000D+00  0.0000000000000D+00  0.0000000000000D+00
387  3.8600000000000D+00  0.0000000000000D+00  0.0000000000000D+00
388  3.8700000000000D+00  0.0000000000000D+00  0.0000000000000D+00
389  3.8800000000000D+00  0.0000000000000D+00  0.0000000000000D+00
390  3.8900000000000D+00  0.0000000000000D+00  0.0000000000000D+00
391  3.9000000000000D+00  0.0000000000000D+00  0.0000000000000D+00
392  3.9100000000000D+00  0.0000000000000D+00  0.0000000000000D+00
393  3.9200000000000D+00  0.0000000000000D+00  0.0000000000000D+00
394  3.9300000000000D+00  0.0000000000000D+00  0.0000000000000D+00
395  3.9400000000000D+00  0.0000000000000D+00  0.0000000000000D+00
396  3.9500000000000D+00  0.0000000000000D+00  0.0000000000000D+00
397  3.9600000000000D+00  0.0000000000000D+00  0.0000000000000D+00
398  3.9700000000000D+00  0.0000000000000D+00  0.0000000000000D+00
399  3.9800000000000D+00  0.0000000000000D+00  0.0000000000000D+00
400  3.9900000000000D+00  0.0000000000000D+00  0.0000000000000D+00
401  4.0000000000000D+00  0.0000000000000D+00  0.0000000000000D+00
402  4.0100000000000D+00  0.0000000000000D+00  0.0000000000000D+00
403  4.0200000000000D+00  0.0000000000000D+00  0.0000000000000D+00
404  4.0300000000000D+00  0.0000000000000D+00  0.0000000000000D+00
405  4.0400000000000D+00  0.0000000000000D+00  0.0000000000000D+00
406  4.0500000000000D+00  0.0000000000000D+00  0.0000000000000D+00
407  4.0600000000000D+00  0.0000000000000D+00  0.0000000000000D+00
408  4.0700000000000D+00  0.0000000000000D+00  0.0000000000000D+00
409  4.0800000000000D+00  0.0000000000000D+00  0.0000000000000D+00
410  4.0900000000000D+00  0.0000000000000D+00  0.0000000000000D+00
411  4.1000000000000D+00  0.0000000000000D+00  0.0000000000000D+00
412  4.1100000000000D+00  0.0000000000000D+00  0.0000000000000D+00
413  4.1200000000000D+00  0.0000000000000D+00  0.0000000000000D+00
414  4.1300000000000D+00  0.0000000000000D+00  0.0000000000000D+00
415  4.1400000000000D+00  0.0000000000000D+00  0.0000000000000D+00
416  4.1500000000000D+00  0.0000000000000D+00  0.0000000000000D+00
417  4.1600000000000D+00  0.0000000000000D+00  0.0000000000000D+00
418  4.1700000000000D+00  0.0000000000000D+00  0.0000000000000D+00
419  4.1800000000000D+00  0.0000000000000D+00  0.0000000000000D+00
420  4.1900000000000D+00  0.0000000000000D+00  0.0000000000000D+00
421  4.2000000000000D+00  0.0000000000000D+00  0.0000000000000D+00
422  4.2100000000000D+00  0.0000000000000D+00  0.0000000000000D+00
423  4.2200000000000D+00  0.0000000000000D+00  0.0000000000000D+00
424  4.2300000000000D+00  0.0000000000000D+00  0.0000000000000D+00
425  4.2400000000000D+00  0.0000000000000D+00  0.0000000000000D+00
426  4.2500000000000D+00  0.0000000000000D+00  0.0000000000000D+00
427  4.2600000000000D+00  0.0000000000000D+00  0.0000000000000D+00
428  4.2700000000000D+00  0.0000000000000D+00  0.0000000000000D+00
429  4.2800000000000D+00  0.0000000000000D+00  0.0000000000000D+00
430  4.2900000000000D+00  0.0000000000000D+00  0.0000000000000D+00
431  4.3000000000000D+00  0.0000000000000D+00  0.0000000000000D+00
432  4.3100000000000D+00  0.0000000000000D+00  0.0000000000000D+00
433  4.3200000000000D+00  0.0000000000000D+00  0.0000000000000D+00
434  4.3300000000000D+00  0.0000000000000D+00  0.0000000000000D+00
435  4.3400000000000D+00  0.0000000000000D+00  0.0000000000000D+00
436  4.3500000000000D+00  0.0000000000000D+00  0.0000000000000D+00
437  4.3600000000000D+00  0.0000000000000D+00  0.0000000000000D+00
438  4.3700000000000D+00  0.0000000000000D+00  0.0000000000000D+00
439  4.3800000000000D+00  0.0000000000000D+00  0.0000000000000D+00
440  4.3900000000000D+00  0.0000000000000D+00  0.0000000000000D+00
441  4.4000000000000D+00  0.0000000000000D+00  0.0000000000000D+00
442  4.4100000000000D+00  0.0000000000000D+00  0.0000000000000D+00
443  4.4200000000000D+00  0.0000000000000D+00  0.0000000000000D+00