Sb    ONCVPSP-3.2.3  r_core=   1.30295   1.30295   1.50346
51.0000     23.0000      161219    zatom,zion,pspd
8   -1012   2     4   600     0    pspcod,pspxc,lmax,lloc,mmax,r2well
5.99000000  5.00000000  0.00000000    rchrg fchrg qchrg
2     2     2     0     0    nproj
1     1           extension_switch
0                         9.4874974099333D+00 -4.1222802726013D-01
1  0.0000000000000D+00 -4.5758163924603D-10 -1.9218759805817D-08
2  1.0000000000000D-02  8.8444927859312D-02  7.8692543666523D-02
3  2.0000000000000D-02  1.7663534882940D-01  1.5640452834835D-01
4  3.0000000000000D-02  2.6431783904753D-01  2.3217107936751D-01
5  4.0000000000000D-02  3.5124113220799D-01  3.0505841172189D-01
6  5.0000000000000D-02  4.3715717722027D-01  3.7417868260321D-01
7  6.0000000000000D-02  5.2182217085539D-01  4.3870402710940D-01
8  7.0000000000000D-02  6.0499755759121D-01  4.9787952791615D-01
9  8.0000000000000D-02  6.8645098932515D-01  5.5103488889118D-01
10  9.0000000000000D-02  7.6595723817973D-01  5.9759460601420D-01
11  1.0000000000000D-01  8.4329905627302D-01  6.3708645609238D-01
12  1.1000000000000D-01  9.1826797705122D-01  6.6914815415459D-01
13  1.2000000000000D-01  9.9066505357232D-01  6.9353206353047D-01
14  1.3000000000000D-01  1.0603015299728D+00  7.1010787788233D-01
15  1.4000000000000D-01  1.1269994432315D+00  7.1886323123440D-01
16  1.5000000000000D-01  1.1905921532486D+00  7.1990222967641D-01
17  1.6000000000000D-01  1.2509248001684D+00  7.1344193623658D-01
18  1.7000000000000D-01  1.3078546887791D+00  6.9980687774260D-01
19  1.8000000000000D-01  1.3612516006984D+00  6.7942167864759D-01
20  1.9000000000000D-01  1.4109980358970D+00  6.5280196113629D-01
21  2.0000000000000D-01  1.4569893858958D+00  6.2054368272171D-01
22  2.1000000000000D-01  1.4991340416945D+00  5.8331111141053D-01
23  2.2000000000000D-01  1.5373534401302D+00  5.4182366382276D-01
24  2.3000000000000D-01  1.5715820529178D+00  4.9684185292910D-01
25  2.4000000000000D-01  1.6017673230779D+00  4.4915260891207D-01
26  2.5000000000000D-01  1.6278695538101D+00  3.9955424874142D-01
27  2.6000000000000D-01  1.6498617551067D+00  3.4884137713702D-01
28  2.7000000000000D-01  1.6677294535319D+00  2.9779000351877D-01
29  2.8000000000000D-01  1.6814704706016D+00  2.4714315624894D-01
30  2.9000000000000D-01  1.6910946751035D+00  1.9759726698885D-01
31  3.0000000000000D-01  1.6966237144844D+00  1.4978958443872D-01
32  3.1000000000000D-01  1.6980907301228D+00  1.0428685832301D-01
33  3.2000000000000D-01  1.6955400608950D+00  6.1575511525529D-02
34  3.3000000000000D-01  1.6890269389488D+00  2.2053491155280D-02
35  3.4000000000000D-01  1.6786171810295D+00 -1.3976041500508D-02
36  3.5000000000000D-01  1.6643868780684D+00 -4.6309056169512D-02
37  3.6000000000000D-01  1.6464220850644D+00 -7.4842944527070D-02
38  3.7000000000000D-01  1.6248185125745D+00 -9.9576705946888D-02
39  3.8000000000000D-01  1.5996812203948D+00 -1.2060901686482D-01
40  3.9000000000000D-01  1.5711243132827D+00 -1.3813421279092D-01
41  4.0000000000000D-01  1.5392706378500D+00 -1.5243625202908D-01
42  4.1000000000000D-01  1.5042514790733D+00 -1.6388076924183D-01
43  4.2000000000000D-01  1.4662062542264D+00 -1.7290536440327D-01
44  4.3000000000000D-01  1.4252822014664D+00 -1.8000830771172D-01
45  4.4000000000000D-01  1.3816340598057D+00 -1.8573587302528D-01
46  4.5000000000000D-01  1.3354237367962D+00 -1.9066854071319D-01
47  4.6000000000000D-01  1.2868199599415D+00 -1.9540633493127D-01
48  4.7000000000000D-01  1.2359979076636D+00 -2.0055357974009D-01
49  4.8000000000000D-01  1.1831388155660D+00 -2.0670337278589D-01
50  4.9000000000000D-01  1.1284295537881D+00 -2.1442208413383D-01
51  5.0000000000000D-01  1.0720621714121D+00 -2.2423419106138D-01
52  5.1000000000000D-01  1.0142334041854D+00 -2.3660775705532D-01
53  5.2000000000000D-01  9.5514414224238D-01 -2.5194085490673D-01
54  5.3000000000000D-01  8.9499885505001D-01 -2.7054921972561D-01
55  5.4000000000000D-01  8.3400497145752D-01 -2.9265539809618D-01
56  5.5000000000000D-01  7.7237221348157D-01 -3.1837963481478D-01
57  5.6000000000000D-01  7.1031188330731D-01 -3.4773270894366D-01
58  5.7000000000000D-01  6.4803610390412D-01 -3.8061089697626D-01
59  5.8000000000000D-01  5.8575701463716D-01 -4.1679320307262D-01
60  5.9000000000000D-01  5.2368592427816D-01 -4.5594095546456D-01
61  6.0000000000000D-01  4.6203242486651D-01 -4.9759982473337D-01
62  6.1000000000000D-01  4.0100347091949D-01 -5.4120427477974D-01
63  6.2000000000000D-01  3.4080242952687D-01 -5.8608441129681D-01
64  6.3000000000000D-01  2.8162810785459D-01 -6.3147514694358D-01
65  6.4000000000000D-01  2.2367376552358D-01 -6.7652755713929D-01
66  6.5000000000000D-01  1.6712612018325D-01 -7.2032225717670D-01
67  6.6000000000000D-01  1.1216435535809D-01 -7.6188459048200D-01
68  6.7000000000000D-01  5.8959140289883D-02 -8.0020138011330D-01
69  6.8000000000000D-01  7.6716720057569D-03 -8.3423896204453D-01
70  6.9000000000000D-01 -4.1547249795402D-02 -8.6296218988899D-01
71  7.0000000000000D-01 -8.8558104242030D-02 -8.8535407690896D-01
72  7.1000000000000D-01 -1.3323347634540D-01 -9.0043572335621D-01
73  7.2000000000000D-01 -1.7545881892495D-01 -9.0728616543957D-01
74  7.3000000000000D-01 -2.1513313903763D-01 -9.0506177698679D-01
75  7.4000000000000D-01 -2.5216959904775D-01 -8.9301485628964D-01
76  7.5000000000000D-01 -2.8649602315439D-01 -8.7051103882673D-01
77  7.6000000000000D-01 -3.1805530104415D-01 -8.3704519140571D-01
78  7.7000000000000D-01 -3.4680568135205D-01 -7.9225546464193D-01
79  7.8000000000000D-01 -3.7272094877854D-01 -7.3593520826996D-01
80  7.9000000000000D-01 -3.9579048001148D-01 -6.6804248714719D-01
81  8.0000000000000D-01 -4.1601917502281D-01 -5.8870697452064D-01
82  8.1000000000000D-01 -4.3342726182088D-01 -4.9823404224839D-01
83  8.2000000000000D-01 -4.4804997433689D-01 -3.9710591505756D-01
84  8.3000000000000D-01 -4.5993710476171D-01 -2.8597980611986D-01
85  8.4000000000000D-01 -4.6915243331666D-01 -1.6568300381247D-01
86  8.5000000000000D-01 -4.7577304010631D-01 -3.7204933422513D-02
87  8.6000000000000D-01 -4.7988850533575D-01  9.8313728193694D-02
88  8.7000000000000D-01 -4.8160000575263D-01  2.3959475333690D-01
89  8.8000000000000D-01 -4.8101931666771D-01  3.8523869585107D-01
90  8.9000000000000D-01 -4.7826773029108D-01  5.3374362192051D-01
91  9.0000000000000D-01 -4.7347490236938D-01  6.8352595997700D-01
92  9.1000000000000D-01 -4.6677764020008D-01  8.3294314867886D-01
93  9.2000000000000D-01 -4.5831864601032D-01  9.8031772535566D-01
94  9.3000000000000D-01 -4.4824523040075D-01  1.1239624667174D+00
95  9.4000000000000D-01 -4.3670801106284D-01  1.2622061691804D+00
96  9.5000000000000D-01 -4.2385961225360D-01  1.3934196391572D+00
97  9.6000000000000D-01 -4.0985338056238D-01  1.5160414537436D+00
98  9.7000000000000D-01 -3.9484213231730D-01  1.6286030500881D+00
99  9.8000000000000D-01 -3.7897694755596D-01  1.7297527073472D+00
100  9.9000000000000D-01 -3.6240602483132D-01  1.8182779984884D+00
101  1.0000000000000D+00 -3.4527361024424D-01  1.8931263102042D+00
102  1.0100000000000D+00 -3.2771901298002D-01  1.9534230581912D+00
103  1.0200000000000D+00 -3.0987571840361D-01  1.9984872583196D+00
104  1.0300000000000D+00 -2.9187060820842D-01  2.0278441584058D+00
105  1.0400000000000D+00 -2.7382329555390D-01  2.0412346807153D+00
106  1.0500000000000D+00 -2.5584558135336D-01  2.0386214778928D+00
107  1.0600000000000D+00 -2.3804103597672D-01  2.0201914623101D+00
108  1.0700000000000D+00 -2.2050470876022D-01  1.9863547261009D+00
109  1.0800000000000D+00 -2.0332296573220D-01  1.9377398304288D+00
110  1.0900000000000D+00 -1.8657345388566D-01  1.8751855075677D+00
111  1.1000000000000D+00 -1.7032518847677D-01  1.7997288777567D+00
112  1.1100000000000D+00 -1.5463875775541D-01  1.7125903487154D+00
113  1.1200000000000D+00 -1.3956663800115D-01  1.6151554146974D+00
114  1.1300000000000D+00 -1.2515360966912D-01  1.5089536385991D+00
115  1.1400000000000D+00 -1.1143726410854D-01  1.3956351442592D+00
116  1.1500000000000D+00 -9.8448588800790D-02  1.2769449955893D+00
117  1.1600000000000D+00 -8.6212618077443D-02  1.1546958715183D+00
118  1.1700000000000D+00 -7.4749134997296D-02  1.0307394881609D+00
119  1.1800000000000D+00 -6.4073409489960D-02  9.0693723891537D-01
120  1.1900000000000D+00 -5.4196957406908D-02  7.8513053924693D-01
121  1.2000000000000D+00 -4.5128304763580D-02  6.6711137505907D-01
122  1.2100000000000D+00 -3.6873741458964D-02  5.5459355473283D-01
123  1.2200000000000D+00 -2.9438049261672D-02  4.4918514902089D-01
124  1.2300000000000D+00 -2.2825189066155D-02  3.5236259656837D-01
125  1.2400000000000D+00 -1.7038933284074D-02  2.6544692559909D-01
126  1.2500000000000D+00 -1.2083430596689D-02  1.8958249828052D-01
127  1.2600000000000D+00 -7.9648525332290D-03  1.2573748967398D-01
128  1.2700000000000D+00 -4.6871345961039D-03  7.4613325993020D-02
129  1.2800000000000D+00 -2.2446946865395D-03  3.6493925208240D-02
130  1.2900000000000D+00 -7.0563573779098D-04  1.2712837570942D-02
131  1.3000000000000D+00 -2.9226905792158D-05  2.3626847591990D-03
132  1.3100000000000D+00  7.7180203565250D-05 -1.7036686716947D-04
133  1.3200000000000D+00 -7.6601131690672D-06  4.1908307771946D-05
134  1.3300000000000D+00 -1.4577691919913D-05  9.7988607589306D-05
135  1.3400000000000D+00  3.7794954228554D-06 -1.7619486277075D-05
136  1.3500000000000D+00  3.0812938402886D-07 -1.6079545280184D-06
137  1.3600000000000D+00 -1.2083574777202D-07 -2.9117475698358D-06
138  1.3700000000000D+00  0.0000000000000D+00  0.0000000000000D+00
139  1.3800000000000D+00  0.0000000000000D+00  0.0000000000000D+00
140  1.3900000000000D+00  0.0000000000000D+00  0.0000000000000D+00
141  1.4000000000000D+00  0.0000000000000D+00  0.0000000000000D+00
142  1.4100000000000D+00  0.0000000000000D+00  0.0000000000000D+00
143  1.4200000000000D+00  0.0000000000000D+00  0.0000000000000D+00
144  1.4300000000000D+00  0.0000000000000D+00  0.0000000000000D+00
145  1.4400000000000D+00  0.0000000000000D+00  0.0000000000000D+00
146  1.4500000000000D+00  0.0000000000000D+00  0.0000000000000D+00
147  1.4600000000000D+00  0.0000000000000D+00  0.0000000000000D+00
148  1.4700000000000D+00  0.0000000000000D+00  0.0000000000000D+00
149  1.4800000000000D+00  0.0000000000000D+00  0.0000000000000D+00
150  1.4900000000000D+00  0.0000000000000D+00  0.0000000000000D+00
151  1.5000000000000D+00  0.0000000000000D+00  0.0000000000000D+00
152  1.5100000000000D+00  0.0000000000000D+00  0.0000000000000D+00
153  1.5200000000000D+00  0.0000000000000D+00  0.0000000000000D+00
154  1.5300000000000D+00  0.0000000000000D+00  0.0000000000000D+00
155  1.5400000000000D+00  0.0000000000000D+00  0.0000000000000D+00
156  1.5500000000000D+00  0.0000000000000D+00  0.0000000000000D+00
157  1.5600000000000D+00  0.0000000000000D+00  0.0000000000000D+00
158  1.5700000000000D+00  0.0000000000000D+00  0.0000000000000D+00
159  1.5800000000000D+00  0.0000000000000D+00  0.0000000000000D+00
160  1.5900000000000D+00  0.0000000000000D+00  0.0000000000000D+00
161  1.6000000000000D+00  0.0000000000000D+00  0.0000000000000D+00
162  1.6100000000000D+00  0.0000000000000D+00  0.0000000000000D+00
163  1.6200000000000D+00  0.0000000000000D+00  0.0000000000000D+00
164  1.6300000000000D+00  0.0000000000000D+00  0.0000000000000D+00
165  1.6400000000000D+00  0.0000000000000D+00  0.0000000000000D+00
166  1.6500000000000D+00  0.0000000000000D+00  0.0000000000000D+00
167  1.6600000000000D+00  0.0000000000000D+00  0.0000000000000D+00
168  1.6700000000000D+00  0.0000000000000D+00  0.0000000000000D+00
169  1.6800000000000D+00  0.0000000000000D+00  0.0000000000000D+00
170  1.6900000000000D+00  0.0000000000000D+00  0.0000000000000D+00
171  1.7000000000000D+00  0.0000000000000D+00  0.0000000000000D+00
172  1.7100000000000D+00  0.0000000000000D+00  0.0000000000000D+00
173  1.7200000000000D+00  0.0000000000000D+00  0.0000000000000D+00
174  1.7300000000000D+00  0.0000000000000D+00  0.0000000000000D+00
175  1.7400000000000D+00  0.0000000000000D+00  0.0000000000000D+00
176  1.7500000000000D+00  0.0000000000000D+00  0.0000000000000D+00
177  1.7600000000000D+00  0.0000000000000D+00  0.0000000000000D+00
178  1.7700000000000D+00  0.0000000000000D+00  0.0000000000000D+00
179  1.7800000000000D+00  0.0000000000000D+00  0.0000000000000D+00
180  1.7900000000000D+00  0.0000000000000D+00  0.0000000000000D+00
181  1.8000000000000D+00  0.0000000000000D+00  0.0000000000000D+00
182  1.8100000000000D+00  0.0000000000000D+00  0.0000000000000D+00
183  1.8200000000000D+00  0.0000000000000D+00  0.0000000000000D+00
184  1.8300000000000D+00  0.0000000000000D+00  0.0000000000000D+00
185  1.8400000000000D+00  0.0000000000000D+00  0.0000000000000D+00
186  1.8500000000000D+00  0.0000000000000D+00  0.0000000000000D+00
187  1.8600000000000D+00  0.0000000000000D+00  0.0000000000000D+00
188  1.8700000000000D+00  0.0000000000000D+00  0.0000000000000D+00
189  1.8800000000000D+00  0.0000000000000D+00  0.0000000000000D+00
190  1.8900000000000D+00  0.0000000000000D+00  0.0000000000000D+00
191  1.9000000000000D+00  0.0000000000000D+00  0.0000000000000D+00
192  1.9100000000000D+00  0.0000000000000D+00  0.0000000000000D+00
193  1.9200000000000D+00  0.0000000000000D+00  0.0000000000000D+00
194  1.9300000000000D+00  0.0000000000000D+00  0.0000000000000D+00
195  1.9400000000000D+00  0.0000000000000D+00  0.0000000000000D+00
196  1.9500000000000D+00  0.0000000000000D+00  0.0000000000000D+00
197  1.9600000000000D+00  0.0000000000000D+00  0.0000000000000D+00
198  1.9700000000000D+00  0.0000000000000D+00  0.0000000000000D+00
199  1.9800000000000D+00  0.0000000000000D+00  0.0000000000000D+00
200  1.9900000000000D+00  0.0000000000000D+00  0.0000000000000D+00
201  2.0000000000000D+00  0.0000000000000D+00  0.0000000000000D+00
202  2.0100000000000D+00  0.0000000000000D+00  0.0000000000000D+00
203  2.0200000000000D+00  0.0000000000000D+00  0.0000000000000D+00
204  2.0300000000000D+00  0.0000000000000D+00  0.0000000000000D+00
205  2.0400000000000D+00  0.0000000000000D+00  0.0000000000000D+00
206  2.0500000000000D+00  0.0000000000000D+00  0.0000000000000D+00
207  2.0600000000000D+00  0.0000000000000D+00  0.0000000000000D+00
208  2.0700000000000D+00  0.0000000000000D+00  0.0000000000000D+00
209  2.0800000000000D+00  0.0000000000000D+00  0.0000000000000D+00
210  2.0900000000000D+00  0.0000000000000D+00  0.0000000000000D+00
211  2.1000000000000D+00  0.0000000000000D+00  0.0000000000000D+00
212  2.1100000000000D+00  0.0000000000000D+00  0.0000000000000D+00
213  2.1200000000000D+00  0.0000000000000D+00  0.0000000000000D+00
214  2.1300000000000D+00  0.0000000000000D+00  0.0000000000000D+00
215  2.1400000000000D+00  0.0000000000000D+00  0.0000000000000D+00
216  2.1500000000000D+00  0.0000000000000D+00  0.0000000000000D+00
217  2.1600000000000D+00  0.0000000000000D+00  0.0000000000000D+00
218  2.1700000000000D+00  0.0000000000000D+00  0.0000000000000D+00
219  2.1800000000000D+00  0.0000000000000D+00  0.0000000000000D+00
220  2.1900000000000D+00  0.0000000000000D+00  0.0000000000000D+00
221  2.2000000000000D+00  0.0000000000000D+00  0.0000000000000D+00
222  2.2100000000000D+00  0.0000000000000D+00  0.0000000000000D+00
223  2.2200000000000D+00  0.0000000000000D+00  0.0000000000000D+00
224  2.2300000000000D+00  0.0000000000000D+00  0.0000000000000D+00
225  2.2400000000000D+00  0.0000000000000D+00  0.0000000000000D+00
226  2.2500000000000D+00  0.0000000000000D+00  0.0000000000000D+00
227  2.2600000000000D+00  0.0000000000000D+00  0.0000000000000D+00
228  2.2700000000000D+00  0.0000000000000D+00  0.0000000000000D+00
229  2.2800000000000D+00  0.0000000000000D+00  0.0000000000000D+00
230  2.2900000000000D+00  0.0000000000000D+00  0.0000000000000D+00
231  2.3000000000000D+00  0.0000000000000D+00  0.0000000000000D+00
232  2.3100000000000D+00  0.0000000000000D+00  0.0000000000000D+00
233  2.3200000000000D+00  0.0000000000000D+00  0.0000000000000D+00
234  2.3300000000000D+00  0.0000000000000D+00  0.0000000000000D+00
235  2.3400000000000D+00  0.0000000000000D+00  0.0000000000000D+00
236  2.3500000000000D+00  0.0000000000000D+00  0.0000000000000D+00
237  2.3600000000000D+00  0.0000000000000D+00  0.0000000000000D+00
238  2.3700000000000D+00  0.0000000000000D+00  0.0000000000000D+00
239  2.3800000000000D+00  0.0000000000000D+00  0.0000000000000D+00
240  2.3900000000000D+00  0.0000000000000D+00  0.0000000000000D+00
241  2.4000000000000D+00  0.0000000000000D+00  0.0000000000000D+00
242  2.4100000000000D+00  0.0000000000000D+00  0.0000000000000D+00
243  2.4200000000000D+00  0.0000000000000D+00  0.0000000000000D+00
244  2.4300000000000D+00  0.0000000000000D+00  0.0000000000000D+00
245  2.4400000000000D+00  0.0000000000000D+00  0.0000000000000D+00
246  2.4500000000000D+00  0.0000000000000D+00  0.0000000000000D+00
247  2.4600000000000D+00  0.0000000000000D+00  0.0000000000000D+00
248  2.4700000000000D+00  0.0000000000000D+00  0.0000000000000D+00
249  2.4800000000000D+00  0.0000000000000D+00  0.0000000000000D+00
250  2.4900000000000D+00  0.0000000000000D+00  0.0000000000000D+00
251  2.5000000000000D+00  0.0000000000000D+00  0.0000000000000D+00
252  2.5100000000000D+00  0.0000000000000D+00  0.0000000000000D+00
253  2.5200000000000D+00  0.0000000000000D+00  0.0000000000000D+00
254  2.5300000000000D+00  0.0000000000000D+00  0.0000000000000D+00
255  2.5400000000000D+00  0.0000000000000D+00  0.0000000000000D+00
256  2.5500000000000D+00  0.0000000000000D+00  0.0000000000000D+00
257  2.5600000000000D+00  0.0000000000000D+00  0.0000000000000D+00
258  2.5700000000000D+00  0.0000000000000D+00  0.0000000000000D+00
259  2.5800000000000D+00  0.0000000000000D+00  0.0000000000000D+00
260  2.5900000000000D+00  0.0000000000000D+00  0.0000000000000D+00
261  2.6000000000000D+00  0.0000000000000D+00  0.0000000000000D+00
262  2.6100000000000D+00  0.0000000000000D+00  0.0000000000000D+00
263  2.6200000000000D+00  0.0000000000000D+00  0.0000000000000D+00
264  2.6300000000000D+00  0.0000000000000D+00  0.0000000000000D+00
265  2.6400000000000D+00  0.0000000000000D+00  0.0000000000000D+00
266  2.6500000000000D+00  0.0000000000000D+00  0.0000000000000D+00
267  2.6600000000000D+00  0.0000000000000D+00  0.0000000000000D+00
268  2.6700000000000D+00  0.0000000000000D+00  0.0000000000000D+00
269  2.6800000000000D+00  0.0000000000000D+00  0.0000000000000D+00
270  2.6900000000000D+00  0.0000000000000D+00  0.0000000000000D+00
271  2.7000000000000D+00  0.0000000000000D+00  0.0000000000000D+00
272  2.7100000000000D+00  0.0000000000000D+00  0.0000000000000D+00
273  2.7200000000000D+00  0.0000000000000D+00  0.0000000000000D+00
274  2.7300000000000D+00  0.0000000000000D+00  0.0000000000000D+00
275  2.7400000000000D+00  0.0000000000000D+00  0.0000000000000D+00
276  2.7500000000000D+00  0.0000000000000D+00  0.0000000000000D+00
277  2.7600000000000D+00  0.0000000000000D+00  0.0000000000000D+00
278  2.7700000000000D+00  0.0000000000000D+00  0.0000000000000D+00
279  2.7800000000000D+00  0.0000000000000D+00  0.0000000000000D+00
280  2.7900000000000D+00  0.0000000000000D+00  0.0000000000000D+00
281  2.8000000000000D+00  0.0000000000000D+00  0.0000000000000D+00
282  2.8100000000000D+00  0.0000000000000D+00  0.0000000000000D+00
283  2.8200000000000D+00  0.0000000000000D+00  0.0000000000000D+00
284  2.8300000000000D+00  0.0000000000000D+00  0.0000000000000D+00
285  2.8400000000000D+00  0.0000000000000D+00  0.0000000000000D+00
286  2.8500000000000D+00  0.0000000000000D+00  0.0000000000000D+00
287  2.8600000000000D+00  0.0000000000000D+00  0.0000000000000D+00
288  2.8700000000000D+00  0.0000000000000D+00  0.0000000000000D+00
289  2.8800000000000D+00  0.0000000000000D+00  0.0000000000000D+00
290  2.8900000000000D+00  0.0000000000000D+00  0.0000000000000D+00
291  2.9000000000000D+00  0.0000000000000D+00  0.0000000000000D+00
292  2.9100000000000D+00  0.0000000000000D+00  0.0000000000000D+00
293  2.9200000000000D+00  0.0000000000000D+00  0.0000000000000D+00
294  2.9300000000000D+00  0.0000000000000D+00  0.0000000000000D+00
295  2.9400000000000D+00  0.0000000000000D+00  0.0000000000000D+00
296  2.9500000000000D+00  0.0000000000000D+00  0.0000000000000D+00
297  2.9600000000000D+00  0.0000000000000D+00  0.0000000000000D+00
298  2.9700000000000D+00  0.0000000000000D+00  0.0000000000000D+00
299  2.9800000000000D+00  0.0000000000000D+00  0.0000000000000D+00
300  2.9900000000000D+00  0.0000000000000D+00  0.0000000000000D+00
301  3.0000000000000D+00  0.0000000000000D+00  0.0000000000000D+00
302  3.0100000000000D+00  0.0000000000000D+00  0.0000000000000D+00
303  3.0200000000000D+00  0.0000000000000D+00  0.0000000000000D+00
304  3.0300000000000D+00  0.0000000000000D+00  0.0000000000000D+00
305  3.0400000000000D+00  0.0000000000000D+00  0.0000000000000D+00
306  3.0500000000000D+00  0.0000000000000D+00  0.0000000000000D+00
307  3.0600000000000D+00  0.0000000000000D+00  0.0000000000000D+00
308  3.0700000000000D+00  0.0000000000000D+00  0.0000000000000D+00
309  3.0800000000000D+00  0.0000000000000D+00  0.0000000000000D+00
310  3.0900000000000D+00  0.0000000000000D+00  0.0000000000000D+00
311  3.1000000000000D+00  0.0000000000000D+00  0.0000000000000D+00
312  3.1100000000000D+00  0.0000000000000D+00  0.0000000000000D+00
313  3.1200000000000D+00  0.0000000000000D+00  0.0000000000000D+00
314  3.1300000000000D+00  0.0000000000000D+00  0.0000000000000D+00
315  3.1400000000000D+00  0.0000000000000D+00  0.0000000000000D+00
316  3.1500000000000D+00  0.0000000000000D+00  0.0000000000000D+00
317  3.1600000000000D+00  0.0000000000000D+00  0.0000000000000D+00
318  3.1700000000000D+00  0.0000000000000D+00  0.0000000000000D+00
319  3.1800000000000D+00  0.0000000000000D+00  0.0000000000000D+00
320  3.1900000000000D+00  0.0000000000000D+00  0.0000000000000D+00
321  3.2000000000000D+00  0.0000000000000D+00  0.0000000000000D+00
322  3.2100000000000D+00  0.0000000000000D+00  0.0000000000000D+00
323  3.2200000000000D+00  0.0000000000000D+00  0.0000000000000D+00
324  3.2300000000000D+00  0.0000000000000D+00  0.0000000000000D+00
325  3.2400000000000D+00  0.0000000000000D+00  0.0000000000000D+00
326  3.2500000000000D+00  0.0000000000000D+00  0.0000000000000D+00
327  3.2600000000000D+00  0.0000000000000D+00  0.0000000000000D+00
328  3.2700000000000D+00  0.0000000000000D+00  0.0000000000000D+00
329  3.2800000000000D+00  0.0000000000000D+00  0.0000000000000D+00
330  3.2900000000000D+00  0.0000000000000D+00  0.0000000000000D+00
331  3.3000000000000D+00  0.0000000000000D+00  0.0000000000000D+00
332  3.3100000000000D+00  0.0000000000000D+00  0.0000000000000D+00
333  3.3200000000000D+00  0.0000000000000D+00  0.0000000000000D+00
334  3.3300000000000D+00  0.0000000000000D+00  0.0000000000000D+00
335  3.3400000000000D+00  0.0000000000000D+00  0.0000000000000D+00
336  3.3500000000000D+00  0.0000000000000D+00  0.0000000000000D+00
337  3.3600000000000D+00  0.0000000000000D+00  0.0000000000000D+00
338  3.3700000000000D+00  0.0000000000000D+00  0.0000000000000D+00
339  3.3800000000000D+00  0.0000000000000D+00  0.0000000000000D+00
340  3.3900000000000D+00  0.0000000000000D+00  0.0000000000000D+00
341  3.4000000000000D+00  0.0000000000000D+00  0.0000000000000D+00
342  3.4100000000000D+00  0.0000000000000D+00  0.0000000000000D+00
343  3.4200000000000D+00  0.0000000000000D+00  0.0000000000000D+00
344  3.4300000000000D+00  0.0000000000000D+00  0.0000000000000D+00
345  3.4400000000000D+00  0.0000000000000D+00  0.0000000000000D+00
346  3.4500000000000D+00  0.0000000000000D+00  0.0000000000000D+00
347  3.4600000000000D+00  0.0000000000000D+00  0.0000000000000D+00
348  3.4700000000000D+00  0.0000000000000D+00  0.0000000000000D+00
349  3.4800000000000D+00  0.0000000000000D+00  0.0000000000000D+00
350  3.4900000000000D+00  0.0000000000000D+00  0.0000000000000D+00
351  3.5000000000000D+00  0.0000000000000D+00  0.0000000000000D+00
352  3.5100000000000D+00  0.0000000000000D+00  0.0000000000000D+00
353  3.5200000000000D+00  0.0000000000000D+00  0.0000000000000D+00
354  3.5300000000000D+00  0.0000000000000D+00  0.0000000000000D+00
355  3.5400000000000D+00  0.0000000000000D+00  0.0000000000000D+00
356  3.5500000000000D+00  0.0000000000000D+00  0.0000000000000D+00
357  3.5600000000000D+00  0.0000000000000D+00  0.0000000000000D+00
358  3.5700000000000D+00  0.0000000000000D+00  0.0000000000000D+00
359  3.5800000000000D+00  0.0000000000000D+00  0.0000000000000D+00
360  3.5900000000000D+00  0.0000000000000D+00  0.0000000000000D+00
361  3.6000000000000D+00  0.0000000000000D+00  0.0000000000000D+00
362  3.6100000000000D+00  0.0000000000000D+00  0.0000000000000D+00
363  3.6200000000000D+00  0.0000000000000D+00  0.0000000000000D+00
364  3.6300000000000D+00  0.0000000000000D+00  0.0000000000000D+00
365  3.6400000000000D+00  0.0000000000000D+00  0.0000000000000D+00
366  3.6500000000000D+00  0.0000000000000D+00  0.0000000000000D+00
367  3.6600000000000D+00  0.0000000000000D+00  0.0000000000000D+00
368  3.6700000000000D+00  0.0000000000000D+00  0.0000000000000D+00
369  3.6800000000000D+00  0.0000000000000D+00  0.0000000000000D+00
370  3.6900000000000D+00  0.0000000000000D+00  0.0000000000000D+00
371  3.7000000000000D+00  0.0000000000000D+00  0.0000000000000D+00
372  3.7100000000000D+00  0.0000000000000D+00  0.0000000000000D+00
373  3.7200000000000D+00  0.0000000000000D+00  0.0000000000000D+00
374  3.7300000000000D+00  0.0000000000000D+00  0.0000000000000D+00
375  3.7400000000000D+00  0.0000000000000D+00  0.0000000000000D+00
376  3.7500000000000D+00  0.0000000000000D+00  0.0000000000000D+00
377  3.7600000000000D+00  0.0000000000000D+00  0.0000000000000D+00
378  3.7700000000000D+00  0.0000000000000D+00  0.0000000000000D+00
379  3.7800000000000D+00  0.0000000000000D+00  0.0000000000000D+00
380  3.7900000000000D+00  0.0000000000000D+00  0.0000000000000D+00
381  3.8000000000000D+00  0.0000000000000D+00  0.0000000000000D+00
382  3.8100000000000D+00  0.0000000000000D+00  0.0000000000000D+00
383  3.8200000000000D+00  0.0000000000000D+00  0.0000000000000D+00
384  3.8300000000000D+00  0.0000000000000D+00  0.0000000000000D+00
385  3.8400000000000D+00  0.0000000000000D+00  0.0000000000000D+00
386  3.8500000000000D+00  0.0000000000000D+00  0.0000000000000D+00
387  3.8600000000000D+00  0.0000000000000D+00  0.0000000000000D+00
388  3.8700000000000D+00  0.0000000000000D+00  0.0000000000000D+00
389  3.8800000000000D+00  0.0000000000000D+00  0.0000000000000D+00
390  3.8900000000000D+00  0.0000000000000D+00  0.0000000000000D+00
391  3.9000000000000D+00  0.0000000000000D+00  0.0000000000000D+00
392  3.9100000000000D+00  0.0000000000000D+00  0.0000000000000D+00
393  3.9200000000000D+00  0.0000000000000D+00  0.0000000000000D+00
394  3.9300000000000D+00  0.0000000000000D+00  0.0000000000000D+00
395  3.9400000000000D+00  0.0000000000000D+00  0.0000000000000D+00
396  3.9500000000000D+00  0.0000000000000D+00  0.0000000000000D+00
397  3.9600000000000D+00  0.0000000000000D+00  0.0000000000000D+00
398  3.9700000000000D+00  0.0000000000000D+00  0.0000000000000D+00
399  3.9800000000000D+00  0.0000000000000D+00  0.0000000000000D+00
400  3.9900000000000D+00  0.0000000000000D+00  0.0000000000000D+00
401  4.0000000000000D+00  0.0000000000000D+00  0.0000000000000D+00
402  4.0100000000000D+00  0.0000000000000D+00  0.0000000000000D+00
403  4.0200000000000D+00  0.0000000000000D+00  0.0000000000000D+00
404  4.0300000000000D+00  0.0000000000000D+00  0.0000000000000D+00
405  4.0400000000000D+00  0.0000000000000D+00  0.0000000000000D+00
406  4.0500000000000D+00  0.0000000000000D+00  0.0000000000000D+00
407  4.0600000000000D+00  0.0000000000000D+00  0.0000000000000D+00
408  4.0700000000000D+00  0.0000000000000D+00  0.0000000000000D+00
409  4.0800000000000D+00  0.0000000000000D+00  0.0000000000000D+00
410  4.0900000000000D+00  0.0000000000000D+00  0.0000000000000D+00
411  4.1000000000000D+00  0.0000000000000D+00  0.0000000000000D+00
412  4.1100000000000D+00  0.0000000000000D+00  0.0000000000000D+00
413  4.1200000000000D+00  0.0000000000000D+00  0.0000000000000D+00
414  4.1300000000000D+00  0.0000000000000D+00  0.0000000000000D+00
415  4.1400000000000D+00  0.0000000000000D+00  0.0000000000000D+00
416  4.1500000000000D+00  0.0000000000000D+00  0.0000000000000D+00
417  4.1600000000000D+00  0.0000000000000D+00  0.0000000000000D+00
418  4.1700000000000D+00  0.0000000000000D+00  0.0000000000000D+00
419  4.1800000000000D+00  0.0000000000000D+00  0.0000000000000D+00
420  4.1900000000000D+00  0.0000000000000D+00  0.0000000000000D+00
421  4.2000000000000D+00  0.0000000000000D+00  0.0000000000000D+00
422  4.2100000000000D+00  0.0000000000000D+00  0.0000000000000D+00
423  4.2200000000000D+00  0.0000000000000D+00  0.0000000000000D+00
424  4.2300000000000D+00  0.0000000000000D+00  0.0000000000000D+00
425  4.2400000000000D+00  0.0000000000000D+00  0.0000000000000D+00
426  4.2500000000000D+00  0.0000000000000D+00  0.0000000000000D+00
427  4.2600000000000D+00  0.0000000000000D+00  0.0000000000000D+00
428  4.2700000000000D+00  0.0000000000000D+00  0.0000000000000D+00
429  4.2800000000000D+00  0.0000000000000D+00  0.0000000000000D+00
430  4.2900000000000D+00  0.0000000000000D+00  0.0000000000000D+00
431  4.3000000000000D+00  0.0000000000000D+00  0.0000000000000D+00
432  4.3100000000000D+00  0.0000000000000D+00  0.0000000000000D+00
433  4.3200000000000D+00  0.0000000000000D+00  0.0000000000000D+00
434  4.3300000000000D+00  0.0000000000000D+00  0.0000000000000D+00
435  4.3400000000000D+00  0.0000000000000D+00  0.0000000000000D+00
436  4.3500000000000D+00  0.0000000000000D+00  0.0000000000000D+00
437  4.3600000000000D+00  0.0000000000000D+00  0.0000000000000D+00
438  4.3700000000000D+00  0.0000000000000D+00  0.0000000000000D+00
439  4.3800000000000D+00  0.0000000000000D+00  0.0000000000000D+00
440  4.3900000000000D+00  0.0000000000000D+00  0.0000000000000D+00
441  4.4000000000000D+00  0.0000000000000D+00  0.0000000000000D+00
442  4.4100000000000D+00  0.0000000000000D+00  0.0000000000000D+00
443  4.4200000000000D+00  0.0000000000000D+00  0.0000000000000D+00