Te    ONCVPSP  r_core=  1.81  2.21  1.66
52.0000     16.0000      140819    zatom,zion,pspd
8    11     2     4   601     0    pspcod,pspxc,lmax,lloc,mmax,r2well
6.00000000  1.45000000  0.00000000    rchrg fchrg qchrg
2     2     2     0     0    nproj
0                 extension_switch
0                         9.5062434102437D+00  1.3688744674417D+00
1  0.0000000000000D+00 -0.0000000000000D+00 -0.0000000000000D+00
2  1.0000000000000D-02 -4.6986017262168D-02 -4.9530549163730D-02
3  2.0000000000000D-02 -9.3815752743188D-02 -9.8832052356298D-02
4  3.0000000000000D-02 -1.4033375984997D-01 -1.4767661821782D-01
5  4.0000000000000D-02 -1.8638625801715D-01 -1.9583865885912D-01
6  5.0000000000000D-02 -2.3182195486912D-01 -2.4309602724147D-01
7  6.0000000000000D-02 -2.7649285541343D-01 -2.8923113739697D-01
8  7.0000000000000D-02 -3.2025505403268D-01 -3.3403206188262D-01
9  8.0000000000000D-02 -3.6296950511730D-01 -3.7729360095631D-01
10  9.0000000000000D-02 -4.0450276827494D-01 -4.1881831807954D-01
11  1.0000000000000D-01 -4.4472772417617D-01 -4.5841753650960D-01
12  1.1000000000000D-01 -4.8352425720583D-01 -4.9591229187947D-01
13  1.2000000000000D-01 -5.2077990126806D-01 -5.3113423589281D-01
14  1.3000000000000D-01 -5.5639044522363D-01 -5.6392648642256D-01
15  1.4000000000000D-01 -5.9026049468689D-01 -5.9414441962489D-01
16  1.5000000000000D-01 -6.2230398699243D-01 -6.2165639977034D-01
17  1.6000000000000D-01 -6.5244465653403D-01 -6.4634444301683D-01
18  1.7000000000000D-01 -6.8061644765105D-01 -6.6810481127865D-01
19  1.8000000000000D-01 -7.0676387281421D-01 -6.8684853312820D-01
20  1.9000000000000D-01 -7.3084231401448D-01 -7.0250184885449D-01
21  2.0000000000000D-01 -7.5281826486236D-01 -7.1500657618010D-01
22  2.1000000000000D-01 -7.7266951288182D-01 -7.2432039595423D-01
23  2.2000000000000D-01 -7.9038525945898D-01 -7.3041705415700D-01
24  2.3000000000000D-01 -8.0596617749857D-01 -7.3328648028626D-01
25  2.4000000000000D-01 -8.1942440526661D-01 -7.3293481980915D-01
26  2.5000000000000D-01 -8.3078347676189D-01 -7.2938438111000D-01
27  2.6000000000000D-01 -8.4007818797511D-01 -7.2267349580438D-01
28  2.7000000000000D-01 -8.4735439964017D-01 -7.1285629313864D-01
29  2.8000000000000D-01 -8.5266877705868D-01 -7.0000238889374D-01
30  2.9000000000000D-01 -8.5608846798499D-01 -6.8419649019879D-01
31  3.0000000000000D-01 -8.5769071963702D-01 -6.6553791728867D-01
32  3.1000000000000D-01 -8.5756243651197D-01 -6.4414004431315D-01
33  3.2000000000000D-01 -8.5579968168806D-01 -6.2012966250887D-01
34  3.3000000000000D-01 -8.5250712484811D-01 -5.9364626988988D-01
35  3.4000000000000D-01 -8.4779742856107D-01 -5.6484127681053D-01
36  3.5000000000000D-01 -8.4179060856925D-01 -5.3387717224436D-01
37  3.6000000000000D-01 -8.3461331003794D-01 -5.0092657798249D-01
38  3.7000000000000D-01 -8.2639808489916D-01 -4.6617129819733D-01
39  3.8000000000000D-01 -8.1728260116429D-01 -4.2980127717528D-01
40  3.9000000000000D-01 -8.0740881653313D-01 -3.9201350579823D-01
41  4.0000000000000D-01 -7.9692214364752D-01 -3.5301091263800D-01
42  4.1000000000000D-01 -7.8597057176490D-01 -3.1300119421896D-01
43  4.2000000000000D-01 -7.7470377158195D-01 -2.7219561901532D-01
44  4.3000000000000D-01 -7.6327218391814D-01 -2.3080780628464D-01
45  4.4000000000000D-01 -7.5182609714624D-01 -1.8905248622377D-01
46  4.5000000000000D-01 -7.4051471844200D-01 -1.4714424819496D-01
47  4.6000000000000D-01 -7.2948524423749D-01 -1.0529628420268D-01
48  4.7000000000000D-01 -7.1888193572859D-01 -6.3719135448840D-02
49  4.8000000000000D-01 -7.0884521791265D-01 -2.2619466760237D-02
50  4.9000000000000D-01 -6.9951077417422D-01  1.7801168368199D-02
51  5.0000000000000D-01 -6.9100861921221D-01  5.7347595863834D-02
52  5.1000000000000D-01 -6.8346231022722D-01  9.5832107150133D-02
53  5.2000000000000D-01 -6.7698818685945D-01  1.3307550875795D-01
54  5.3000000000000D-01 -6.7169435816716D-01  1.6890851829933D-01
55  5.4000000000000D-01 -6.6768023014175D-01  2.0317243336335D-01
56  5.5000000000000D-01 -6.6503565361672D-01  2.3572031683566D-01
57  5.6000000000000D-01 -6.6384028582052D-01  2.6641789805690D-01
58  5.7000000000000D-01 -6.6416311213464D-01  2.9514425758763D-01
59  5.8000000000000D-01 -6.6606174407051D-01  3.2179282336358D-01
60  5.9000000000000D-01 -6.6958212637745D-01  3.4627180945200D-01
61  6.0000000000000D-01 -6.7475804400173D-01  3.6850493445082D-01
62  6.1000000000000D-01 -6.8161073382617D-01  3.8843200114289D-01
63  6.2000000000000D-01 -6.9014892727248D-01  4.0600888130319D-01
64  6.3000000000000D-01 -7.0036817714526D-01  4.2120850453040D-01
65  6.4000000000000D-01 -7.1225118985064D-01  4.3402044875680D-01
66  6.5000000000000D-01 -7.2576772831078D-01  4.4445113218326D-01
67  6.6000000000000D-01 -7.4087438787112D-01  4.5252420040295D-01
68  6.7000000000000D-01 -7.5751504737680D-01  4.5827995868282D-01
69  6.8000000000000D-01 -7.7562101820117D-01  4.6177523699049D-01
70  6.9000000000000D-01 -7.9511125714337D-01  4.6308317786548D-01
71  7.0000000000000D-01 -8.1589275564746D-01  4.6229278041025D-01
72  7.1000000000000D-01 -8.3786107630259D-01  4.5950822999531D-01
73  7.2000000000000D-01 -8.6090084358637D-01  4.5484830770367D-01
74  7.3000000000000D-01 -8.8488634866036D-01  4.4844563685496D-01
75  7.4000000000000D-01 -9.0968220941705D-01  4.4044586550513D-01
76  7.5000000000000D-01 -9.3514413657414D-01  4.3100670624194D-01
77  7.6000000000000D-01 -9.6111974507691D-01  4.2029689143090D-01
78  7.7000000000000D-01 -9.8744941236165D-01  4.0849508666701D-01
79  7.8000000000000D-01 -1.0139671992189D+00  3.9578871301997D-01
80  7.9000000000000D-01 -1.0405018202994D+00  3.8237270158182D-01
81  8.0000000000000D-01 -1.0668776586026D+00  3.6844818789119D-01
82  8.1000000000000D-01 -1.0929158179714D+00  3.5422115425230D-01
83  8.2000000000000D-01 -1.1184352073426D+00  3.3990102835759D-01
84  8.3000000000000D-01 -1.1432536502627D+00  3.2569924696330D-01
85  8.4000000000000D-01 -1.1671890129735D+00  3.1182779365841D-01
86  8.5000000000000D-01 -1.1900603442029D+00  2.9849772001532D-01
87  8.6000000000000D-01 -1.2116890196476D+00  2.8591765961720D-01
88  8.7000000000000D-01 -1.2318998840231D+00  2.7429234462572D-01
89  8.8000000000000D-01 -1.2505223834611D+00  2.6382113468629D-01
90  8.9000000000000D-01 -1.2673916809684D+00  2.5469656806399D-01
91  9.0000000000000D-01 -1.2823497476252D+00  2.4710294496015D-01
92  9.1000000000000D-01 -1.2952464221947D+00  2.4121495296718D-01
93  9.2000000000000D-01 -1.3059404318546D+00  2.3719634456714D-01
94  9.3000000000000D-01 -1.3143003668566D+00  2.3519867644787D-01
95  9.4000000000000D-01 -1.3202056020885D+00  2.3536012017657D-01
96  9.5000000000000D-01 -1.3235471587771D+00  2.3780435340420D-01
97  9.6000000000000D-01 -1.3242284999542D+00  2.4263954024177D-01
98  9.7000000000000D-01 -1.3221658037334D+00  2.4995798101220D-01
99  9.8000000000000D-01 -1.3172898536853D+00  2.5983371024878D-01
100  9.9000000000000D-01 -1.3095456549270D+00  2.7232299598908D-01
101  1.0000000000000D+00 -1.2988930238601D+00  2.8746360612676D-01
102  1.0100000000000D+00 -1.2853070615394D+00  3.0527422989258D-01
103  1.0200000000000D+00 -1.2687784483733D+00  3.2575413367007D-01
104  1.0300000000000D+00 -1.2493132826539D+00  3.4888339813078D-01
105  1.0400000000000D+00 -1.2269338568148D+00  3.7462197854846D-01
106  1.0500000000000D+00 -1.2016791183253D+00  4.0290918981002D-01
107  1.0600000000000D+00 -1.1736033686420D+00  4.3366540415720D-01
108  1.0700000000000D+00 -1.1427765359357D+00  4.6679177686008D-01
109  1.0800000000000D+00 -1.1092834707520D+00  5.0217119039381D-01
110  1.0900000000000D+00 -1.0732245750626D+00  5.3966756751096D-01
111  1.1000000000000D+00 -1.0347153477059D+00  5.7912658135237D-01
112  1.1100000000000D+00 -9.9388467449259D-01  6.2037785851342D-01
113  1.1200000000000D+00 -9.5087451753929D-01  6.6323546572093D-01
114  1.1300000000000D+00 -9.0583940534125D-01  7.0749863053109D-01
115  1.1400000000000D+00 -8.5894649483245D-01  7.5295200888630D-01
116  1.1500000000000D+00 -8.1037302490056D-01  7.9936879626749D-01
117  1.1600000000000D+00 -7.6030597208230D-01  8.4651125600216D-01
118  1.1700000000000D+00 -7.0894153433390D-01  8.9413160637612D-01
119  1.1800000000000D+00 -6.5648336604223D-01  9.4197457482776D-01
120  1.1900000000000D+00 -6.0314133980918D-01  9.8977877532390D-01
121  1.2000000000000D+00 -5.4913155216554D-01  1.0372766280904D+00
122  1.2100000000000D+00 -4.9467306321781D-01  1.0841994617024D+00
123  1.2200000000000D+00 -4.3998759370585D-01  1.1302773196084D+00
124  1.2300000000000D+00 -3.8529975621490D-01  1.1752386103712D+00
125  1.2400000000000D+00 -3.3083310372900D-01  1.2188159355849D+00
126  1.2500000000000D+00 -2.7680896341459D-01  1.2607474213912D+00
127  1.2600000000000D+00 -2.2344870566660D-01  1.3007733364452D+00
128  1.2700000000000D+00 -1.7096846128458D-01  1.3386436922866D+00
129  1.2800000000000D+00 -1.1957708344292D-01  1.3741208525638D+00
130  1.2900000000000D+00 -6.9481467125365D-02  1.4069719204089D+00
131  1.3000000000000D+00 -2.0877763482270D-02  1.4369811129644D+00
132  1.3100000000000D+00  2.6048672516079D-02  1.4639495368389D+00
133  1.3200000000000D+00  7.1115466385541D-02  1.4876843085806D+00
134  1.3300000000000D+00  1.1415900059942D-01  1.5080203500817D+00
135  1.3400000000000D+00  1.5502615816447D-01  1.5248086920537D+00
136  1.3500000000000D+00  1.9356876918361D-01  1.5379089897711D+00
137  1.3600000000000D+00  2.2966610613518D-01  1.5472199933912D+00
138  1.3700000000000D+00  2.6320177791040D-01  1.5526479460252D+00
139  1.3800000000000D+00  2.9407650558280D-01  1.5541239769512D+00
140  1.3900000000000D+00  3.2221365549011D-01  1.5516111101725D+00
141  1.4000000000000D+00  3.4753943131308D-01  1.5450779048637D+00
142  1.4100000000000D+00  3.7001199617715D-01  1.5345369043391D+00
143  1.4200000000000D+00  3.8959676640281D-01  1.5200116889857D+00
144  1.4300000000000D+00  4.0627677593715D-01  1.5015506882406D+00
145  1.4400000000000D+00  4.2006033993075D-01  1.4792364384303D+00
146  1.4500000000000D+00  4.3095721357767D-01  1.4531552292590D+00
147  1.4600000000000D+00  4.3901293345056D-01  1.4234402665688D+00
148  1.4700000000000D+00  4.4427432319155D-01  1.3902279544367D+00
149  1.4800000000000D+00  4.4681271655755D-01  1.3536869087367D+00
150  1.4900000000000D+00  4.4671315073796D-01  1.3140037066949D+00
151  1.5000000000000D+00  4.4407190552218D-01  1.2713806416476D+00
152  1.5100000000000D+00  4.3900799069369D-01  1.2260474697616D+00
153  1.5200000000000D+00  4.3164188066044D-01  1.1782384173546D+00
154  1.5300000000000D+00  4.2211994020599D-01  1.1282167747781D+00
155  1.5400000000000D+00  4.1058858062759D-01  1.0762486388816D+00
156  1.5500000000000D+00  3.9721298602979D-01  1.0226198009468D+00
157  1.5600000000000D+00  3.8216205263646D-01  9.6762169157221D-01
158  1.5700000000000D+00  3.6561636483424D-01  9.1155727608466D-01
159  1.5800000000000D+00  3.4776091203895D-01  8.5473334608739D-01
160  1.5900000000000D+00  3.2878827127609D-01  7.9746445143792D-01
161  1.6000000000000D+00  3.0889259327881D-01  7.4006228394073D-01
162  1.6100000000000D+00  2.8827446950612D-01  6.8284614285771D-01
163  1.6200000000000D+00  2.6713052281754D-01  6.2612420884626D-01
164  1.6300000000000D+00  2.4566521933309D-01  5.7021577744731D-01
165  1.6400000000000D+00  2.2407156687505D-01  5.1541905680296D-01
166  1.6500000000000D+00  2.0255355366042D-01  4.6204897706283D-01
167  1.6600000000000D+00  1.8129482567249D-01  4.1038608379091D-01
168  1.6700000000000D+00  1.6049387417067D-01  3.6073359420874D-01
169  1.6800000000000D+00  1.4031988303855D-01  3.1334731013236D-01
170  1.6900000000000D+00  1.2096053707547D-01  2.6851106950242D-01
171  1.7000000000000D+00  1.0256630721478D-01  2.2645008758677D-01
172  1.7100000000000D+00  8.5308583787545D-02  1.8742096630890D-01
173  1.7200000000000D+00  6.9315848480139D-02  1.5161387811332D-01
174  1.7300000000000D+00  5.4737647119484D-02  1.1925027133332D-01
175  1.7400000000000D+00  4.1678254516340D-02  9.0482310685537D-02
176  1.7500000000000D+00  3.0259907831047D-02  6.5488506080917D-02
177  1.7600000000000D+00  2.0561529993616D-02  4.4381553984220D-02
178  1.7700000000000D+00  1.2672877621515D-02  2.7289652227322D-02
179  1.7800000000000D+00  6.6473569576376D-03  1.4285940725277D-02
180  1.7900000000000D+00  2.7087393359845D-03  5.8084996435179D-03
181  1.8000000000000D+00  6.2763533954167D-04  1.3390791226669D-03
182  1.8100000000000D+00 -2.0576888145454D-04 -4.4409397018413D-04
183  1.8200000000000D+00 -2.4165826012275D-04 -5.2002689143669D-04
184  1.8300000000000D+00 -1.9361775772678D-07 -3.4227425438809D-07
185  1.8400000000000D+00 -3.9140603698814D-07 -6.9192108743539D-07
186  1.8500000000000D+00  0.0000000000000D+00  0.0000000000000D+00
187  1.8600000000000D+00  0.0000000000000D+00  0.0000000000000D+00
188  1.8700000000000D+00  0.0000000000000D+00  0.0000000000000D+00
189  1.8800000000000D+00  0.0000000000000D+00  0.0000000000000D+00
190  1.8900000000000D+00  0.0000000000000D+00  0.0000000000000D+00
191  1.9000000000000D+00  0.0000000000000D+00  0.0000000000000D+00
192  1.9100000000000D+00  0.0000000000000D+00  0.0000000000000D+00
193  1.9200000000000D+00  0.0000000000000D+00  0.0000000000000D+00
194  1.9300000000000D+00  0.0000000000000D+00  0.0000000000000D+00
195  1.9400000000000D+00  0.0000000000000D+00  0.0000000000000D+00
196  1.9500000000000D+00  0.0000000000000D+00  0.0000000000000D+00
197  1.9600000000000D+00  0.0000000000000D+00  0.0000000000000D+00
198  1.9700000000000D+00  0.0000000000000D+00  0.0000000000000D+00
199  1.9800000000000D+00  0.0000000000000D+00  0.0000000000000D+00
200  1.9900000000000D+00  0.0000000000000D+00  0.0000000000000D+00
201  2.0000000000000D+00  0.0000000000000D+00  0.0000000000000D+00
202  2.0100000000000D+00  0.0000000000000D+00  0.0000000000000D+00
203  2.0200000000000D+00  0.0000000000000D+00  0.0000000000000D+00
204  2.0300000000000D+00  0.0000000000000D+00  0.0000000000000D+00
205  2.0400000000000D+00  0.0000000000000D+00  0.0000000000000D+00
206  2.0500000000000D+00  0.0000000000000D+00  0.0000000000000D+00
207  2.0600000000000D+00  0.0000000000000D+00  0.0000000000000D+00
208  2.0700000000000D+00  0.0000000000000D+00  0.0000000000000D+00
209  2.0800000000000D+00  0.0000000000000D+00  0.0000000000000D+00
210  2.0900000000000D+00  0.0000000000000D+00  0.0000000000000D+00
211  2.1000000000000D+00  0.0000000000000D+00  0.0000000000000D+00
212  2.1100000000000D+00  0.0000000000000D+00  0.0000000000000D+00
213  2.1200000000000D+00  0.0000000000000D+00  0.0000000000000D+00
214  2.1300000000000D+00  0.0000000000000D+00  0.0000000000000D+00
215  2.1400000000000D+00  0.0000000000000D+00  0.0000000000000D+00
216  2.1500000000000D+00  0.0000000000000D+00  0.0000000000000D+00
217  2.1600000000000D+00  0.0000000000000D+00  0.0000000000000D+00
218  2.1700000000000D+00  0.0000000000000D+00  0.0000000000000D+00
219  2.1800000000000D+00  0.0000000000000D+00  0.0000000000000D+00
220  2.1900000000000D+00  0.0000000000000D+00  0.0000000000000D+00
221  2.2000000000000D+00  0.0000000000000D+00  0.0000000000000D+00
222  2.2100000000000D+00  0.0000000000000D+00  0.0000000000000D+00
223  2.2200000000000D+00  0.0000000000000D+00  0.0000000000000D+00
224  2.2300000000000D+00  0.0000000000000D+00  0.0000000000000D+00
225  2.2400000000000D+00  0.0000000000000D+00  0.0000000000000D+00
226  2.2500000000000D+00  0.0000000000000D+00  0.0000000000000D+00
227  2.2600000000000D+00  0.0000000000000D+00  0.0000000000000D+00
228  2.2700000000000D+00  0.0000000000000D+00  0.0000000000000D+00
229  2.2800000000000D+00  0.0000000000000D+00  0.0000000000000D+00
230  2.2900000000000D+00  0.0000000000000D+00  0.0000000000000D+00
231  2.3000000000000D+00  0.0000000000000D+00  0.0000000000000D+00
232  2.3100000000000D+00  0.0000000000000D+00  0.0000000000000D+00
233  2.3200000000000D+00  0.0000000000000D+00  0.0000000000000D+00
234  2.3300000000000D+00  0.0000000000000D+00  0.0000000000000D+00
235  2.3400000000000D+00  0.0000000000000D+00  0.0000000000000D+00
236  2.3500000000000D+00  0.0000000000000D+00  0.0000000000000D+00
237  2.3600000000000D+00  0.0000000000000D+00  0.0000000000000D+00
238  2.3700000000000D+00  0.0000000000000D+00  0.0000000000000D+00
239  2.3800000000000D+00  0.0000000000000D+00  0.0000000000000D+00
240  2.3900000000000D+00  0.0000000000000D+00  0.0000000000000D+00
241  2.4000000000000D+00  0.0000000000000D+00  0.0000000000000D+00
242  2.4100000000000D+00  0.0000000000000D+00  0.0000000000000D+00
243  2.4200000000000D+00  0.0000000000000D+00  0.0000000000000D+00
244  2.4300000000000D+00  0.0000000000000D+00  0.0000000000000D+00
245  2.4400000000000D+00  0.0000000000000D+00  0.0000000000000D+00
246  2.4500000000000D+00  0.0000000000000D+00  0.0000000000000D+00
247  2.4600000000000D+00  0.0000000000000D+00  0.0000000000000D+00
248  2.4700000000000D+00  0.0000000000000D+00  0.0000000000000D+00
249  2.4800000000000D+00  0.0000000000000D+00  0.0000000000000D+00
250  2.4900000000000D+00  0.0000000000000D+00  0.0000000000000D+00
251  2.5000000000000D+00  0.0000000000000D+00  0.0000000000000D+00
252  2.5100000000000D+00  0.0000000000000D+00  0.0000000000000D+00
253  2.5200000000000D+00  0.0000000000000D+00  0.0000000000000D+00
254  2.5300000000000D+00  0.0000000000000D+00  0.0000000000000D+00
255  2.5400000000000D+00  0.0000000000000D+00  0.0000000000000D+00
256  2.5500000000000D+00  0.0000000000000D+00  0.0000000000000D+00
257  2.5600000000000D+00  0.0000000000000D+00  0.0000000000000D+00
258  2.5700000000000D+00  0.0000000000000D+00  0.0000000000000D+00
259  2.5800000000000D+00  0.0000000000000D+00  0.0000000000000D+00
260  2.5900000000000D+00  0.0000000000000D+00  0.0000000000000D+00
261  2.6000000000000D+00  0.0000000000000D+00  0.0000000000000D+00
262  2.6100000000000D+00  0.0000000000000D+00  0.0000000000000D+00
263  2.6200000000000D+00  0.0000000000000D+00  0.0000000000000D+00
264  2.6300000000000D+00  0.0000000000000D+00  0.0000000000000D+00
265  2.6400000000000D+00  0.0000000000000D+00  0.0000000000000D+00
266  2.6500000000000D+00  0.0000000000000D+00  0.0000000000000D+00
267  2.6600000000000D+00  0.0000000000000D+00  0.0000000000000D+00
268  2.6700000000000D+00  0.0000000000000D+00  0.0000000000000D+00
269  2.6800000000000D+00  0.0000000000000D+00  0.0000000000000D+00
270  2.6900000000000D+00  0.0000000000000D+00  0.0000000000000D+00
271  2.7000000000000D+00  0.0000000000000D+00  0.0000000000000D+00
272  2.7100000000000D+00  0.0000000000000D+00  0.0000000000000D+00
273  2.7200000000000D+00  0.0000000000000D+00  0.0000000000000D+00
274  2.7300000000000D+00  0.0000000000000D+00  0.0000000000000D+00
275  2.7400000000000D+00  0.0000000000000D+00  0.0000000000000D+00
276  2.7500000000000D+00  0.0000000000000D+00  0.0000000000000D+00
277  2.7600000000000D+00  0.0000000000000D+00  0.0000000000000D+00
278  2.7700000000000D+00  0.0000000000000D+00  0.0000000000000D+00
279  2.7800000000000D+00  0.0000000000000D+00  0.0000000000000D+00
280  2.7900000000000D+00  0.0000000000000D+00  0.0000000000000D+00
281  2.8000000000000D+00  0.0000000000000D+00  0.0000000000000D+00
282  2.8100000000000D+00  0.0000000000000D+00  0.0000000000000D+00
283  2.8200000000000D+00  0.0000000000000D+00  0.0000000000000D+00
284  2.8300000000000D+00  0.0000000000000D+00  0.0000000000000D+00
285  2.8400000000000D+00  0.0000000000000D+00  0.0000000000000D+00
286  2.8500000000000D+00  0.0000000000000D+00  0.0000000000000D+00
287  2.8600000000000D+00  0.0000000000000D+00  0.0000000000000D+00
288  2.8700000000000D+00  0.0000000000000D+00  0.0000000000000D+00
289  2.8800000000000D+00  0.0000000000000D+00  0.0000000000000D+00
290  2.8900000000000D+00  0.0000000000000D+00  0.0000000000000D+00
291  2.9000000000000D+00  0.0000000000000D+00  0.0000000000000D+00
292  2.9100000000000D+00  0.0000000000000D+00  0.0000000000000D+00
293  2.9200000000000D+00  0.0000000000000D+00  0.0000000000000D+00
294  2.9300000000000D+00  0.0000000000000D+00  0.0000000000000D+00
295  2.9400000000000D+00  0.0000000000000D+00  0.0000000000000D+00
296  2.9500000000000D+00  0.0000000000000D+00  0.0000000000000D+00
297  2.9600000000000D+00  0.0000000000000D+00  0.0000000000000D+00
298  2.9700000000000D+00  0.0000000000000D+00  0.0000000000000D+00
299  2.9800000000000D+00  0.0000000000000D+00  0.0000000000000D+00
300  2.9900000000000D+00  0.0000000000000D+00  0.0000000000000D+00
301  3.0000000000000D+00  0.0000000000000D+00  0.0000000000000D+00
302  3.0100000000000D+00  0.0000000000000D+00  0.0000000000000D+00
303  3.0200000000000D+00  0.0000000000000D+00  0.0000000000000D+00
304  3.0300000000000D+00  0.0000000000000D+00  0.0000000000000D+00
305  3.0400000000000D+00  0.0000000000000D+00  0.0000000000000D+00
306  3.0500000000000D+00  0.0000000000000D+00  0.0000000000000D+00
307  3.0600000000000D+00  0.0000000000000D+00  0.0000000000000D+00
308  3.0700000000000D+00  0.0000000000000D+00  0.0000000000000D+00
309  3.0800000000000D+00  0.0000000000000D+00  0.0000000000000D+00
310  3.0900000000000D+00  0.0000000000000D+00  0.0000000000000D+00
311  3.1000000000000D+00  0.0000000000000D+00  0.0000000000000D+00
312  3.1100000000000D+00  0.0000000000000D+00  0.0000000000000D+00
313  3.1200000000000D+00  0.0000000000000D+00  0.0000000000000D+00
314  3.1300000000000D+00  0.0000000000000D+00  0.0000000000000D+00
315  3.1400000000000D+00  0.0000000000000D+00  0.0000000000000D+00
316  3.1500000000000D+00  0.0000000000000D+00  0.0000000000000D+00
317  3.1600000000000D+00  0.0000000000000D+00  0.0000000000000D+00
318  3.1700000000000D+00  0.0000000000000D+00  0.0000000000000D+00
319  3.1800000000000D+00  0.0000000000000D+00  0.0000000000000D+00
320  3.1900000000000D+00  0.0000000000000D+00  0.0000000000000D+00
321  3.2000000000000D+00  0.0000000000000D+00  0.0000000000000D+00
322  3.2100000000000D+00  0.0000000000000D+00  0.0000000000000D+00
323  3.2200000000000D+00  0.0000000000000D+00  0.0000000000000D+00
324  3.2300000000000D+00  0.0000000000000D+00  0.0000000000000D+00
325  3.2400000000000D+00  0.0000000000000D+00  0.0000000000000D+00
326  3.2500000000000D+00  0.0000000000000D+00  0.0000000000000D+00
327  3.2600000000000D+00  0.0000000000000D+00  0.0000000000000D+00
328  3.2700000000000D+00  0.0000000000000D+00  0.0000000000000D+00
329  3.2800000000000D+00  0.0000000000000D+00  0.0000000000000D+00
330  3.2900000000000D+00  0.0000000000000D+00  0.0000000000000D+00
331  3.3000000000000D+00  0.0000000000000D+00  0.0000000000000D+00
332  3.3100000000000D+00  0.0000000000000D+00  0.0000000000000D+00
333  3.3200000000000D+00  0.0000000000000D+00  0.0000000000000D+00
334  3.3300000000000D+00  0.0000000000000D+00  0.0000000000000D+00
335  3.3400000000000D+00  0.0000000000000D+00  0.0000000000000D+00
336  3.3500000000000D+00  0.0000000000000D+00  0.0000000000000D+00
337  3.3600000000000D+00  0.0000000000000D+00  0.0000000000000D+00
338  3.3700000000000D+00  0.0000000000000D+00  0.0000000000000D+00
339  3.3800000000000D+00  0.0000000000000D+00  0.0000000000000D+00
340  3.3900000000000D+00  0.0000000000000D+00  0.0000000000000D+00
341  3.4000000000000D+00  0.0000000000000D+00  0.0000000000000D+00
342  3.4100000000000D+00  0.0000000000000D+00  0.0000000000000D+00
343  3.4200000000000D+00  0.0000000000000D+00  0.0000000000000D+00
344  3.4300000000000D+00  0.0000000000000D+00  0.0000000000000D+00
345  3.4400000000000D+00  0.0000000000000D+00  0.0000000000000D+00
346  3.4500000000000D+00  0.0000000000000D+00  0.0000000000000D+00
347  3.4600000000000D+00  0.0000000000000D+00  0.0000000000000D+00
348  3.4700000000000D+00  0.0000000000000D+00  0.0000000000000D+00
349  3.4800000000000D+00  0.0000000000000D+00  0.0000000000000D+00
350  3.4900000000000D+00  0.0000000000000D+00  0.0000000000000D+00
351  3.5000000000000D+00  0.0000000000000D+00  0.0000000000000D+00
352  3.5100000000000D+00  0.0000000000000D+00  0.0000000000000D+00
353  3.5200000000000D+00  0.0000000000000D+00  0.0000000000000D+00
354  3.5300000000000D+00  0.0000000000000D+00  0.0000000000000D+00
355  3.5400000000000D+00  0.0000000000000D+00  0.0000000000000D+00
356  3.5500000000000D+00  0.0000000000000D+00  0.0000000000000D+00
357  3.5600000000000D+00  0.0000000000000D+00  0.0000000000000D+00
358  3.5700000000000D+00  0.0000000000000D+00  0.0000000000000D+00
359  3.5800000000000D+00  0.0000000000000D+00  0.0000000000000D+00
360  3.5900000000000D+00  0.0000000000000D+00  0.0000000000000D+00
361  3.6000000000000D+00  0.0000000000000D+00  0.0000000000000D+00
362  3.6100000000000D+00  0.0000000000000D+00  0.0000000000000D+00
363  3.6200000000000D+00  0.0000000000000D+00  0.0000000000000D+00
364  3.6300000000000D+00  0.0000000000000D+00  0.0000000000000D+00
365  3.6400000000000D+00  0.0000000000000D+00  0.0000000000000D+00
366  3.6500000000000D+00  0.0000000000000D+00  0.0000000000000D+00
367  3.6600000000000D+00  0.0000000000000D+00  0.0000000000000D+00
368  3.6700000000000D+00  0.0000000000000D+00  0.0000000000000D+00
369  3.6800000000000D+00  0.0000000000000D+00  0.0000000000000D+00
370  3.6900000000000D+00  0.0000000000000D+00  0.0000000000000D+00
371  3.7000000000000D+00  0.0000000000000D+00  0.0000000000000D+00
372  3.7100000000000D+00  0.0000000000000D+00  0.0000000000000D+00
373  3.7200000000000D+00  0.0000000000000D+00  0.0000000000000D+00
374  3.7300000000000D+00  0.0000000000000D+00  0.0000000000000D+00
375  3.7400000000000D+00  0.0000000000000D+00  0.0000000000000D+00
376  3.7500000000000D+00  0.0000000000000D+00  0.0000000000000D+00
377  3.7600000000000D+00  0.0000000000000D+00  0.0000000000000D+00
378  3.7700000000000D+00  0.0000000000000D+00  0.0000000000000D+00
379  3.7800000000000D+00  0.0000000000000D+00  0.0000000000000D+00
380  3.7900000000000D+00  0.0000000000000D+00  0.0000000000000D+00
381  3.8000000000000D+00  0.0000000000000D+00  0.0000000000000D+00
382  3.8100000000000D+00  0.0000000000000D+00  0.0000000000000D+00
383  3.8200000000000D+00  0.0000000000000D+00  0.0000000000000D+00
384  3.8300000000000D+00  0.0000000000000D+00  0.0000000000000D+00
385  3.8400000000000D+00  0.0000000000000D+00  0.0000000000000D+00
386  3.8500000000000D+00  0.0000000000000D+00  0.0000000000000D+00
387  3.8600000000000D+00  0.0000000000000D+00  0.0000000000000D+00
388  3.8700000000000D+00  0.0000000000000D+00  0.0000000000000D+00
389  3.8800000000000D+00  0.0000000000000D+00  0.0000000000000D+00
390  3.8900000000000D+00  0.0000000000000D+00  0.0000000000000D+00
391  3.9000000000000D+00  0.0000000000000D+00  0.0000000000000D+00
392  3.9100000000000D+00  0.0000000000000D+00  0.0000000000000D+00
393  3.9200000000000D+00  0.0000000000000D+00  0.0000000000000D+00
394  3.9300000000000D+00  0.0000000000000D+00  0.0000000000000D+00
395  3.9400000000000D+00  0.0000000000000D+00  0.0000000000000D+00
396  3.9500000000000D+00  0.0000000000000D+00  0.0000000000000D+00
397  3.9600000000000D+00  0.0000000000000D+00  0.0000000000000D+00
398  3.9700000000000D+00  0.0000000000000D+00  0.0000000000000D+00
399  3.9800000000000D+00  0.0000000000000D+00  0.0000000000000D+00
400  3.9900000000000D+00  0.0000000000000D+00  0.0000000000000D+00
401  4.0000000000000D+00  0.0000000000000D+00  0.0000000000000D+00
402  4.0100000000000D+00  0.0000000000000D+00  0.0000000000000D+00
403  4.0200000000000D+00  0.0000000000000D+00  0.0000000000000D+00
404  4.0300000000000D+00  0.0000000000000D+00  0.0000000000000D+00
405  4.0400000000000D+00  0.0000000000000D+00  0.0000000000000D+00
406  4.0500000000000D+00  0.0000000000000D+00  0.0000000000000D+00
407  4.0600000000000D+00  0.0000000000000D+00  0.0000000000000D+00
408  4.0700000000000D+00  0.0000000000000D+00  0.0000000000000D+00
409  4.0800000000000D+00  0.0000000000000D+00  0.0000000000000D+00
410  4.0900000000000D+00  0.0000000000000D+00  0.0000000000000D+00
411  4.1000000000000D+00  0.0000000000000D+00  0.0000000000000D+00
412  4.1100000000000D+00  0.0000000000000D+00  0.0000000000000D+00
413  4.1200000000000D+00  0.0000000000000D+00  0.0000000000000D+00
414  4.1300000000000D+00  0.0000000000000D+00  0.0000000000000D+00
415  4.1400000000000D+00  0.0000000000000D+00  0.0000000000000D+00
416  4.1500000000000D+00  0.0000000000000D+00  0.0000000000000D+00
417  4.1600000000000D+00  0.0000000000000D+00  0.0000000000000D+00
418  4.1700000000000D+00  0.0000000000000D+00  0.0000000000000D+00
419  4.1800000000000D+00  0.0000000000000D+00  0.0000000000000D+00
420  4.1900000000000D+00  0.0000000000000D+00  0.0000000000000D+00
421  4.2000000000000D+00  0.0000000000000D+00  0.0000000000000D+00
422  4.2100000000000D+00  0.0000000000000D+00  0.0000000000000D+00
423  4.2200000000000D+00  0.0000000000000D+00  0.0000000000000D+00
424  4.2300000000000D+00  0.0000000000000D+00  0.0000000000000D+00
425  4.2400000000000D+00  0.0000000000000D+00  0.0000000000000D+00
426  4.2500000000000D+00  0.0000000000000D+00  0.0000000000000D+00
427  4.2600000000000D+00  0.0000000000000D+00  0.0000000000000D+00
428  4.2700000000000D+00  0.0000000000000D+00  0.0000000000000D+00
429  4.2800000000000D+00  0.0000000000000D+00  0.0000000000000D+00
430  4.2900000000000D+00  0.0000000000000D+00  0.0000000000000D+00
431  4.3000000000000D+00  0.0000000000000D+00  0.0000000000000D+00
432  4.3100000000000D+00  0.0000000000000D+00  0.0000000000000D+00
433  4.3200000000000D+00  0.0000000000000D+00  0.0000000000000D+00
434  4.3300000000000D+00  0.0000000000000D+00  0.0000000000000D+00
435  4.3400000000000D+00  0.0000000000000D+00  0.0000000000000D+00
436  4.3500000000000D+00  0.0000000000000D+00  0.0000000000000D+00
437  4.3600000000000D+00  0.0000000000000D+00  0.0000000000000D+00
438  4.3700000000000D+00  0.0000000000000D+00  0.0000000000000D+00
439  4.3800000000000D+00  0.0000000000000D+00  0.0000000000000D+00
440  4.3900000000000D+00  0.0000000000000D+00  0.0000000000000D+00
441  4.4000000000000D+00  0.0000000000000D+00  0.0000000000000D+00
442  4.4100000000000D+00  0.0000000000000D+00  0.0000000000000D+00
443  4.4200000000000D+00  0.0000000000000D+00  0.0000000000000D+00
444  4.4300000000000D+00  0.0000000000000D+00  0.0000000000000D+00