Te    ONCVPSP  r_core=  2.32  2.40  2.52
52.0000      6.0000      140821    zatom,zion,pspd
8    11     2     4   601     0    pspcod,pspxc,lmax,lloc,mmax,r2well
6.00000000  0.50000000  0.00000000    rchrg fchrg qchrg
2     2     2     0     0    nproj
0                 extension_switch
0                         5.2586082456375D+00  1.2445746251021D+00
1  0.0000000000000D+00 -0.0000000000000D+00 -0.0000000000000D+00
2  1.0000000000000D-02 -1.9040726162809D-02 -1.3542057470173D-02
3  2.0000000000000D-02 -3.8097679558336D-02 -2.7016928804711D-02
4  3.0000000000000D-02 -5.7186982296664D-02 -4.0357718721970D-02
5  4.0000000000000D-02 -7.6324546635387D-02 -5.3498112551003D-02
6  5.0000000000000D-02 -9.5525971033974D-02 -6.6372663797582D-02
7  6.0000000000000D-02 -1.1480643738111D-01 -7.8917078433852D-02
8  7.0000000000000D-02 -1.3418060977971D-01 -9.1068494837786D-02
9  8.0000000000000D-02 -1.5366253526896D-01 -1.0276575832377D-01
10  9.0000000000000D-02 -1.7326554685658D-01 -1.1394968922406D-01
11  1.0000000000000D-01 -1.9300216922489D-01 -1.2456334350762D-01
12  1.1000000000000D-01 -2.1288402746828D-01 -1.3455226494148D-01
13  1.2000000000000D-01 -2.3292175920525D-01 -1.4386472784002D-01
14  1.3000000000000D-01 -2.5312493040159D-01 -1.5245196946805D-01
15  1.4000000000000D-01 -2.7350195521958D-01 -1.6026841122454D-01
16  1.5000000000000D-01 -2.9406002021059D-01 -1.6727186772891D-01
17  1.6000000000000D-01 -3.1480501312872D-01 -1.7342374304347D-01
18  1.7000000000000D-01 -3.3574145666470D-01 -1.7868921320766D-01
19  1.8000000000000D-01 -3.5687244733439D-01 -1.8303739444140D-01
20  1.9000000000000D-01 -3.7819959974930D-01 -1.8644149639556D-01
21  2.0000000000000D-01 -3.9972299659252D-01 -1.8887895956603D-01
22  2.1000000000000D-01 -4.2144114432211D-01 -1.9033157681968D-01
23  2.2000000000000D-01 -4.4335093499497D-01 -1.9078559796249D-01
24  2.3000000000000D-01 -4.6544761418351D-01 -1.9023181743956D-01
25  2.4000000000000D-01 -4.8772475529162D-01 -1.8866564434106D-01
26  2.5000000000000D-01 -5.1017424023553D-01 -1.8608715482749D-01
27  2.6000000000000D-01 -5.3278624671005D-01 -1.8250112638970D-01
28  2.7000000000000D-01 -5.5554924202776D-01 -1.7791705400247D-01
29  2.8000000000000D-01 -5.7844998369985D-01 -1.7234914773639D-01
30  2.9000000000000D-01 -6.0147352660684D-01 -1.6581631227223D-01
31  3.0000000000000D-01 -6.2460323691486D-01 -1.5834210792414D-01
32  3.1000000000000D-01 -6.4782081267862D-01 -1.4995469336820D-01
33  3.2000000000000D-01 -6.7110631107501D-01 -1.4068675026868D-01
34  3.3000000000000D-01 -6.9443818210131D-01 -1.3057539029768D-01
35  3.4000000000000D-01 -7.1779330913170D-01 -1.1966204349612D-01
36  3.5000000000000D-01 -7.4114705494446D-01 -1.0799233187024D-01
37  3.6000000000000D-01 -7.6447331559737D-01 -9.5615921675374D-02
38  3.7000000000000D-01 -7.8774457837508D-01 -8.2586364879798D-02
39  3.8000000000000D-01 -8.1093198697928D-01 -6.8960921087435D-02
40  3.9000000000000D-01 -8.3400541274617D-01 -5.4800363350376D-02
41  4.0000000000000D-01 -8.5693352986527D-01 -4.0168773464005D-02
42  4.1000000000000D-01 -8.7968389696422D-01 -2.5133320312596D-02
43  4.2000000000000D-01 -9.0222304343259D-01 -9.7640257876905D-03
44  4.3000000000000D-01 -9.2451656045742D-01  5.8664815919501D-03
45  4.4000000000000D-01 -9.4652919649000D-01  2.1683224533773D-02
46  4.5000000000000D-01 -9.6822495684750D-01  3.7609145428283D-02
47  4.6000000000000D-01 -9.8956720712107D-01  5.3565384452708D-02
48  4.7000000000000D-01 -1.0105187800072D+00  6.9471566216692D-02
49  4.8000000000000D-01 -1.0310420838483D+00  8.5246090262712D-02
50  4.9000000000000D-01 -1.0510992157398D+00  1.0080643308442D-01
51  5.0000000000000D-01 -1.0706520818931D+00  1.1606946872335D-01
52  5.1000000000000D-01 -1.0896625082518D+00  1.3095176217708D-01
53  5.2000000000000D-01 -1.1080923515297D+00  1.4536986316005D-01
54  5.3000000000000D-01 -1.1259036455578D+00  1.5924069318829D-01
55  5.4000000000000D-01 -1.1430586908990D+00  1.7248177969282D-01
56  5.5000000000000D-01 -1.1595201936094D+00  1.8501162052376D-01
57  5.6000000000000D-01 -1.1752513867637D+00  1.9675000079075D-01
58  5.7000000000000D-01 -1.1902161354916D+00  2.0761826495120D-01
59  5.8000000000000D-01 -1.2043790811573D+00  2.1753969097208D-01
60  5.9000000000000D-01 -1.2177057349392D+00  2.2643972934455D-01
61  6.0000000000000D-01 -1.2301626087123D+00  2.3424633896981D-01
62  6.1000000000000D-01 -1.2417173404276D+00  2.4089030665664D-01
63  6.2000000000000D-01 -1.2523387549670D+00  2.4630539636766D-01
64  6.3000000000000D-01 -1.2619970614801D+00  2.5042885285632D-01
65  6.4000000000000D-01 -1.2706638822271D+00  2.5320146401109D-01
66  6.5000000000000D-01 -1.2783123627186D+00  2.5456783420403D-01
67  6.6000000000000D-01 -1.2849173356422D+00  2.5447679286081D-01
68  6.7000000000000D-01 -1.2904553464976D+00  2.5288144460159D-01
69  6.8000000000000D-01 -1.2949047526526D+00  2.4973940749474D-01
70  6.9000000000000D-01 -1.2982458330641D+00  2.4501307514393D-01
71  7.0000000000000D-01 -1.3004608723836D+00  2.3866981037693D-01
72  7.1000000000000D-01 -1.3015342053972D+00  2.3068203700024D-01
73  7.2000000000000D-01 -1.3014522978221D+00  2.2102742118772D-01
74  7.3000000000000D-01 -1.3002038014845D+00  2.0968898615588D-01
75  7.4000000000000D-01 -1.2977796232647D+00  1.9665525794577D-01
76  7.5000000000000D-01 -1.2941729852288D+00  1.8192038540907D-01
77  7.6000000000000D-01 -1.2893794393653D+00  1.6548414725062D-01
78  7.7000000000000D-01 -1.2833969150476D+00  1.4735203632536D-01
79  7.8000000000000D-01 -1.2762257480421D+00  1.2753529582016D-01
80  7.9000000000000D-01 -1.2678687023454D+00  1.0605093514939D-01
81  8.0000000000000D-01 -1.2583309847717D+00  8.2921725447285D-02
82  8.1000000000000D-01 -1.2476202522300D+00  5.8176174613018D-02
83  8.2000000000000D-01 -1.2357466116619D+00  3.1848481933850D-02
84  8.3000000000000D-01 -1.2227226126248D+00  3.9784723794836D-03
85  8.4000000000000D-01 -1.2085632325348D+00 -2.5388489274077D-02
86  8.5000000000000D-01 -1.1932858546005D+00 -5.6201604269405D-02
87  8.6000000000000D-01 -1.1769102385003D+00 -8.8404765356557D-02
88  8.7000000000000D-01 -1.1594584838778D+00 -1.2193670159852D-01
89  8.8000000000000D-01 -1.1409549867514D+00 -1.5673114208108D-01
90  8.9000000000000D-01 -1.1214263889543D+00 -1.9271699804792D-01
91  9.0000000000000D-01 -1.1009015207478D+00 -2.2981856290946D-01
92  9.1000000000000D-01 -1.0794113367760D+00 -2.6795572949620D-01
93  9.2000000000000D-01 -1.0569888455571D+00 -3.0704422384186D-01
94  9.3000000000000D-01 -1.0336690327428D+00 -3.4699585468658D-01
95  9.4000000000000D-01 -1.0094887784094D+00 -3.8771877778708D-01
96  9.5000000000000D-01 -9.8448676868854D-01 -4.2911777400611D-01
97  9.6000000000000D-01 -9.5870340208701D-01 -4.7109454003078D-01
98  9.7000000000000D-01 -9.3218070272839D-01 -5.1354793504290D-01
99  9.8000000000000D-01 -9.0496219302660D-01 -5.5637442269598D-01
100  9.9000000000000D-01 -8.7709279511587D-01 -5.9946831980682D-01
101  1.0000000000000D+00 -8.4861872040011D-01 -6.4272212955736D-01
102  1.0100000000000D+00 -8.1958735207057D-01 -6.8602688970595D-01
103  1.0200000000000D+00 -7.9004712640068D-01 -7.2927251683622D-01
104  1.0300000000000D+00 -7.6004743963508D-01 -7.7234805811094D-01
105  1.0400000000000D+00 -7.2963849076872D-01 -8.1514216917787D-01
106  1.0500000000000D+00 -6.9887109356453D-01 -8.5754366496180D-01
107  1.0600000000000D+00 -6.6779663860474D-01 -8.9944156576182D-01
108  1.0700000000000D+00 -6.3646693534785D-01 -9.4072555683727D-01
109  1.0800000000000D+00 -6.0493415137177D-01 -9.8128612807219D-01
110  1.0900000000000D+00 -5.7325056999933D-01 -1.0210152901140D+00
111  1.1000000000000D+00 -5.4146838046705D-01 -1.0598071496033D+00
112  1.1100000000000D+00 -5.0963972751486D-01 -1.0975576912671D+00
113  1.1200000000000D+00 -4.7781657596420D-01 -1.1341651485149D+00
114  1.1300000000000D+00 -4.4605061995632D-01 -1.1695302382938D+00
115  1.1400000000000D+00 -4.1439270917243D-01 -1.2035577928563D+00
116  1.1500000000000D+00 -3.8289322542388D-01 -1.2361555738290D+00
117  1.1600000000000D+00 -3.5160195942816D-01 -1.2672346052839D+00
118  1.1700000000000D+00 -3.2056777161027D-01 -1.2967101114562D+00
119  1.1800000000000D+00 -2.8983821324708D-01 -1.3245025045796D+00
120  1.1900000000000D+00 -2.5945993203694D-01 -1.3505361727568D+00
121  1.2000000000000D+00 -2.2947879024881D-01 -1.3747391460978D+00
122  1.2100000000000D+00 -1.9993854078453D-01 -1.3970466780863D+00
123  1.2200000000000D+00 -1.7088177945637D-01 -1.4173985245455D+00
124  1.2300000000000D+00 -1.4235001837846D-01 -1.4357387470578D+00
125  1.2400000000000D+00 -1.1438264479069D-01 -1.4520184440096D+00
126  1.2500000000000D+00 -8.7017219711914D-02 -1.4661948211710D+00
127  1.2600000000000D+00 -6.0290131246825D-02 -1.4782294651694D+00
128  1.2700000000000D+00 -3.4235486016286D-02 -1.4880911725098D+00
129  1.2800000000000D+00 -8.8851454552584D-03 -1.4957556881242D+00
130  1.2900000000000D+00  1.5730213435560D-02 -1.5012030204758D+00
131  1.3000000000000D+00  3.9582582889413D-02 -1.5044210858785D+00
132  1.3100000000000D+00  6.2646265104846D-02 -1.5054046213740D+00
133  1.3200000000000D+00  8.4896701580439D-02 -1.5041524011393D+00
134  1.3300000000000D+00  1.0631266067214D-01 -1.5006723077977D+00
135  1.3400000000000D+00  1.2687481030414D-01 -1.4949777793265D+00
136  1.3500000000000D+00  1.4656510907855D-01 -1.4870865540224D+00
137  1.3600000000000D+00  1.6536942925429D-01 -1.4770262472256D+00
138  1.3700000000000D+00  1.8327463646164D-01 -1.4648278489205D+00
139  1.3800000000000D+00  2.0027014291915D-01 -1.4505291102727D+00
140  1.3900000000000D+00  2.1634830035693D-01 -1.4341749432666D+00
141  1.4000000000000D+00  2.3150231767977D-01 -1.4158134103267D+00
142  1.4100000000000D+00  2.4572920389025D-01 -1.3955011076461D+00
143  1.4200000000000D+00  2.5902716310283D-01 -1.3732980947375D+00
144  1.4300000000000D+00  2.7139667411395D-01 -1.3492699816584D+00
145  1.4400000000000D+00  2.8284106536486D-01 -1.3234882364422D+00
146  1.4500000000000D+00  2.9336436433748D-01 -1.2960272217147D+00
147  1.4600000000000D+00  3.0297431220597D-01 -1.2669678593531D+00
148  1.4700000000000D+00  3.1167928753198D-01 -1.2363935724272D+00
149  1.4800000000000D+00  3.1949032510115D-01 -1.2043925901255D+00
150  1.4900000000000D+00  3.2642012512922D-01 -1.1710562209181D+00
151  1.5000000000000D+00  3.3248289206784D-01 -1.1364793213440D+00
152  1.5100000000000D+00  3.3769518394250D-01 -1.1007592393741D+00
153  1.5200000000000D+00  3.4207427032293D-01 -1.0639967224589D+00
154  1.5300000000000D+00  3.4563996745108D-01 -1.0262934854933D+00
155  1.5400000000000D+00  3.4841268914998D-01 -9.8775460150816D-01
156  1.5500000000000D+00  3.5041481739463D-01 -9.4848518514188D-01
157  1.5600000000000D+00  3.5166959905625D-01 -9.0859273390301D-01
158  1.5700000000000D+00  3.5220170733232D-01 -8.6818476212152D-01
159  1.5800000000000D+00  3.5203671252013D-01 -8.2736932618003D-01
160  1.5900000000000D+00  3.5120131565513D-01 -7.8625522060847D-01
161  1.6000000000000D+00  3.4972288404452D-01 -7.4494928811309D-01
162  1.6100000000000D+00  3.4762985466770D-01 -7.0356038250130D-01
163  1.6200000000000D+00  3.4495087880648D-01 -6.6219248920608D-01
164  1.6300000000000D+00  3.4171580382602D-01 -6.2095320554313D-01
165  1.6400000000000D+00  3.3795407993238D-01 -5.7994217539161D-01
166  1.6500000000000D+00  3.3369660597561D-01 -5.3926434665856D-01
167  1.6600000000000D+00  3.2897318435049D-01 -4.9901371883173D-01
168  1.6700000000000D+00  3.2381537632630D-01 -4.5929114155111D-01
169  1.6800000000000D+00  3.1825293631695D-01 -4.2018386819825D-01
170  1.6900000000000D+00  3.1231767276022D-01 -3.8178716509931D-01
171  1.7000000000000D+00  3.0603894612359D-01 -3.4418065886903D-01
172  1.7100000000000D+00  2.9944837420005D-01 -3.0745252814106D-01
173  1.7200000000000D+00  2.9257463923105D-01 -2.7167413229691D-01
174  1.7300000000000D+00  2.8544871120646D-01 -2.3692505498450D-01
175  1.7400000000000D+00  2.7809837818062D-01 -2.0326800156427D-01
176  1.7500000000000D+00  2.7055348976830D-01 -1.7077247256316D-01
177  1.7600000000000D+00  2.6284079617637D-01 -1.3949238598772D-01
178  1.7700000000000D+00  2.5498854543637D-01 -1.0948572668493D-01
179  1.7800000000000D+00  2.4702237723463D-01 -8.0797721708464D-02
180  1.7900000000000D+00  2.3896846056545D-01 -5.3473523415133D-02
181  1.8000000000000D+00  2.3085131330670D-01 -2.7549937588171D-02
182  1.8100000000000D+00  2.2269457250540D-01 -3.0581743901282D-03
183  1.8200000000000D+00  2.1452166381711D-01  1.9973033506150D-02
184  1.8300000000000D+00  2.0635329515488D-01  4.1527196104093D-02
185  1.8400000000000D+00  1.9821183764421D-01  6.1583358747253D-02
186  1.8500000000000D+00  1.9011477040756D-01  8.0140046971672D-02
187  1.8600000000000D+00  1.8208341172750D-01  9.7183997731656D-02
188  1.8700000000000D+00  1.7413233750385D-01  1.1272685407275D-01
189  1.8800000000000D+00  1.6628029425418D-01  1.2676797985019D-01
190  1.8900000000000D+00  1.5854054265656D-01  1.3932623653875D-01
191  1.9000000000000D+00  1.5092823382297D-01  1.5041628802417D-01
192  1.9100000000000D+00  1.4345584843559D-01  1.6006243119991D-01
193  1.9200000000000D+00  1.3613466921520D-01  1.6829439558198D-01
194  1.9300000000000D+00  1.2897652968015D-01  1.7514167957979D-01
195  1.9400000000000D+00  1.2198891778406D-01  1.8064750300022D-01
196  1.9500000000000D+00  1.1518292396227D-01  1.8484715829218D-01
197  1.9600000000000D+00  1.0856331159734D-01  1.8779327197607D-01
198  1.9700000000000D+00  1.0213807702121D-01  1.8953244752894D-01
199  1.9800000000000D+00  9.5911774467147D-02  1.9012007305139D-01
200  1.9900000000000D+00  8.9888664406986D-02  1.8961398008585D-01
201  2.0000000000000D+00  8.4073129770344D-02  1.8807295518630D-01
202  2.0100000000000D+00  7.8466274682257D-02  1.8556252038249D-01
203  2.0200000000000D+00  7.3071668201928D-02  1.8214676533895D-01
204  2.0300000000000D+00  6.7888795773743D-02  1.7789474919465D-01
205  2.0400000000000D+00  6.2918632497062D-02  1.7287659314202D-01
206  2.0500000000000D+00  5.8160848377365D-02  1.6716343916436D-01
207  2.0600000000000D+00  5.3613849714871D-02  1.6082775701035D-01
208  2.0700000000000D+00  4.9277119543712D-02  1.5394524146953D-01
209  2.0800000000000D+00  4.5147692376937D-02  1.4658724424493D-01
210  2.0900000000000D+00  4.1223577841898D-02  1.3883109976700D-01
211  2.1000000000000D+00  3.7501896981297D-02  1.3074979818942D-01
212  2.1100000000000D+00  3.3979310985230D-02  1.2241574347245D-01
213  2.1200000000000D+00  3.0652684018741D-02  1.1390776231121D-01
214  2.1300000000000D+00  2.7518280269045D-02  1.0529093773828D-01
215  2.1400000000000D+00  2.4572299093667D-02  9.6641407289308D-02
216  2.1500000000000D+00  2.1811017077198D-02  8.8026521656126D-02
217  2.1600000000000D+00  1.9230702360701D-02  7.9508924817390D-02
218  2.1700000000000D+00  1.6826987000812D-02  7.1164680130104D-02
219  2.1800000000000D+00  1.4596746440827D-02  6.3043966809591D-02
220  2.1900000000000D+00  1.2535951080594D-02  5.5211733179890D-02
221  2.2000000000000D+00  1.0640977532342D-02  4.7726393923960D-02
222  2.2100000000000D+00  8.9091356116227D-03  4.0632218304702D-02
223  2.2200000000000D+00  7.3363586449286D-03  3.3991049075212D-02
224  2.2300000000000D+00  5.9206089025196D-03  2.7839096350442D-02
225  2.2400000000000D+00  4.6594445280688D-03  2.2216972207001D-02
226  2.2500000000000D+00  3.5496116499545D-03  1.7174476050992D-02
227  2.2600000000000D+00  2.5905438244245D-03  1.2730000175104D-02
228  2.2700000000000D+00  1.7800033055870D-03  8.9207214194951D-03
229  2.2800000000000D+00  1.1166857294216D-03  5.7728649573780D-03
230  2.2900000000000D+00  6.0072032699497D-04  3.2960329065362D-03
231  2.3000000000000D+00  2.5031271248606D-04  1.6301442249791D-03
232  2.3100000000000D+00  3.7293049645964D-05  6.1551820175951D-04
233  2.3200000000000D+00 -6.8788644807105D-05  7.8172947659270D-05
234  2.3300000000000D+00 -8.2642981043325D-05 -1.2719297329347D-04
235  2.3400000000000D+00 -4.5027237988546D-05 -1.0358816478575D-04
236  2.3500000000000D+00  1.5291738933070D-06 -1.5893718537755D-06
237  2.3600000000000D+00  4.6705521183954D-06 -4.8544146032444D-06
238  2.3700000000000D+00  2.5516096419280D-06 -2.6520571430449D-06
239  2.3800000000000D+00  0.0000000000000D+00  0.0000000000000D+00
240  2.3900000000000D+00  0.0000000000000D+00  0.0000000000000D+00
241  2.4000000000000D+00  0.0000000000000D+00  0.0000000000000D+00
242  2.4100000000000D+00  0.0000000000000D+00  0.0000000000000D+00
243  2.4200000000000D+00  0.0000000000000D+00  0.0000000000000D+00
244  2.4300000000000D+00  0.0000000000000D+00  0.0000000000000D+00
245  2.4400000000000D+00  0.0000000000000D+00  0.0000000000000D+00
246  2.4500000000000D+00  0.0000000000000D+00  0.0000000000000D+00
247  2.4600000000000D+00  0.0000000000000D+00  0.0000000000000D+00
248  2.4700000000000D+00  0.0000000000000D+00  0.0000000000000D+00
249  2.4800000000000D+00  0.0000000000000D+00  0.0000000000000D+00
250  2.4900000000000D+00  0.0000000000000D+00  0.0000000000000D+00
251  2.5000000000000D+00  0.0000000000000D+00  0.0000000000000D+00
252  2.5100000000000D+00  0.0000000000000D+00  0.0000000000000D+00
253  2.5200000000000D+00  0.0000000000000D+00  0.0000000000000D+00
254  2.5300000000000D+00  0.0000000000000D+00  0.0000000000000D+00
255  2.5400000000000D+00  0.0000000000000D+00  0.0000000000000D+00
256  2.5500000000000D+00  0.0000000000000D+00  0.0000000000000D+00
257  2.5600000000000D+00  0.0000000000000D+00  0.0000000000000D+00
258  2.5700000000000D+00  0.0000000000000D+00  0.0000000000000D+00
259  2.5800000000000D+00  0.0000000000000D+00  0.0000000000000D+00
260  2.5900000000000D+00  0.0000000000000D+00  0.0000000000000D+00
261  2.6000000000000D+00  0.0000000000000D+00  0.0000000000000D+00
262  2.6100000000000D+00  0.0000000000000D+00  0.0000000000000D+00
263  2.6200000000000D+00  0.0000000000000D+00  0.0000000000000D+00
264  2.6300000000000D+00  0.0000000000000D+00  0.0000000000000D+00
265  2.6400000000000D+00  0.0000000000000D+00  0.0000000000000D+00
266  2.6500000000000D+00  0.0000000000000D+00  0.0000000000000D+00
267  2.6600000000000D+00  0.0000000000000D+00  0.0000000000000D+00
268  2.6700000000000D+00  0.0000000000000D+00  0.0000000000000D+00
269  2.6800000000000D+00  0.0000000000000D+00  0.0000000000000D+00
270  2.6900000000000D+00  0.0000000000000D+00  0.0000000000000D+00
271  2.7000000000000D+00  0.0000000000000D+00  0.0000000000000D+00
272  2.7100000000000D+00  0.0000000000000D+00  0.0000000000000D+00
273  2.7200000000000D+00  0.0000000000000D+00  0.0000000000000D+00
274  2.7300000000000D+00  0.0000000000000D+00  0.0000000000000D+00
275  2.7400000000000D+00  0.0000000000000D+00  0.0000000000000D+00
276  2.7500000000000D+00  0.0000000000000D+00  0.0000000000000D+00
277  2.7600000000000D+00  0.0000000000000D+00  0.0000000000000D+00
278  2.7700000000000D+00  0.0000000000000D+00  0.0000000000000D+00
279  2.7800000000000D+00  0.0000000000000D+00  0.0000000000000D+00
280  2.7900000000000D+00  0.0000000000000D+00  0.0000000000000D+00
281  2.8000000000000D+00  0.0000000000000D+00  0.0000000000000D+00
282  2.8100000000000D+00  0.0000000000000D+00  0.0000000000000D+00
283  2.8200000000000D+00  0.0000000000000D+00  0.0000000000000D+00
284  2.8300000000000D+00  0.0000000000000D+00  0.0000000000000D+00
285  2.8400000000000D+00  0.0000000000000D+00  0.0000000000000D+00
286  2.8500000000000D+00  0.0000000000000D+00  0.0000000000000D+00
287  2.8600000000000D+00  0.0000000000000D+00  0.0000000000000D+00
288  2.8700000000000D+00  0.0000000000000D+00  0.0000000000000D+00
289  2.8800000000000D+00  0.0000000000000D+00  0.0000000000000D+00
290  2.8900000000000D+00  0.0000000000000D+00  0.0000000000000D+00
291  2.9000000000000D+00  0.0000000000000D+00  0.0000000000000D+00
292  2.9100000000000D+00  0.0000000000000D+00  0.0000000000000D+00
293  2.9200000000000D+00  0.0000000000000D+00  0.0000000000000D+00
294  2.9300000000000D+00  0.0000000000000D+00  0.0000000000000D+00
295  2.9400000000000D+00  0.0000000000000D+00  0.0000000000000D+00
296  2.9500000000000D+00  0.0000000000000D+00  0.0000000000000D+00
297  2.9600000000000D+00  0.0000000000000D+00  0.0000000000000D+00
298  2.9700000000000D+00  0.0000000000000D+00  0.0000000000000D+00
299  2.9800000000000D+00  0.0000000000000D+00  0.0000000000000D+00
300  2.9900000000000D+00  0.0000000000000D+00  0.0000000000000D+00
301  3.0000000000000D+00  0.0000000000000D+00  0.0000000000000D+00
302  3.0100000000000D+00  0.0000000000000D+00  0.0000000000000D+00
303  3.0200000000000D+00  0.0000000000000D+00  0.0000000000000D+00
304  3.0300000000000D+00  0.0000000000000D+00  0.0000000000000D+00
305  3.0400000000000D+00  0.0000000000000D+00  0.0000000000000D+00
306  3.0500000000000D+00  0.0000000000000D+00  0.0000000000000D+00
307  3.0600000000000D+00  0.0000000000000D+00  0.0000000000000D+00
308  3.0700000000000D+00  0.0000000000000D+00  0.0000000000000D+00
309  3.0800000000000D+00  0.0000000000000D+00  0.0000000000000D+00
310  3.0900000000000D+00  0.0000000000000D+00  0.0000000000000D+00
311  3.1000000000000D+00  0.0000000000000D+00  0.0000000000000D+00
312  3.1100000000000D+00  0.0000000000000D+00  0.0000000000000D+00
313  3.1200000000000D+00  0.0000000000000D+00  0.0000000000000D+00
314  3.1300000000000D+00  0.0000000000000D+00  0.0000000000000D+00
315  3.1400000000000D+00  0.0000000000000D+00  0.0000000000000D+00
316  3.1500000000000D+00  0.0000000000000D+00  0.0000000000000D+00
317  3.1600000000000D+00  0.0000000000000D+00  0.0000000000000D+00
318  3.1700000000000D+00  0.0000000000000D+00  0.0000000000000D+00
319  3.1800000000000D+00  0.0000000000000D+00  0.0000000000000D+00
320  3.1900000000000D+00  0.0000000000000D+00  0.0000000000000D+00
321  3.2000000000000D+00  0.0000000000000D+00  0.0000000000000D+00
322  3.2100000000000D+00  0.0000000000000D+00  0.0000000000000D+00
323  3.2200000000000D+00  0.0000000000000D+00  0.0000000000000D+00
324  3.2300000000000D+00  0.0000000000000D+00  0.0000000000000D+00
325  3.2400000000000D+00  0.0000000000000D+00  0.0000000000000D+00
326  3.2500000000000D+00  0.0000000000000D+00  0.0000000000000D+00
327  3.2600000000000D+00  0.0000000000000D+00  0.0000000000000D+00
328  3.2700000000000D+00  0.0000000000000D+00  0.0000000000000D+00
329  3.2800000000000D+00  0.0000000000000D+00  0.0000000000000D+00
330  3.2900000000000D+00  0.0000000000000D+00  0.0000000000000D+00
331  3.3000000000000D+00  0.0000000000000D+00  0.0000000000000D+00
332  3.3100000000000D+00  0.0000000000000D+00  0.0000000000000D+00
333  3.3200000000000D+00  0.0000000000000D+00  0.0000000000000D+00
334  3.3300000000000D+00  0.0000000000000D+00  0.0000000000000D+00
335  3.3400000000000D+00  0.0000000000000D+00  0.0000000000000D+00
336  3.3500000000000D+00  0.0000000000000D+00  0.0000000000000D+00
337  3.3600000000000D+00  0.0000000000000D+00  0.0000000000000D+00
338  3.3700000000000D+00  0.0000000000000D+00  0.0000000000000D+00
339  3.3800000000000D+00  0.0000000000000D+00  0.0000000000000D+00
340  3.3900000000000D+00  0.0000000000000D+00  0.0000000000000D+00
341  3.4000000000000D+00  0.0000000000000D+00  0.0000000000000D+00
342  3.4100000000000D+00  0.0000000000000D+00  0.0000000000000D+00
343  3.4200000000000D+00  0.0000000000000D+00  0.0000000000000D+00
344  3.4300000000000D+00  0.0000000000000D+00  0.0000000000000D+00
345  3.4400000000000D+00  0.0000000000000D+00  0.0000000000000D+00
346  3.4500000000000D+00  0.0000000000000D+00  0.0000000000000D+00
347  3.4600000000000D+00  0.0000000000000D+00  0.0000000000000D+00
348  3.4700000000000D+00  0.0000000000000D+00  0.0000000000000D+00
349  3.4800000000000D+00  0.0000000000000D+00  0.0000000000000D+00
350  3.4900000000000D+00  0.0000000000000D+00  0.0000000000000D+00
351  3.5000000000000D+00  0.0000000000000D+00  0.0000000000000D+00
352  3.5100000000000D+00  0.0000000000000D+00  0.0000000000000D+00
353  3.5200000000000D+00  0.0000000000000D+00  0.0000000000000D+00
354  3.5300000000000D+00  0.0000000000000D+00  0.0000000000000D+00
355  3.5400000000000D+00  0.0000000000000D+00  0.0000000000000D+00
356  3.5500000000000D+00  0.0000000000000D+00  0.0000000000000D+00
357  3.5600000000000D+00  0.0000000000000D+00  0.0000000000000D+00
358  3.5700000000000D+00  0.0000000000000D+00  0.0000000000000D+00
359  3.5800000000000D+00  0.0000000000000D+00  0.0000000000000D+00
360  3.5900000000000D+00  0.0000000000000D+00  0.0000000000000D+00
361  3.6000000000000D+00  0.0000000000000D+00  0.0000000000000D+00
362  3.6100000000000D+00  0.0000000000000D+00  0.0000000000000D+00
363  3.6200000000000D+00  0.0000000000000D+00  0.0000000000000D+00
364  3.6300000000000D+00  0.0000000000000D+00  0.0000000000000D+00
365  3.6400000000000D+00  0.0000000000000D+00  0.0000000000000D+00
366  3.6500000000000D+00  0.0000000000000D+00  0.0000000000000D+00
367  3.6600000000000D+00  0.0000000000000D+00  0.0000000000000D+00
368  3.6700000000000D+00  0.0000000000000D+00  0.0000000000000D+00
369  3.6800000000000D+00  0.0000000000000D+00  0.0000000000000D+00
370  3.6900000000000D+00  0.0000000000000D+00  0.0000000000000D+00
371  3.7000000000000D+00  0.0000000000000D+00  0.0000000000000D+00
372  3.7100000000000D+00  0.0000000000000D+00  0.0000000000000D+00
373  3.7200000000000D+00  0.0000000000000D+00  0.0000000000000D+00
374  3.7300000000000D+00  0.0000000000000D+00  0.0000000000000D+00
375  3.7400000000000D+00  0.0000000000000D+00  0.0000000000000D+00
376  3.7500000000000D+00  0.0000000000000D+00  0.0000000000000D+00
377  3.7600000000000D+00  0.0000000000000D+00  0.0000000000000D+00
378  3.7700000000000D+00  0.0000000000000D+00  0.0000000000000D+00
379  3.7800000000000D+00  0.0000000000000D+00  0.0000000000000D+00
380  3.7900000000000D+00  0.0000000000000D+00  0.0000000000000D+00
381  3.8000000000000D+00  0.0000000000000D+00  0.0000000000000D+00
382  3.8100000000000D+00  0.0000000000000D+00  0.0000000000000D+00
383  3.8200000000000D+00  0.0000000000000D+00  0.0000000000000D+00
384  3.8300000000000D+00  0.0000000000000D+00  0.0000000000000D+00
385  3.8400000000000D+00  0.0000000000000D+00  0.0000000000000D+00
386  3.8500000000000D+00  0.0000000000000D+00  0.0000000000000D+00
387  3.8600000000000D+00  0.0000000000000D+00  0.0000000000000D+00
388  3.8700000000000D+00  0.0000000000000D+00  0.0000000000000D+00
389  3.8800000000000D+00  0.0000000000000D+00  0.0000000000000D+00
390  3.8900000000000D+00  0.0000000000000D+00  0.0000000000000D+00
391  3.9000000000000D+00  0.0000000000000D+00  0.0000000000000D+00
392  3.9100000000000D+00  0.0000000000000D+00  0.0000000000000D+00
393  3.9200000000000D+00  0.0000000000000D+00  0.0000000000000D+00
394  3.9300000000000D+00  0.0000000000000D+00  0.0000000000000D+00
395  3.9400000000000D+00  0.0000000000000D+00  0.0000000000000D+00
396  3.9500000000000D+00  0.0000000000000D+00  0.0000000000000D+00
397  3.9600000000000D+00  0.0000000000000D+00  0.0000000000000D+00
398  3.9700000000000D+00  0.0000000000000D+00  0.0000000000000D+00
399  3.9800000000000D+00  0.0000000000000D+00  0.0000000000000D+00
400  3.9900000000000D+00  0.0000000000000D+00  0.0000000000000D+00
401  4.0000000000000D+00  0.0000000000000D+00  0.0000000000000D+00
402  4.0100000000000D+00  0.0000000000000D+00  0.0000000000000D+00
403  4.0200000000000D+00  0.0000000000000D+00  0.0000000000000D+00
404  4.0300000000000D+00  0.0000000000000D+00  0.0000000000000D+00
405  4.0400000000000D+00  0.0000000000000D+00  0.0000000000000D+00
406  4.0500000000000D+00  0.0000000000000D+00  0.0000000000000D+00
407  4.0600000000000D+00  0.0000000000000D+00  0.0000000000000D+00
408  4.0700000000000D+00  0.0000000000000D+00  0.0000000000000D+00
409  4.0800000000000D+00  0.0000000000000D+00  0.0000000000000D+00
410  4.0900000000000D+00  0.0000000000000D+00  0.0000000000000D+00
411  4.1000000000000D+00  0.0000000000000D+00  0.0000000000000D+00
412  4.1100000000000D+00  0.0000000000000D+00  0.0000000000000D+00
413  4.1200000000000D+00  0.0000000000000D+00  0.0000000000000D+00
414  4.1300000000000D+00  0.0000000000000D+00  0.0000000000000D+00
415  4.1400000000000D+00  0.0000000000000D+00  0.0000000000000D+00
416  4.1500000000000D+00  0.0000000000000D+00  0.0000000000000D+00
417  4.1600000000000D+00  0.0000000000000D+00  0.0000000000000D+00
418  4.1700000000000D+00  0.0000000000000D+00  0.0000000000000D+00
419  4.1800000000000D+00  0.0000000000000D+00  0.0000000000000D+00
420  4.1900000000000D+00  0.0000000000000D+00  0.0000000000000D+00
421  4.2000000000000D+00  0.0000000000000D+00  0.0000000000000D+00
422  4.2100000000000D+00  0.0000000000000D+00  0.0000000000000D+00
423  4.2200000000000D+00  0.0000000000000D+00  0.0000000000000D+00
424  4.2300000000000D+00  0.0000000000000D+00  0.0000000000000D+00
425  4.2400000000000D+00  0.0000000000000D+00  0.0000000000000D+00
426  4.2500000000000D+00  0.0000000000000D+00  0.0000000000000D+00
427  4.2600000000000D+00  0.0000000000000D+00  0.0000000000000D+00
428  4.2700000000000D+00  0.0000000000000D+00  0.0000000000000D+00
429  4.2800000000000D+00  0.0000000000000D+00  0.0000000000000D+00
430  4.2900000000000D+00  0.0000000000000D+00  0.0000000000000D+00
431  4.3000000000000D+00  0.0000000000000D+00  0.0000000000000D+00
432  4.3100000000000D+00  0.0000000000000D+00  0.0000000000000D+00
433  4.3200000000000D+00  0.0000000000000D+00  0.0000000000000D+00
434  4.3300000000000D+00  0.0000000000000D+00  0.0000000000000D+00
435  4.3400000000000D+00  0.0000000000000D+00  0.0000000000000D+00
436  4.3500000000000D+00  0.0000000000000D+00  0.0000000000000D+00
437  4.3600000000000D+00  0.0000000000000D+00  0.0000000000000D+00
438  4.3700000000000D+00  0.0000000000000D+00  0.0000000000000D+00
439  4.3800000000000D+00  0.0000000000000D+00  0.0000000000000D+00
440  4.3900000000000D+00  0.0000000000000D+00  0.0000000000000D+00
441  4.4000000000000D+00  0.0000000000000D+00  0.0000000000000D+00
442  4.4100000000000D+00  0.0000000000000D+00  0.0000000000000D+00
443  4.4200000000000D+00  0.0000000000000D+00  0.0000000000000D+00
444  4.4300000000000D+00  0.0000000000000D+00  0.0000000000000D+00