Te    ONCVPSP  r_core=  2.27  2.21  2.52
52.0000      6.0000      140827    zatom,zion,pspd
8    11     2     4   601     0    pspcod,pspxc,lmax,lloc,mmax,r2well
6.00000000  0.50000000  0.00000000    rchrg fchrg qchrg
2     2     2     0     0    nproj
0                 extension_switch
0                         4.9229079141277D+00  6.1899525105700D-01
1  0.0000000000000D+00 -0.0000000000000D+00  0.0000000000000D+00
2  1.0000000000000D-02 -1.7776591222906D-02  1.4741244308792D-02
3  2.0000000000000D-02 -3.5567445217228D-02  2.9403407207895D-02
4  3.0000000000000D-02 -5.3386739504486D-02  4.3907739068136D-02
5  4.0000000000000D-02 -7.1248481410705D-02  5.8176152583784D-02
6  5.0000000000000D-02 -8.9166423728421D-02  7.2131550844688D-02
7  6.0000000000000D-02 -1.0715398128758D-01  8.5698151713110D-02
8  7.0000000000000D-02 -1.2522414873353D-01  9.8801807294106D-02
9  8.0000000000000D-02 -1.4338941980652D-01  1.1137031730535D-01
10  9.0000000000000D-02 -1.6166170841208D-01  1.2333373517307D-01
11  1.0000000000000D-01 -1.8005227176494D-01  1.3462466571109D-01
12  1.1000000000000D-01 -1.9857163588440D-01  1.4517855326040D-01
13  1.2000000000000D-01 -2.1722952370818D-01  1.5493395921302D-01
14  1.3000000000000D-01 -2.3603478608719D-01  1.6383282786583D-01
15  1.4000000000000D-01 -2.5499533590659D-01  1.7182073961997D-01
16  1.5000000000000D-01 -2.7411808558191D-01  1.7884715053458D-01
17  1.6000000000000D-01 -2.9340888814684D-01  1.8486561737085D-01
18  1.7000000000000D-01 -3.1287248216883D-01  1.8983400719540D-01
19  1.8000000000000D-01 -3.3251244067595D-01  1.9371469081861D-01
20  1.9000000000000D-01 -3.5233112427398D-01  1.9647471936745D-01
21  2.0000000000000D-01 -3.7232963871415D-01  1.9808598298964D-01
22  2.1000000000000D-01 -3.9250779692264D-01  1.9852535164132D-01
23  2.2000000000000D-01 -4.1286408581380D-01  1.9777479673826D-01
24  2.3000000000000D-01 -4.3339563785895D-01  1.9582149378383D-01
25  2.4000000000000D-01 -4.5409820766569D-01  1.9265790502957D-01
26  2.5000000000000D-01 -4.7496615353551D-01  1.8828184230753D-01
27  2.6000000000000D-01 -4.9599242418655D-01  1.8269650936533D-01
28  2.7000000000000D-01 -5.1716855063077D-01  1.7591052377753D-01
29  2.8000000000000D-01 -5.3848464335936D-01  1.6793791792541D-01
30  2.9000000000000D-01 -5.5992939470242D-01  1.5879811957106D-01
31  3.0000000000000D-01 -5.8149008650906D-01  1.4851591156242D-01
32  3.1000000000000D-01 -6.0315260310590D-01  1.3712137089565D-01
33  3.2000000000000D-01 -6.2490144950674D-01  1.2464978734229D-01
34  3.3000000000000D-01 -6.4671977475288D-01  1.1114156219847D-01
35  3.4000000000000D-01 -6.6858940061672D-01  9.6642086069499D-02
36  3.5000000000000D-01 -6.9049085486553D-01  8.1201599761739D-02
37  3.6000000000000D-01 -7.1240341046241D-01  6.4875031475427D-02
38  3.7000000000000D-01 -7.3430512838605D-01  4.7721821393465D-02
39  3.8000000000000D-01 -7.5617290601661D-01  2.9805724472783D-02
40  3.9000000000000D-01 -7.7798253039078D-01  1.1194595025551D-02
41  4.0000000000000D-01 -7.9970873483967D-01 -8.0398407214281D-03
42  4.1000000000000D-01 -8.2132526066328D-01 -2.7822231084650D-02
43  4.2000000000000D-01 -8.4280492270345D-01 -4.8073859452582D-02
44  4.3000000000000D-01 -8.6411967878061D-01 -6.8712918711588D-02
45  4.4000000000000D-01 -8.8524070278575D-01 -8.9654798639531D-02
46  4.5000000000000D-01 -9.0613846120705D-01 -1.1081238528825D-01
47  4.6000000000000D-01 -9.2678279284597D-01 -1.3209637127910D-01
48  4.7000000000000D-01 -9.4714299143573D-01 -1.5341557577109D-01
49  4.8000000000000D-01 -9.6718788985709D-01 -1.7467726887352D-01
50  4.9000000000000D-01 -9.8688594811675D-01 -1.9578750900469D-01
51  5.0000000000000D-01 -1.0062053472006D+00 -2.1665150108295D-01
52  5.1000000000000D-01 -1.0251140757818D+00 -2.3717392457585D-01
53  5.2000000000000D-01 -1.0435800174427D+00 -2.5725926198055D-01
54  5.3000000000000D-01 -1.0615710654584D+00 -2.7681223144310D-01
55  5.4000000000000D-01 -1.0790551941503D+00 -2.9573804897057D-01
56  5.5000000000000D-01 -1.0960005683993D+00 -3.1394283603371D-01
57  5.6000000000000D-01 -1.1123756402727D+00 -3.3133397416352D-01
58  5.7000000000000D-01 -1.1281492330023D+00 -3.4782040961420D-01
59  5.8000000000000D-01 -1.1432906558857D+00 -3.6331307206521D-01
60  5.9000000000000D-01 -1.1577697799168D+00 -3.7772514247665D-01
61  6.0000000000000D-01 -1.1715571429664D+00 -3.9097242919249D-01
62  6.1000000000000D-01 -1.1846240510543D+00 -4.0297372583036D-01
63  6.2000000000000D-01 -1.1969426289656D+00 -4.1365097895075D-01
64  6.3000000000000D-01 -1.2084859791869D+00 -4.2292985193844D-01
65  6.4000000000000D-01 -1.2192282078514D+00 -4.3073979567058D-01
66  6.5000000000000D-01 -1.2291445151933D+00 -4.3701435508358D-01
67  6.6000000000000D-01 -1.2382113296777D+00 -4.4169162722018D-01
68  6.7000000000000D-01 -1.2464063320537D+00 -4.4471431840859D-01
69  6.8000000000000D-01 -1.2537085382342D+00 -4.4603001194751D-01
70  6.9000000000000D-01 -1.2600983914331D+00 -4.4559146269718D-01
71  7.0000000000000D-01 -1.2655578342889D+00 -4.4335681532371D-01
72  7.1000000000000D-01 -1.2700703491759D+00 -4.3928970851425D-01
73  7.2000000000000D-01 -1.2736210283742D+00 -4.3335947978396D-01
74  7.3000000000000D-01 -1.2761966238644D+00 -4.2554129575394D-01
75  7.4000000000000D-01 -1.2777856089891D+00 -4.1581631761095D-01
76  7.5000000000000D-01 -1.2783782336624D+00 -4.0417183803902D-01
77  7.6000000000000D-01 -1.2779665424176D+00 -3.9060129162917D-01
78  7.7000000000000D-01 -1.2765444200452D+00 -3.7510435237011D-01
79  7.8000000000000D-01 -1.2741076225586D+00 -3.5768697753264D-01
80  7.9000000000000D-01 -1.2706538027737D+00 -3.3836142919954D-01
81  8.0000000000000D-01 -1.2661825304242D+00 -3.1714627333616D-01
82  8.1000000000000D-01 -1.2606953067506D+00 -2.9406635637833D-01
83  8.2000000000000D-01 -1.2541955735215D+00 -2.6915275939343D-01
84  8.3000000000000D-01 -1.2466887164614D+00 -2.4244272994594D-01
85  8.4000000000000D-01 -1.2381820630750D+00 -2.1397959187256D-01
86  8.5000000000000D-01 -1.2286848748761D+00 -1.8381263324287D-01
87  8.6000000000000D-01 -1.2182083340430D+00 -1.5199697285192D-01
88  8.7000000000000D-01 -1.2067655245385D+00 -1.1859340566109D-01
89  8.8000000000000D-01 -1.1943714077492D+00 -8.3668227675573D-02
90  8.9000000000000D-01 -1.1810427927136D+00 -4.7293040820637D-02
91  9.0000000000000D-01 -1.1667983010293D+00 -9.5445384587516D-03
92  9.1000000000000D-01 -1.1516583265446D+00  2.9495727725344D-02
93  9.2000000000000D-01 -1.1356449899657D+00  6.9741598650832D-02
94  9.3000000000000D-01 -1.1187820885315D+00  1.1110257565507D-01
95  9.4000000000000D-01 -1.1010950409380D+00  1.5348410416020D-01
96  9.5000000000000D-01 -1.0826108277207D+00  1.9678787203420D-01
97  9.6000000000000D-01 -1.0633579273422D+00  2.4091212135694D-01
98  9.7000000000000D-01 -1.0433662524402D+00  2.8575191496139D-01
99  9.8000000000000D-01 -1.0226670729837D+00  3.3119960379257D-01
100  9.9000000000000D-01 -1.0012929376761D+00  3.7714509784117D-01
101  1.0000000000000D+00 -9.7927759730309D-01  4.2347622167034D-01
102  1.0100000000000D+00 -9.5665592210147D-01  4.7007908588899D-01
103  1.0200000000000D+00 -9.3346381691786D-01  5.1683845436125D-01
104  1.0300000000000D+00 -9.0973815112804D-01  5.6363801372483D-01
105  1.0400000000000D+00 -8.8551665108007D-01  6.1036087991484D-01
106  1.0500000000000D+00 -8.6083776774362D-01  6.5689018209432D-01
107  1.0600000000000D+00 -8.3574063753491D-01  7.0310911424224D-01
108  1.0700000000000D+00 -8.1026497101800D-01  7.4890142081826D-01
109  1.0800000000000D+00 -7.8445100319968D-01  7.9415154509436D-01
110  1.0900000000000D+00 -7.5833932515843D-01  8.3874538442094D-01
111  1.1000000000000D+00 -7.3197073054370D-01  8.8257089595140D-01
112  1.1100000000000D+00 -7.0538623757005D-01  9.2551786573500D-01
113  1.1200000000000D+00 -6.7862699032229D-01  9.6747829757782D-01
114  1.1300000000000D+00 -6.5173419031608D-01  1.0083466589929D+00
115  1.1400000000000D+00 -6.2474868948772D-01  1.0480215935930D+00
116  1.1500000000000D+00 -5.9771123918766D-01  1.0864046691206D+00
117  1.1600000000000D+00 -5.7066240033873D-01  1.1234007251307D+00
118  1.1700000000000D+00 -5.4364229915010D-01  1.1589188539190D+00
119  1.1800000000000D+00 -5.1669034609006D-01  1.1928734271686D+00
120  1.1900000000000D+00 -4.8984551494662D-01  1.2251828189291D+00
121  1.2000000000000D+00 -4.6314642668238D-01  1.2557690560218D+00
122  1.2100000000000D+00 -4.3663038759430D-01  1.2845615509435D+00
123  1.2200000000000D+00 -4.1033406239583D-01  1.3114942472445D+00
124  1.2300000000000D+00 -3.8429352784372D-01  1.3365054148327D+00
125  1.2400000000000D+00 -3.5854350607484D-01  1.3595404847375D+00
126  1.2500000000000D+00 -3.3311756706501D-01  1.3805510639233D+00
127  1.2600000000000D+00 -3.0804860809466D-01  1.3994931414919D+00
128  1.2700000000000D+00 -2.8336802858702D-01  1.4163300138391D+00
129  1.2800000000000D+00 -2.5910573811745D-01  1.4310319902826D+00
130  1.2900000000000D+00 -2.3529094839151D-01  1.4435736201082D+00
131  1.3000000000000D+00 -2.1195105214493D-01  1.4539374404786D+00
132  1.3100000000000D+00 -1.8911187216470D-01  1.4621128299970D+00
133  1.3200000000000D+00 -1.6679855482433D-01  1.4680931581215D+00
134  1.3300000000000D+00 -1.4503388653976D-01  1.4718809611091D+00
135  1.3400000000000D+00 -1.2383936631973D-01  1.4734842835405D+00
136  1.3500000000000D+00 -1.0323569086064D-01  1.4729154167839D+00
137  1.3600000000000D+00 -8.3240682910576D-02  1.4701965296486D+00
138  1.3700000000000D+00 -6.3871566860288D-02  1.4653530658915D+00
139  1.3800000000000D+00 -4.5143750885038D-02  1.4584171739320D+00
140  1.3900000000000D+00 -2.7070470861417D-02  1.4494280630611D+00
141  1.4000000000000D+00 -9.6644787519242D-03  1.4384279982454D+00
142  1.4100000000000D+00  7.0643735166599D-03  1.4254676463065D+00
143  1.4200000000000D+00  2.3107027663845D-02  1.4106010087031D+00
144  1.4300000000000D+00  3.8456093400477D-02  1.3938875046638D+00
145  1.4400000000000D+00  5.3106399791449D-02  1.3753922099795D+00
146  1.4500000000000D+00  6.7053126153957D-02  1.3551830004304D+00
147  1.4600000000000D+00  8.0294474764610D-02  1.3333340338136D+00
148  1.4700000000000D+00  9.2828977882393D-02  1.3099218581992D+00
149  1.4800000000000D+00  1.0465730372653D-01  1.2850275856165D+00
150  1.4900000000000D+00  1.1578143541935D-01  1.2587352033052D+00
151  1.5000000000000D+00  1.2620445509825D-01  1.2311320803081D+00
152  1.5100000000000D+00  1.3593152671410D-01  1.2023077760281D+00
153  1.5200000000000D+00  1.4496812083573D-01  1.1723551642226D+00
154  1.5300000000000D+00  1.5332215638897D-01  1.1413677226909D+00
155  1.5400000000000D+00  1.6100174729804D-01  1.1094422141694D+00
156  1.5500000000000D+00  1.6801697005110D-01  1.0766751323739D+00
157  1.5600000000000D+00  1.7437847820068D-01  1.0431652329931D+00
158  1.5700000000000D+00  1.8009833930646D-01  1.0090110511411D+00
159  1.5800000000000D+00  1.8518943906184D-01  9.7431152226708D-01
160  1.5900000000000D+00  1.8966569549688D-01  9.3916613597961D-01
161  1.6000000000000D+00  1.9354189406067D-01  9.0367231519568D-01
162  1.6100000000000D+00  1.9683364640767D-01  8.6792933023053D-01
163  1.6200000000000D+00  1.9955730713294D-01  8.3203155199361D-01
164  1.6300000000000D+00  2.0173000274839D-01  7.9607678084769D-01
165  1.6400000000000D+00  2.0336933943939D-01  7.6015497606086D-01
166  1.6500000000000D+00  2.0449375655275D-01  7.2436116122855D-01
167  1.6600000000000D+00  2.0512181507694D-01  6.8877972235573D-01
168  1.6700000000000D+00  2.0527304308870D-01  6.5350156716466D-01
169  1.6800000000000D+00  2.0496668609516D-01  6.1860455969714D-01
170  1.6900000000000D+00  2.0422311686639D-01  5.8417414271511D-01
171  1.7000000000000D+00  2.0306202657261D-01  5.5028093655188D-01
172  1.7100000000000D+00  2.0150437083432D-01  5.1700357955769D-01
173  1.7200000000000D+00  1.9957008374432D-01  4.8440496543882D-01
174  1.7300000000000D+00  1.9728042590347D-01  4.5255561783866D-01
175  1.7400000000000D+00  1.9465541200209D-01  4.2151046466032D-01
176  1.7500000000000D+00  1.9171631557451D-01  3.9133065893694D-01
177  1.7600000000000D+00  1.8848311305773D-01  3.6206315787932D-01
178  1.7700000000000D+00  1.8497678770585D-01  3.3375858109054D-01
179  1.7800000000000D+00  1.8121720270793D-01  3.0645611229742D-01
180  1.7900000000000D+00  1.7722474238926D-01  2.8019482770319D-01
181  1.8000000000000D+00  1.7301912150541D-01  2.5500647502621D-01
182  1.8100000000000D+00  1.6861982153459D-01  2.3091781556781D-01
183  1.8200000000000D+00  1.6404640325639D-01  2.0795354483318D-01
184  1.8300000000000D+00  1.5931716214906D-01  1.8612768644996D-01
185  1.8400000000000D+00  1.5445151166203D-01  1.6545819294948D-01
186  1.8500000000000D+00  1.4946632147970D-01  1.4594640076973D-01
187  1.8600000000000D+00  1.4438085163715D-01  1.2760362224987D-01
188  1.8700000000000D+00  1.3921066283061D-01  1.1042040719847D-01
189  1.8800000000000D+00  1.3397395791950D-01  9.4397429150709D-02
190  1.8900000000000D+00  1.2868586500325D-01  7.9519546514222D-02
191  1.9000000000000D+00  1.2336285959315D-01  6.5774907448250D-02
192  1.9100000000000D+00  1.1801995055503D-01  5.3144136740272D-02
193  1.9200000000000D+00  1.1267161518194D-01  4.1603508657104D-02
194  1.9300000000000D+00  1.0733284153368D-01  3.1129523780538D-02
195  1.9400000000000D+00  1.0201601600993D-01  2.1688367808398D-02
196  1.9500000000000D+00  9.6736080484055D-02  1.3251848392351D-02
197  1.9600000000000D+00  9.1503898220957D-02  5.7795566827905D-03
198  1.9700000000000D+00  8.6332747375578D-02 -7.6505843855016D-04
199  1.9800000000000D+00  8.1233617481932D-02 -6.4242271144294D-03
200  1.9900000000000D+00  7.6217502357490D-02 -1.1242070940171D-02
201  2.0000000000000D+00  7.1295625933421D-02 -1.5263397226925D-02
202  2.0100000000000D+00  6.6476837876298D-02 -1.8536630536569D-02
203  2.0200000000000D+00  6.1772206744661D-02 -2.1110551708348D-02
204  2.0300000000000D+00  5.7189420455473D-02 -2.3034974498406D-02
205  2.0400000000000D+00  5.2737748066321D-02 -2.4361750891862D-02
206  2.0500000000000D+00  4.8425291643840D-02 -2.5142251644214D-02
207  2.0600000000000D+00  4.4259067484332D-02 -2.5427707085136D-02
208  2.0700000000000D+00  4.0247554606964D-02 -2.5273157107542D-02
209  2.0800000000000D+00  3.6396221928279D-02 -2.4726916223418D-02
210  2.0900000000000D+00  3.2712279262126D-02 -2.3843653755786D-02
211  2.1000000000000D+00  2.9201439539636D-02 -2.2672825432310D-02
212  2.1100000000000D+00  2.5868856359700D-02 -2.1262631123834D-02
213  2.1200000000000D+00  2.2720742630815D-02 -1.9667242412080D-02
214  2.1300000000000D+00  1.9760762173779D-02 -1.7927248145614D-02
215  2.1400000000000D+00  1.6994045858210D-02 -1.6093125462744D-02
216  2.1500000000000D+00  1.4424499603706D-02 -1.4207259025962D-02
217  2.1600000000000D+00  1.2055306503141D-02 -1.2307558143775D-02
218  2.1700000000000D+00  9.8909464093978D-03 -1.0443062529330D-02
219  2.1800000000000D+00  7.9332598887547D-03 -8.6410763666186D-03
220  2.1900000000000D+00  6.1853378568134D-03 -6.9407658050135D-03
221  2.2000000000000D+00  4.6496555668113D-03 -5.3759285399441D-03
222  2.2100000000000D+00  3.3274601389618D-03 -3.9689553579029D-03
223  2.2200000000000D+00  2.2209183671449D-03 -2.7568045922474D-03
224  2.2300000000000D+00  1.3311134227579D-03 -1.7537695256989D-03
225  2.2400000000000D+00  6.6539531568072D-04 -9.8703551917343D-04
226  2.2500000000000D+00  2.4845479653234D-04 -5.1731860265142D-04
227  2.2600000000000D+00  9.1421560248189D-06 -2.3469467087130D-04
228  2.2700000000000D+00 -8.6392555886422D-05 -7.9392562637757D-05
229  2.2800000000000D+00 -7.8841647405258D-05 -6.9925251729332D-06
230  2.2900000000000D+00 -1.8810808662093D-05  3.4305132559408D-06
231  2.3000000000000D+00  3.5343816569023D-06  8.3197048070080D-06
232  2.3100000000000D+00  3.3455811058089D-06  7.8752805752814D-06
233  2.3200000000000D+00  6.3929766607804D-08  1.5048651735704D-07
234  2.3300000000000D+00  0.0000000000000D+00  0.0000000000000D+00
235  2.3400000000000D+00  0.0000000000000D+00  0.0000000000000D+00
236  2.3500000000000D+00  0.0000000000000D+00  0.0000000000000D+00
237  2.3600000000000D+00  0.0000000000000D+00  0.0000000000000D+00
238  2.3700000000000D+00  0.0000000000000D+00  0.0000000000000D+00
239  2.3800000000000D+00  0.0000000000000D+00  0.0000000000000D+00
240  2.3900000000000D+00  0.0000000000000D+00  0.0000000000000D+00
241  2.4000000000000D+00  0.0000000000000D+00  0.0000000000000D+00
242  2.4100000000000D+00  0.0000000000000D+00  0.0000000000000D+00
243  2.4200000000000D+00  0.0000000000000D+00  0.0000000000000D+00
244  2.4300000000000D+00  0.0000000000000D+00  0.0000000000000D+00
245  2.4400000000000D+00  0.0000000000000D+00  0.0000000000000D+00
246  2.4500000000000D+00  0.0000000000000D+00  0.0000000000000D+00
247  2.4600000000000D+00  0.0000000000000D+00  0.0000000000000D+00
248  2.4700000000000D+00  0.0000000000000D+00  0.0000000000000D+00
249  2.4800000000000D+00  0.0000000000000D+00  0.0000000000000D+00
250  2.4900000000000D+00  0.0000000000000D+00  0.0000000000000D+00
251  2.5000000000000D+00  0.0000000000000D+00  0.0000000000000D+00
252  2.5100000000000D+00  0.0000000000000D+00  0.0000000000000D+00
253  2.5200000000000D+00  0.0000000000000D+00  0.0000000000000D+00
254  2.5300000000000D+00  0.0000000000000D+00  0.0000000000000D+00
255  2.5400000000000D+00  0.0000000000000D+00  0.0000000000000D+00
256  2.5500000000000D+00  0.0000000000000D+00  0.0000000000000D+00
257  2.5600000000000D+00  0.0000000000000D+00  0.0000000000000D+00
258  2.5700000000000D+00  0.0000000000000D+00  0.0000000000000D+00
259  2.5800000000000D+00  0.0000000000000D+00  0.0000000000000D+00
260  2.5900000000000D+00  0.0000000000000D+00  0.0000000000000D+00
261  2.6000000000000D+00  0.0000000000000D+00  0.0000000000000D+00
262  2.6100000000000D+00  0.0000000000000D+00  0.0000000000000D+00
263  2.6200000000000D+00  0.0000000000000D+00  0.0000000000000D+00
264  2.6300000000000D+00  0.0000000000000D+00  0.0000000000000D+00
265  2.6400000000000D+00  0.0000000000000D+00  0.0000000000000D+00
266  2.6500000000000D+00  0.0000000000000D+00  0.0000000000000D+00
267  2.6600000000000D+00  0.0000000000000D+00  0.0000000000000D+00
268  2.6700000000000D+00  0.0000000000000D+00  0.0000000000000D+00
269  2.6800000000000D+00  0.0000000000000D+00  0.0000000000000D+00
270  2.6900000000000D+00  0.0000000000000D+00  0.0000000000000D+00
271  2.7000000000000D+00  0.0000000000000D+00  0.0000000000000D+00
272  2.7100000000000D+00  0.0000000000000D+00  0.0000000000000D+00
273  2.7200000000000D+00  0.0000000000000D+00  0.0000000000000D+00
274  2.7300000000000D+00  0.0000000000000D+00  0.0000000000000D+00
275  2.7400000000000D+00  0.0000000000000D+00  0.0000000000000D+00
276  2.7500000000000D+00  0.0000000000000D+00  0.0000000000000D+00
277  2.7600000000000D+00  0.0000000000000D+00  0.0000000000000D+00
278  2.7700000000000D+00  0.0000000000000D+00  0.0000000000000D+00
279  2.7800000000000D+00  0.0000000000000D+00  0.0000000000000D+00
280  2.7900000000000D+00  0.0000000000000D+00  0.0000000000000D+00
281  2.8000000000000D+00  0.0000000000000D+00  0.0000000000000D+00
282  2.8100000000000D+00  0.0000000000000D+00  0.0000000000000D+00
283  2.8200000000000D+00  0.0000000000000D+00  0.0000000000000D+00
284  2.8300000000000D+00  0.0000000000000D+00  0.0000000000000D+00
285  2.8400000000000D+00  0.0000000000000D+00  0.0000000000000D+00
286  2.8500000000000D+00  0.0000000000000D+00  0.0000000000000D+00
287  2.8600000000000D+00  0.0000000000000D+00  0.0000000000000D+00
288  2.8700000000000D+00  0.0000000000000D+00  0.0000000000000D+00
289  2.8800000000000D+00  0.0000000000000D+00  0.0000000000000D+00
290  2.8900000000000D+00  0.0000000000000D+00  0.0000000000000D+00
291  2.9000000000000D+00  0.0000000000000D+00  0.0000000000000D+00
292  2.9100000000000D+00  0.0000000000000D+00  0.0000000000000D+00
293  2.9200000000000D+00  0.0000000000000D+00  0.0000000000000D+00
294  2.9300000000000D+00  0.0000000000000D+00  0.0000000000000D+00
295  2.9400000000000D+00  0.0000000000000D+00  0.0000000000000D+00
296  2.9500000000000D+00  0.0000000000000D+00  0.0000000000000D+00
297  2.9600000000000D+00  0.0000000000000D+00  0.0000000000000D+00
298  2.9700000000000D+00  0.0000000000000D+00  0.0000000000000D+00
299  2.9800000000000D+00  0.0000000000000D+00  0.0000000000000D+00
300  2.9900000000000D+00  0.0000000000000D+00  0.0000000000000D+00
301  3.0000000000000D+00  0.0000000000000D+00  0.0000000000000D+00
302  3.0100000000000D+00  0.0000000000000D+00  0.0000000000000D+00
303  3.0200000000000D+00  0.0000000000000D+00  0.0000000000000D+00
304  3.0300000000000D+00  0.0000000000000D+00  0.0000000000000D+00
305  3.0400000000000D+00  0.0000000000000D+00  0.0000000000000D+00
306  3.0500000000000D+00  0.0000000000000D+00  0.0000000000000D+00
307  3.0600000000000D+00  0.0000000000000D+00  0.0000000000000D+00
308  3.0700000000000D+00  0.0000000000000D+00  0.0000000000000D+00
309  3.0800000000000D+00  0.0000000000000D+00  0.0000000000000D+00
310  3.0900000000000D+00  0.0000000000000D+00  0.0000000000000D+00
311  3.1000000000000D+00  0.0000000000000D+00  0.0000000000000D+00
312  3.1100000000000D+00  0.0000000000000D+00  0.0000000000000D+00
313  3.1200000000000D+00  0.0000000000000D+00  0.0000000000000D+00
314  3.1300000000000D+00  0.0000000000000D+00  0.0000000000000D+00
315  3.1400000000000D+00  0.0000000000000D+00  0.0000000000000D+00
316  3.1500000000000D+00  0.0000000000000D+00  0.0000000000000D+00
317  3.1600000000000D+00  0.0000000000000D+00  0.0000000000000D+00
318  3.1700000000000D+00  0.0000000000000D+00  0.0000000000000D+00
319  3.1800000000000D+00  0.0000000000000D+00  0.0000000000000D+00
320  3.1900000000000D+00  0.0000000000000D+00  0.0000000000000D+00
321  3.2000000000000D+00  0.0000000000000D+00  0.0000000000000D+00
322  3.2100000000000D+00  0.0000000000000D+00  0.0000000000000D+00
323  3.2200000000000D+00  0.0000000000000D+00  0.0000000000000D+00
324  3.2300000000000D+00  0.0000000000000D+00  0.0000000000000D+00
325  3.2400000000000D+00  0.0000000000000D+00  0.0000000000000D+00
326  3.2500000000000D+00  0.0000000000000D+00  0.0000000000000D+00
327  3.2600000000000D+00  0.0000000000000D+00  0.0000000000000D+00
328  3.2700000000000D+00  0.0000000000000D+00  0.0000000000000D+00
329  3.2800000000000D+00  0.0000000000000D+00  0.0000000000000D+00
330  3.2900000000000D+00  0.0000000000000D+00  0.0000000000000D+00
331  3.3000000000000D+00  0.0000000000000D+00  0.0000000000000D+00
332  3.3100000000000D+00  0.0000000000000D+00  0.0000000000000D+00
333  3.3200000000000D+00  0.0000000000000D+00  0.0000000000000D+00
334  3.3300000000000D+00  0.0000000000000D+00  0.0000000000000D+00
335  3.3400000000000D+00  0.0000000000000D+00  0.0000000000000D+00
336  3.3500000000000D+00  0.0000000000000D+00  0.0000000000000D+00
337  3.3600000000000D+00  0.0000000000000D+00  0.0000000000000D+00
338  3.3700000000000D+00  0.0000000000000D+00  0.0000000000000D+00
339  3.3800000000000D+00  0.0000000000000D+00  0.0000000000000D+00
340  3.3900000000000D+00  0.0000000000000D+00  0.0000000000000D+00
341  3.4000000000000D+00  0.0000000000000D+00  0.0000000000000D+00
342  3.4100000000000D+00  0.0000000000000D+00  0.0000000000000D+00
343  3.4200000000000D+00  0.0000000000000D+00  0.0000000000000D+00
344  3.4300000000000D+00  0.0000000000000D+00  0.0000000000000D+00
345  3.4400000000000D+00  0.0000000000000D+00  0.0000000000000D+00
346  3.4500000000000D+00  0.0000000000000D+00  0.0000000000000D+00
347  3.4600000000000D+00  0.0000000000000D+00  0.0000000000000D+00
348  3.4700000000000D+00  0.0000000000000D+00  0.0000000000000D+00
349  3.4800000000000D+00  0.0000000000000D+00  0.0000000000000D+00
350  3.4900000000000D+00  0.0000000000000D+00  0.0000000000000D+00
351  3.5000000000000D+00  0.0000000000000D+00  0.0000000000000D+00
352  3.5100000000000D+00  0.0000000000000D+00  0.0000000000000D+00
353  3.5200000000000D+00  0.0000000000000D+00  0.0000000000000D+00
354  3.5300000000000D+00  0.0000000000000D+00  0.0000000000000D+00
355  3.5400000000000D+00  0.0000000000000D+00  0.0000000000000D+00
356  3.5500000000000D+00  0.0000000000000D+00  0.0000000000000D+00
357  3.5600000000000D+00  0.0000000000000D+00  0.0000000000000D+00
358  3.5700000000000D+00  0.0000000000000D+00  0.0000000000000D+00
359  3.5800000000000D+00  0.0000000000000D+00  0.0000000000000D+00
360  3.5900000000000D+00  0.0000000000000D+00  0.0000000000000D+00
361  3.6000000000000D+00  0.0000000000000D+00  0.0000000000000D+00
362  3.6100000000000D+00  0.0000000000000D+00  0.0000000000000D+00
363  3.6200000000000D+00  0.0000000000000D+00  0.0000000000000D+00
364  3.6300000000000D+00  0.0000000000000D+00  0.0000000000000D+00
365  3.6400000000000D+00  0.0000000000000D+00  0.0000000000000D+00
366  3.6500000000000D+00  0.0000000000000D+00  0.0000000000000D+00
367  3.6600000000000D+00  0.0000000000000D+00  0.0000000000000D+00
368  3.6700000000000D+00  0.0000000000000D+00  0.0000000000000D+00
369  3.6800000000000D+00  0.0000000000000D+00  0.0000000000000D+00
370  3.6900000000000D+00  0.0000000000000D+00  0.0000000000000D+00
371  3.7000000000000D+00  0.0000000000000D+00  0.0000000000000D+00
372  3.7100000000000D+00  0.0000000000000D+00  0.0000000000000D+00
373  3.7200000000000D+00  0.0000000000000D+00  0.0000000000000D+00
374  3.7300000000000D+00  0.0000000000000D+00  0.0000000000000D+00
375  3.7400000000000D+00  0.0000000000000D+00  0.0000000000000D+00
376  3.7500000000000D+00  0.0000000000000D+00  0.0000000000000D+00
377  3.7600000000000D+00  0.0000000000000D+00  0.0000000000000D+00
378  3.7700000000000D+00  0.0000000000000D+00  0.0000000000000D+00
379  3.7800000000000D+00  0.0000000000000D+00  0.0000000000000D+00
380  3.7900000000000D+00  0.0000000000000D+00  0.0000000000000D+00
381  3.8000000000000D+00  0.0000000000000D+00  0.0000000000000D+00
382  3.8100000000000D+00  0.0000000000000D+00  0.0000000000000D+00
383  3.8200000000000D+00  0.0000000000000D+00  0.0000000000000D+00
384  3.8300000000000D+00  0.0000000000000D+00  0.0000000000000D+00
385  3.8400000000000D+00  0.0000000000000D+00  0.0000000000000D+00
386  3.8500000000000D+00  0.0000000000000D+00  0.0000000000000D+00
387  3.8600000000000D+00  0.0000000000000D+00  0.0000000000000D+00
388  3.8700000000000D+00  0.0000000000000D+00  0.0000000000000D+00
389  3.8800000000000D+00  0.0000000000000D+00  0.0000000000000D+00
390  3.8900000000000D+00  0.0000000000000D+00  0.0000000000000D+00
391  3.9000000000000D+00  0.0000000000000D+00  0.0000000000000D+00
392  3.9100000000000D+00  0.0000000000000D+00  0.0000000000000D+00
393  3.9200000000000D+00  0.0000000000000D+00  0.0000000000000D+00
394  3.9300000000000D+00  0.0000000000000D+00  0.0000000000000D+00
395  3.9400000000000D+00  0.0000000000000D+00  0.0000000000000D+00
396  3.9500000000000D+00  0.0000000000000D+00  0.0000000000000D+00
397  3.9600000000000D+00  0.0000000000000D+00  0.0000000000000D+00
398  3.9700000000000D+00  0.0000000000000D+00  0.0000000000000D+00
399  3.9800000000000D+00  0.0000000000000D+00  0.0000000000000D+00
400  3.9900000000000D+00  0.0000000000000D+00  0.0000000000000D+00
401  4.0000000000000D+00  0.0000000000000D+00  0.0000000000000D+00
402  4.0100000000000D+00  0.0000000000000D+00  0.0000000000000D+00
403  4.0200000000000D+00  0.0000000000000D+00  0.0000000000000D+00
404  4.0300000000000D+00  0.0000000000000D+00  0.0000000000000D+00
405  4.0400000000000D+00  0.0000000000000D+00  0.0000000000000D+00
406  4.0500000000000D+00  0.0000000000000D+00  0.0000000000000D+00
407  4.0600000000000D+00  0.0000000000000D+00  0.0000000000000D+00
408  4.0700000000000D+00  0.0000000000000D+00  0.0000000000000D+00
409  4.0800000000000D+00  0.0000000000000D+00  0.0000000000000D+00
410  4.0900000000000D+00  0.0000000000000D+00  0.0000000000000D+00
411  4.1000000000000D+00  0.0000000000000D+00  0.0000000000000D+00
412  4.1100000000000D+00  0.0000000000000D+00  0.0000000000000D+00
413  4.1200000000000D+00  0.0000000000000D+00  0.0000000000000D+00
414  4.1300000000000D+00  0.0000000000000D+00  0.0000000000000D+00
415  4.1400000000000D+00  0.0000000000000D+00  0.0000000000000D+00
416  4.1500000000000D+00  0.0000000000000D+00  0.0000000000000D+00
417  4.1600000000000D+00  0.0000000000000D+00  0.0000000000000D+00
418  4.1700000000000D+00  0.0000000000000D+00  0.0000000000000D+00
419  4.1800000000000D+00  0.0000000000000D+00  0.0000000000000D+00
420  4.1900000000000D+00  0.0000000000000D+00  0.0000000000000D+00
421  4.2000000000000D+00  0.0000000000000D+00  0.0000000000000D+00
422  4.2100000000000D+00  0.0000000000000D+00  0.0000000000000D+00
423  4.2200000000000D+00  0.0000000000000D+00  0.0000000000000D+00
424  4.2300000000000D+00  0.0000000000000D+00  0.0000000000000D+00
425  4.2400000000000D+00  0.0000000000000D+00  0.0000000000000D+00
426  4.2500000000000D+00  0.0000000000000D+00  0.0000000000000D+00
427  4.2600000000000D+00  0.0000000000000D+00  0.0000000000000D+00
428  4.2700000000000D+00  0.0000000000000D+00  0.0000000000000D+00
429  4.2800000000000D+00  0.0000000000000D+00  0.0000000000000D+00
430  4.2900000000000D+00  0.0000000000000D+00  0.0000000000000D+00
431  4.3000000000000D+00  0.0000000000000D+00  0.0000000000000D+00
432  4.3100000000000D+00  0.0000000000000D+00  0.0000000000000D+00
433  4.3200000000000D+00  0.0000000000000D+00  0.0000000000000D+00
434  4.3300000000000D+00  0.0000000000000D+00  0.0000000000000D+00
435  4.3400000000000D+00  0.0000000000000D+00  0.0000000000000D+00
436  4.3500000000000D+00  0.0000000000000D+00  0.0000000000000D+00
437  4.3600000000000D+00  0.0000000000000D+00  0.0000000000000D+00
438  4.3700000000000D+00  0.0000000000000D+00  0.0000000000000D+00
439  4.3800000000000D+00  0.0000000000000D+00  0.0000000000000D+00
440  4.3900000000000D+00  0.0000000000000D+00  0.0000000000000D+00
441  4.4000000000000D+00  0.0000000000000D+00  0.0000000000000D+00
442  4.4100000000000D+00  0.0000000000000D+00  0.0000000000000D+00
443  4.4200000000000D+00  0.0000000000000D+00  0.0000000000000D+00
444  4.4300000000000D+00  0.0000000000000D+00  0.0000000000000D+00