Te    ONCVPSP  r_core=  2.40  2.21  2.61
52.0000      6.0000      141211    zatom,zion,pspd
8    11     2     4   601     0    pspcod,pspxc,lmax,lloc,mmax,r2well
6.00000000  1.00000000  0.00000000    rchrg fchrg qchrg
2     2     2     0     0    nproj
0                 extension_switch
0                         4.4152243799348D+00  4.2265425448212D-01
1  0.0000000000000D+00 -0.0000000000000D+00  0.0000000000000D+00
2  1.0000000000000D-02 -2.5197266774610D-02  1.2113721307660D-02
3  2.0000000000000D-02 -5.0368249178063D-02  2.4148111741466D-02
4  3.0000000000000D-02 -7.5486773392490D-02  3.6024309756681D-02
5  4.0000000000000D-02 -1.0052688609477D-01  4.7664389855910D-02
6  5.0000000000000D-02 -1.2546296317758D-01  5.8991824099216D-02
7  6.0000000000000D-02 -1.5026981664788D-01  6.9931935836147D-02
8  7.0000000000000D-02 -1.7492279911050D-01  8.0412343130860D-02
9  8.0000000000000D-02 -1.9939790525708D-01  9.0363389405135D-02
10  9.0000000000000D-02 -2.2367186979634D-01  9.9718558889987D-02
11  1.0000000000000D-01 -2.4772226128193D-01  1.0841487456242D-01
12  1.1000000000000D-01 -2.7152757131300D-01  1.1639327632338D-01
13  1.2000000000000D-01 -2.9506729861093D-01  1.2359897729315D-01
14  1.3000000000000D-01 -3.1832202749844D-01  1.2998179619543D-01
15  1.4000000000000D-01 -3.4127350034530D-01  1.3549646396273D-01
16  1.5000000000000D-01 -3.6390468356178D-01  1.4010290276714D-01
17  1.6000000000000D-01 -3.8619982677839D-01  1.4376647592236D-01
18  1.7000000000000D-01 -4.0814451485341D-01  1.4645820711588D-01
19  1.8000000000000D-01 -4.2972571243069D-01  1.4815496777241D-01
20  1.9000000000000D-01 -4.5093180079547D-01  1.4883963145544D-01
21  2.0000000000000D-01 -4.7175260673441D-01  1.4850119404026D-01
22  2.1000000000000D-01 -4.9217942336038D-01  1.4713485946317D-01
23  2.2000000000000D-01 -5.1220502261682D-01  1.4474208981836D-01
24  2.3000000000000D-01 -5.3182365950471D-01  1.4133061995436D-01
25  2.4000000000000D-01 -5.5103106788969D-01  1.3691443594718D-01
26  2.5000000000000D-01 -5.6982444797710D-01  1.3151371778864D-01
27  2.6000000000000D-01 -5.8820244543224D-01  1.2515474617364D-01
28  2.7000000000000D-01 -6.0616512227567D-01  1.1786977390319D-01
29  2.8000000000000D-01 -6.2371391970097D-01  1.0969686251807D-01
30  2.9000000000000D-01 -6.4085161298121D-01  1.0067968481566D-01
31  3.0000000000000D-01 -6.5758225867734D-01  9.0867294142828D-02
32  3.1000000000000D-01 -6.7391113442108D-01  8.0313861589127D-02
33  3.2000000000000D-01 -6.8984467168442D-01  6.9078382814755D-02
34  3.3000000000000D-01 -7.0539038200726D-01  5.7224356497210D-02
35  3.4000000000000D-01 -7.2055677556973D-01  4.4819429443374D-02
36  3.5000000000000D-01 -7.3535327701233D-01  3.1935029758895D-02
37  3.6000000000000D-01 -7.4979013062951D-01  1.8645953499283D-02
38  3.7000000000000D-01 -7.6387830649087D-01  5.0299552906988D-03
39  3.8000000000000D-01 -7.7762939814629D-01 -8.8326980677092D-03
40  3.9000000000000D-01 -7.9105551633685D-01 -2.2859691755592D-02
41  4.0000000000000D-01 -8.0416918228226D-01 -3.6967129342042D-02
42  4.1000000000000D-01 -8.1698321588781D-01 -5.1070021900291D-02
43  4.2000000000000D-01 -8.2951062240459D-01 -6.5082784483329D-02
44  4.3000000000000D-01 -8.4176447761250D-01 -7.8919739754634D-02
45  4.4000000000000D-01 -8.5375781214399D-01 -9.2495626173562D-02
46  4.5000000000000D-01 -8.6550349558248D-01 -1.0572610806284D-01
47  4.6000000000000D-01 -8.7701412100149D-01 -1.1852828474404D-01
48  4.7000000000000D-01 -8.8830189066153D-01 -1.3082119570193D-01
49  4.8000000000000D-01 -8.9937850515920D-01 -1.4252631178126D-01
50  4.9000000000000D-01 -9.1025505244554D-01 -1.5356802825145D-01
51  5.0000000000000D-01 -9.2094189460655D-01 -1.6387416930093D-01
52  5.1000000000000D-01 -9.3144857237862D-01 -1.7337641593972D-01
53  5.2000000000000D-01 -9.4178371343244D-01 -1.8201071856187D-01
54  5.3000000000000D-01 -9.5195490959769D-01 -1.8971784917128D-01
55  5.4000000000000D-01 -9.6196866157089D-01 -1.9644365659021D-01
56  5.5000000000000D-01 -9.7183027658759D-01 -2.0213953199229D-01
57  5.6000000000000D-01 -9.8154379293391D-01 -2.0676275812649D-01
58  5.7000000000000D-01 -9.9111192415298D-01 -2.1027677224532D-01
59  5.8000000000000D-01 -1.0005359760160D+00 -2.1265155423450D-01
60  5.9000000000000D-01 -1.0098158136316D+00 -2.1386379193529D-01
61  6.0000000000000D-01 -1.0189498041723D+00 -2.1389715941546D-01
62  6.1000000000000D-01 -1.0279347724829D+00 -2.1274254075356D-01
63  6.2000000000000D-01 -1.0367660088757D+00 -2.1039801817951D-01
64  6.3000000000000D-01 -1.0454371904300D+00 -2.0686926163837D-01
65  6.4000000000000D-01 -1.0539404237629D+00 -2.0216936337189D-01
66  6.5000000000000D-01 -1.0622662357815D+00 -1.9631891383384D-01
67  6.6000000000000D-01 -1.0704035496131D+00 -1.8934615728502D-01
68  6.7000000000000D-01 -1.0783397413039D+00 -1.8128676956604D-01
69  6.8000000000000D-01 -1.0860606603052D+00 -1.7218380987716D-01
70  6.9000000000000D-01 -1.0935506579142D+00 -1.6208764436905D-01
71  7.0000000000000D-01 -1.1007926368910D+00 -1.5105577490025D-01
72  7.1000000000000D-01 -1.1077681184470D+00 -1.3915258341700D-01
73  7.2000000000000D-01 -1.1144573042042D+00 -1.2644911033318D-01
74  7.3000000000000D-01 -1.1208391517893D+00 -1.1302276881189D-01
75  7.4000000000000D-01 -1.1268914575795D+00 -9.8957035600675D-02
76  7.5000000000000D-01 -1.1325909525627D+00 -8.4341086183331D-02
77  7.6000000000000D-01 -1.1379134032313D+00 -6.9269393541809D-02
78  7.7000000000000D-01 -1.1428337192167D+00 -5.3841312220842D-02
79  7.8000000000000D-01 -1.1473260687979D+00 -3.8160624476875D-02
80  7.9000000000000D-01 -1.1513640010075D+00 -2.2335057828347D-02
81  8.0000000000000D-01 -1.1549205737662D+00 -6.4757763280700D-03
82  8.1000000000000D-01 -1.1579684874387D+00  9.3031519873855D-03
83  8.2000000000000D-01 -1.1604802231827D+00  2.4885308896163D-02
84  8.3000000000000D-01 -1.1624281854308D+00  4.0152498355291D-02
85  8.4000000000000D-01 -1.1637848478261D+00  5.4985334653759D-02
86  8.5000000000000D-01 -1.1645229019117D+00  6.9263843491911D-02
87  8.6000000000000D-01 -1.1646154078538D+00  8.2868073047846D-02
88  8.7000000000000D-01 -1.1640359464636D+00  9.5678712020305D-02
89  8.8000000000000D-01 -1.1627587717657D+00  1.0757771157160D-01
90  8.9000000000000D-01 -1.1607589633469D+00  1.1844890803214D-01
91  9.0000000000000D-01 -1.1580125777049D+00  1.2817864317075D-01
92  9.1000000000000D-01 -1.1544967978037D+00  1.3665637878228D-01
93  9.2000000000000D-01 -1.1501900800342D+00  1.4377530230122D-01
94  9.3000000000000D-01 -1.1450722977691D+00  1.4943292011948D-01
95  9.4000000000000D-01 -1.1391248807027D+00  1.5353163527622D-01
96  9.5000000000000D-01 -1.1323309491687D+00  1.5597930620686D-01
97  9.6000000000000D-01 -1.1246754426474D+00  1.5668978329820D-01
98  9.7000000000000D-01 -1.1161451769287D+00  1.5558315973665D-01
99  9.8000000000000D-01 -1.1067291352547D+00  1.5258696182988D-01
100  9.9000000000000D-01 -1.0964184432395D+00  1.4763607519235D-01
101  1.0000000000000D+00 -1.0852064824810D+00  1.4067322432677D-01
102  1.0100000000000D+00 -1.0730889924146D+00  1.3164940683956D-01
103  1.0200000000000D+00 -1.0600641503633D+00  1.2052424086972D-01
104  1.0300000000000D+00 -1.0461325830042D+00  1.0726603325079D-01
105  1.0400000000000D+00 -1.0312975276343D+00  9.1852458575747D-02
106  1.0500000000000D+00 -1.0155649652837D+00  7.4271133161618D-02
107  1.0600000000000D+00 -9.9894346513524D-01  5.4519004634097D-02
108  1.0700000000000D+00 -9.8144428400138D-01  3.2602784545825D-02
109  1.0800000000000D+00 -9.6308129948136D-01  8.5386963094140D-03
110  1.0900000000000D+00 -9.4387119143699D-01 -1.7646746309680D-02
111  1.1000000000000D+00 -9.2383347064346D-01 -4.5916576654445D-02
112  1.1100000000000D+00 -9.0299023768129D-01 -7.6224346421365D-02
113  1.1200000000000D+00 -8.8136619933196D-01 -1.0851402878992D-01
114  1.1300000000000D+00 -8.5898864076250D-01 -1.4272010795105D-01
115  1.1400000000000D+00 -8.3588767194759D-01 -1.7876646371615D-01
116  1.1500000000000D+00 -8.1209574029210D-01 -2.1656839774416D-01
117  1.1600000000000D+00 -7.8764763585997D-01 -2.5603258294438D-01
118  1.1700000000000D+00 -7.6258056320867D-01 -2.9705669653394D-01
119  1.1800000000000D+00 -7.3693406087829D-01 -3.3952964619647D-01
120  1.1900000000000D+00 -7.1074966706606D-01 -3.8333299292468D-01
121  1.2000000000000D+00 -6.8407087291025D-01 -4.2834116541342D-01
122  1.2100000000000D+00 -6.5694321403962D-01 -4.7442076692651D-01
123  1.2200000000000D+00 -6.2941383119368D-01 -5.2143254608668D-01
124  1.2300000000000D+00 -6.0153147127468D-01 -5.6923141079793D-01
125  1.2400000000000D+00 -5.7334635203389D-01 -6.1766669610780D-01
126  1.2500000000000D+00 -5.4490985202023D-01 -6.6658345369195D-01
127  1.2600000000000D+00 -5.1627456419523D-01 -7.1582240652322D-01
128  1.2700000000000D+00 -4.8749397598824D-01 -7.6522091867856D-01
129  1.2800000000000D+00 -4.5862211047686D-01 -8.1461439857896D-01
130  1.2900000000000D+00 -4.2971387901404D-01 -8.6383519107381D-01
131  1.3000000000000D+00 -4.0082435022534D-01 -9.1271504654560D-01
132  1.3100000000000D+00 -3.7200851770917D-01 -9.6108609910188D-01
133  1.3200000000000D+00 -3.4332205020076D-01 -1.0087782524749D+00
134  1.3300000000000D+00 -3.1481964702421D-01 -1.0556249930773D+00
135  1.3400000000000D+00 -2.8655566928257D-01 -1.1014612809329D+00
136  1.3500000000000D+00 -2.5858486879246D-01 -1.1461209033010D+00
137  1.3600000000000D+00 -2.3095955658077D-01 -1.1894466984087D+00
138  1.3700000000000D+00 -2.0373226738224D-01 -1.2312810139421D+00
139  1.3800000000000D+00 -1.7695422173614D-01 -1.2714712380093D+00
140  1.3900000000000D+00 -1.5067424051312D-01 -1.3098737963555D+00
141  1.4000000000000D+00 -1.2494161496207D-01 -1.3463437215686D+00
142  1.4100000000000D+00 -9.9801645028108D-02 -1.3807508931677D+00
143  1.4200000000000D+00 -7.5299167287827D-02 -1.4129672120227D+00
144  1.4300000000000D+00 -5.1477065668937D-02 -1.4428720200970D+00
145  1.4400000000000D+00 -2.8374436066641D-02 -1.4703587808876D+00
146  1.4500000000000D+00 -6.0311017536634D-03 -1.4953186450731D+00
147  1.4600000000000D+00  1.5519310046648D-02 -1.5176656250173D+00
148  1.4700000000000D+00  3.6242683503417D-02 -1.5373122703249D+00
149  1.4800000000000D+00  5.6109225862072D-02 -1.5541871534742D+00
150  1.4900000000000D+00  7.5091765697557D-02 -1.5682286211205D+00
151  1.5000000000000D+00  9.3164651586761D-02 -1.5793808663780D+00
152  1.5100000000000D+00  1.1030798054211D-01 -1.5876090499563D+00
153  1.5200000000000D+00  1.2650065660129D-01 -1.5928744110846D+00
154  1.5300000000000D+00  1.4172961493288D-01 -1.5951671935675D+00
155  1.5400000000000D+00  1.5598022528946D-01 -1.5944723743283D+00
156  1.5500000000000D+00  1.6924469878792D-01 -1.5907995159935D+00
157  1.5600000000000D+00  1.8151563589790D-01 -1.5841598151527D+00
158  1.5700000000000D+00  1.9279048677702D-01 -1.5745818533596D+00
159  1.5800000000000D+00  2.0306900863224D-01 -1.5621024588356D+00
160  1.5900000000000D+00  2.1235398134148D-01 -1.5467693519114D+00
161  1.6000000000000D+00  2.2065201578036D-01 -1.5286435406632D+00
162  1.6100000000000D+00  2.2797127091142D-01 -1.5077918136001D+00
163  1.6200000000000D+00  2.3432476327942D-01 -1.4842973570436D+00
164  1.6300000000000D+00  2.3972600784111D-01 -1.4582456509743D+00
165  1.6400000000000D+00  2.4419386943359D-01 -1.4297396484994D+00
166  1.6500000000000D+00  2.4774710200943D-01 -1.3988827594202D+00
167  1.6600000000000D+00  2.5040978209679D-01 -1.3657950031139D+00
168  1.6700000000000D+00  2.5220567849154D-01 -1.3305965244643D+00
169  1.6800000000000D+00  2.5316339025265D-01 -1.2934215287457D+00
170  1.6900000000000D+00  2.5331136192853D-01 -1.2544052398565D+00
171  1.7000000000000D+00  2.5268199929202D-01 -1.2136930967108D+00
172  1.7100000000000D+00  2.5130796313093D-01 -1.1714332645265D+00
173  1.7200000000000D+00  2.4922475119490D-01 -1.1277795077662D+00
174  1.7300000000000D+00  2.4646865482726D-01 -1.0828902923101D+00
175  1.7400000000000D+00  2.4307758109907D-01 -1.0369249724278D+00
176  1.7500000000000D+00  2.3909073311739D-01 -9.9004914678411D-01
177  1.7600000000000D+00  2.3454781024628D-01 -9.4242533133419D-01
178  1.7700000000000D+00  2.2949006893970D-01 -8.9422254389073D-01
179  1.7800000000000D+00  2.2395848192459D-01 -8.4560446706438D-01
180  1.7900000000000D+00  2.1799535954614D-01 -7.9673928658804D-01
181  1.8000000000000D+00  2.1164255166312D-01 -7.4779037604129D-01
182  1.8100000000000D+00  2.0494229344002D-01 -6.9892036785215D-01
183  1.8200000000000D+00  1.9793704546629D-01 -6.5029137742661D-01
184  1.8300000000000D+00  1.9066774330254D-01 -6.0205546028312D-01
185  1.8400000000000D+00  1.8317730016286D-01 -5.5437293463754D-01
186  1.8500000000000D+00  1.7550409995387D-01 -5.0738026165393D-01
187  1.8600000000000D+00  1.6769139783587D-01 -4.6123555364283D-01
188  1.8700000000000D+00  1.5977454576940D-01 -4.1605828579345D-01
189  1.8800000000000D+00  1.5179490162687D-01 -3.7199419982569D-01
190  1.8900000000000D+00  1.4378630072346D-01 -3.2915334598240D-01
191  1.9000000000000D+00  1.3578599282021D-01 -2.8765964131428D-01
192  1.9100000000000D+00  1.2782705668336D-01 -2.4761719164414D-01
193  1.9200000000000D+00  1.1994109891394D-01 -2.0912208090857D-01
194  1.9300000000000D+00  1.1216083106101D-01 -1.7227407221959D-01
195  1.9400000000000D+00  1.0451111105458D-01 -1.3713747358430D-01
196  1.9500000000000D+00  9.7024347609150D-02 -1.0380779400346D-01
197  1.9600000000000D+00  8.9719784410587D-02 -7.2323158857105D-02
198  1.9700000000000D+00  8.2624195028856D-02 -4.2752282996320D-02
199  1.9800000000000D+00  7.5756327427805D-02 -1.5129120173277D-02
200  1.9900000000000D+00  6.9134689691523D-02  1.0514735419407D-02
201  2.0000000000000D+00  6.2778153064672D-02  3.4147246921613D-02
202  2.0100000000000D+00  5.6696839504614D-02  5.5773376096625D-02
203  2.0200000000000D+00  5.0908484130614D-02  7.5368520820596D-02
204  2.0300000000000D+00  4.5418081814279D-02  9.2960156398797D-02
205  2.0400000000000D+00  4.0236060945645D-02  1.0855550839135D-01
206  2.0500000000000D+00  3.5368125851645D-02  1.2218125568394D-01
207  2.0600000000000D+00  3.0815559557098D-02  1.3388244883452D-01
208  2.0700000000000D+00  2.6584648715113D-02  1.4368629202658D-01
209  2.0800000000000D+00  2.2670264977397D-02  1.5166377727382D-01
210  2.0900000000000D+00  1.9073149910725D-02  1.5786562957350D-01
211  2.1000000000000D+00  1.5788464420494D-02  1.6236348327896D-01
212  2.1100000000000D+00  1.2809010024236D-02  1.6523861092422D-01
213  2.1200000000000D+00  1.0130699035755D-02  1.6656302046485D-01
214  2.1300000000000D+00  7.7411554811091D-03  1.6643674178974D-01
215  2.1400000000000D+00  5.6318791603790D-03  1.6494930940389D-01
216  2.1500000000000D+00  3.7909342395576D-03  1.6220096647231D-01
217  2.1600000000000D+00  2.2042116223372D-03  1.5829926252184D-01
218  2.1700000000000D+00  8.5986322016173D-04  1.5334865087281D-01
219  2.1800000000000D+00 -2.5884922718671D-04  1.4746315431988D-01
220  2.1900000000000D+00 -1.1672206722701D-03  1.4075758750441D-01
221  2.2000000000000D+00 -1.8813574022520D-03  1.3334777586329D-01
222  2.2100000000000D+00 -2.4186471998056D-03  1.2534925297159D-01
223  2.2200000000000D+00 -2.7968931491510D-03  1.1688764142903D-01
224  2.2300000000000D+00 -3.0330006632180D-03  1.0807321684059D-01
225  2.2400000000000D+00 -3.1446007678291D-03  9.9021807395962D-02
226  2.2500000000000D+00 -3.1506288502200D-03  8.9859571144596D-02
227  2.2600000000000D+00 -3.0657931408853D-03  8.0679657977374D-02
228  2.2700000000000D+00 -2.9081973869732D-03  7.1599182693767D-02
229  2.2800000000000D+00 -2.6939060725346D-03  6.2721628522355D-02
230  2.2900000000000D+00 -2.4357664424915D-03  5.4129085016844D-02
231  2.3000000000000D+00 -2.1515254931621D-03  4.5934287423262D-02
232  2.3100000000000D+00 -1.8520071209015D-03  3.8207713451205D-02
233  2.3200000000000D+00 -1.5479557972168D-03  3.1019294757783D-02
234  2.3300000000000D+00 -1.2558536061394D-03  2.4472685758203D-02
235  2.3400000000000D+00 -9.7978236596840D-04  1.8599288521330D-02
236  2.3500000000000D+00 -7.2918527697051D-04  1.3461564886648D-02
237  2.3600000000000D+00 -5.1484710224801D-04  9.1296179081815D-03
238  2.3700000000000D+00 -3.3689177185750D-04  5.6130632166326D-03
239  2.3800000000000D+00 -2.0683370122633D-04  3.0400001621514D-03
240  2.3900000000000D+00 -1.2793380023350D-04  1.4292856161497D-03
241  2.4000000000000D+00 -7.9017467158023D-05  4.7727542325536D-04
242  2.4100000000000D+00 -4.4333872581471D-05  5.0080062722555D-06
243  2.4200000000000D+00 -1.8223918415891D-05 -1.3265580396311D-04
244  2.4300000000000D+00 -3.1647513171922D-06 -5.4004178842094D-05
245  2.4400000000000D+00  3.3680559075392D-06 -1.1259948271882D-05
246  2.4500000000000D+00  3.9127442711970D-06 -1.3080928376564D-05
247  2.4600000000000D+00  1.0429275687154D-06 -3.4866732612035D-06
248  2.4700000000000D+00  0.0000000000000D+00  0.0000000000000D+00
249  2.4800000000000D+00  0.0000000000000D+00  0.0000000000000D+00
250  2.4900000000000D+00  0.0000000000000D+00  0.0000000000000D+00
251  2.5000000000000D+00  0.0000000000000D+00  0.0000000000000D+00
252  2.5100000000000D+00  0.0000000000000D+00  0.0000000000000D+00
253  2.5200000000000D+00  0.0000000000000D+00  0.0000000000000D+00
254  2.5300000000000D+00  0.0000000000000D+00  0.0000000000000D+00
255  2.5400000000000D+00  0.0000000000000D+00  0.0000000000000D+00
256  2.5500000000000D+00  0.0000000000000D+00  0.0000000000000D+00
257  2.5600000000000D+00  0.0000000000000D+00  0.0000000000000D+00
258  2.5700000000000D+00  0.0000000000000D+00  0.0000000000000D+00
259  2.5800000000000D+00  0.0000000000000D+00  0.0000000000000D+00
260  2.5900000000000D+00  0.0000000000000D+00  0.0000000000000D+00
261  2.6000000000000D+00  0.0000000000000D+00  0.0000000000000D+00
262  2.6100000000000D+00  0.0000000000000D+00  0.0000000000000D+00
263  2.6200000000000D+00  0.0000000000000D+00  0.0000000000000D+00
264  2.6300000000000D+00  0.0000000000000D+00  0.0000000000000D+00
265  2.6400000000000D+00  0.0000000000000D+00  0.0000000000000D+00
266  2.6500000000000D+00  0.0000000000000D+00  0.0000000000000D+00
267  2.6600000000000D+00  0.0000000000000D+00  0.0000000000000D+00
268  2.6700000000000D+00  0.0000000000000D+00  0.0000000000000D+00
269  2.6800000000000D+00  0.0000000000000D+00  0.0000000000000D+00
270  2.6900000000000D+00  0.0000000000000D+00  0.0000000000000D+00
271  2.7000000000000D+00  0.0000000000000D+00  0.0000000000000D+00
272  2.7100000000000D+00  0.0000000000000D+00  0.0000000000000D+00
273  2.7200000000000D+00  0.0000000000000D+00  0.0000000000000D+00
274  2.7300000000000D+00  0.0000000000000D+00  0.0000000000000D+00
275  2.7400000000000D+00  0.0000000000000D+00  0.0000000000000D+00
276  2.7500000000000D+00  0.0000000000000D+00  0.0000000000000D+00
277  2.7600000000000D+00  0.0000000000000D+00  0.0000000000000D+00
278  2.7700000000000D+00  0.0000000000000D+00  0.0000000000000D+00
279  2.7800000000000D+00  0.0000000000000D+00  0.0000000000000D+00
280  2.7900000000000D+00  0.0000000000000D+00  0.0000000000000D+00
281  2.8000000000000D+00  0.0000000000000D+00  0.0000000000000D+00
282  2.8100000000000D+00  0.0000000000000D+00  0.0000000000000D+00
283  2.8200000000000D+00  0.0000000000000D+00  0.0000000000000D+00
284  2.8300000000000D+00  0.0000000000000D+00  0.0000000000000D+00
285  2.8400000000000D+00  0.0000000000000D+00  0.0000000000000D+00
286  2.8500000000000D+00  0.0000000000000D+00  0.0000000000000D+00
287  2.8600000000000D+00  0.0000000000000D+00  0.0000000000000D+00
288  2.8700000000000D+00  0.0000000000000D+00  0.0000000000000D+00
289  2.8800000000000D+00  0.0000000000000D+00  0.0000000000000D+00
290  2.8900000000000D+00  0.0000000000000D+00  0.0000000000000D+00
291  2.9000000000000D+00  0.0000000000000D+00  0.0000000000000D+00
292  2.9100000000000D+00  0.0000000000000D+00  0.0000000000000D+00
293  2.9200000000000D+00  0.0000000000000D+00  0.0000000000000D+00
294  2.9300000000000D+00  0.0000000000000D+00  0.0000000000000D+00
295  2.9400000000000D+00  0.0000000000000D+00  0.0000000000000D+00
296  2.9500000000000D+00  0.0000000000000D+00  0.0000000000000D+00
297  2.9600000000000D+00  0.0000000000000D+00  0.0000000000000D+00
298  2.9700000000000D+00  0.0000000000000D+00  0.0000000000000D+00
299  2.9800000000000D+00  0.0000000000000D+00  0.0000000000000D+00
300  2.9900000000000D+00  0.0000000000000D+00  0.0000000000000D+00
301  3.0000000000000D+00  0.0000000000000D+00  0.0000000000000D+00
302  3.0100000000000D+00  0.0000000000000D+00  0.0000000000000D+00
303  3.0200000000000D+00  0.0000000000000D+00  0.0000000000000D+00
304  3.0300000000000D+00  0.0000000000000D+00  0.0000000000000D+00
305  3.0400000000000D+00  0.0000000000000D+00  0.0000000000000D+00
306  3.0500000000000D+00  0.0000000000000D+00  0.0000000000000D+00
307  3.0600000000000D+00  0.0000000000000D+00  0.0000000000000D+00
308  3.0700000000000D+00  0.0000000000000D+00  0.0000000000000D+00
309  3.0800000000000D+00  0.0000000000000D+00  0.0000000000000D+00
310  3.0900000000000D+00  0.0000000000000D+00  0.0000000000000D+00
311  3.1000000000000D+00  0.0000000000000D+00  0.0000000000000D+00
312  3.1100000000000D+00  0.0000000000000D+00  0.0000000000000D+00
313  3.1200000000000D+00  0.0000000000000D+00  0.0000000000000D+00
314  3.1300000000000D+00  0.0000000000000D+00  0.0000000000000D+00
315  3.1400000000000D+00  0.0000000000000D+00  0.0000000000000D+00
316  3.1500000000000D+00  0.0000000000000D+00  0.0000000000000D+00
317  3.1600000000000D+00  0.0000000000000D+00  0.0000000000000D+00
318  3.1700000000000D+00  0.0000000000000D+00  0.0000000000000D+00
319  3.1800000000000D+00  0.0000000000000D+00  0.0000000000000D+00
320  3.1900000000000D+00  0.0000000000000D+00  0.0000000000000D+00
321  3.2000000000000D+00  0.0000000000000D+00  0.0000000000000D+00
322  3.2100000000000D+00  0.0000000000000D+00  0.0000000000000D+00
323  3.2200000000000D+00  0.0000000000000D+00  0.0000000000000D+00
324  3.2300000000000D+00  0.0000000000000D+00  0.0000000000000D+00
325  3.2400000000000D+00  0.0000000000000D+00  0.0000000000000D+00
326  3.2500000000000D+00  0.0000000000000D+00  0.0000000000000D+00
327  3.2600000000000D+00  0.0000000000000D+00  0.0000000000000D+00
328  3.2700000000000D+00  0.0000000000000D+00  0.0000000000000D+00
329  3.2800000000000D+00  0.0000000000000D+00  0.0000000000000D+00
330  3.2900000000000D+00  0.0000000000000D+00  0.0000000000000D+00
331  3.3000000000000D+00  0.0000000000000D+00  0.0000000000000D+00
332  3.3100000000000D+00  0.0000000000000D+00  0.0000000000000D+00
333  3.3200000000000D+00  0.0000000000000D+00  0.0000000000000D+00
334  3.3300000000000D+00  0.0000000000000D+00  0.0000000000000D+00
335  3.3400000000000D+00  0.0000000000000D+00  0.0000000000000D+00
336  3.3500000000000D+00  0.0000000000000D+00  0.0000000000000D+00
337  3.3600000000000D+00  0.0000000000000D+00  0.0000000000000D+00
338  3.3700000000000D+00  0.0000000000000D+00  0.0000000000000D+00
339  3.3800000000000D+00  0.0000000000000D+00  0.0000000000000D+00
340  3.3900000000000D+00  0.0000000000000D+00  0.0000000000000D+00
341  3.4000000000000D+00  0.0000000000000D+00  0.0000000000000D+00
342  3.4100000000000D+00  0.0000000000000D+00  0.0000000000000D+00
343  3.4200000000000D+00  0.0000000000000D+00  0.0000000000000D+00
344  3.4300000000000D+00  0.0000000000000D+00  0.0000000000000D+00
345  3.4400000000000D+00  0.0000000000000D+00  0.0000000000000D+00
346  3.4500000000000D+00  0.0000000000000D+00  0.0000000000000D+00
347  3.4600000000000D+00  0.0000000000000D+00  0.0000000000000D+00
348  3.4700000000000D+00  0.0000000000000D+00  0.0000000000000D+00
349  3.4800000000000D+00  0.0000000000000D+00  0.0000000000000D+00
350  3.4900000000000D+00  0.0000000000000D+00  0.0000000000000D+00
351  3.5000000000000D+00  0.0000000000000D+00  0.0000000000000D+00
352  3.5100000000000D+00  0.0000000000000D+00  0.0000000000000D+00
353  3.5200000000000D+00  0.0000000000000D+00  0.0000000000000D+00
354  3.5300000000000D+00  0.0000000000000D+00  0.0000000000000D+00
355  3.5400000000000D+00  0.0000000000000D+00  0.0000000000000D+00
356  3.5500000000000D+00  0.0000000000000D+00  0.0000000000000D+00
357  3.5600000000000D+00  0.0000000000000D+00  0.0000000000000D+00
358  3.5700000000000D+00  0.0000000000000D+00  0.0000000000000D+00
359  3.5800000000000D+00  0.0000000000000D+00  0.0000000000000D+00
360  3.5900000000000D+00  0.0000000000000D+00  0.0000000000000D+00
361  3.6000000000000D+00  0.0000000000000D+00  0.0000000000000D+00
362  3.6100000000000D+00  0.0000000000000D+00  0.0000000000000D+00
363  3.6200000000000D+00  0.0000000000000D+00  0.0000000000000D+00
364  3.6300000000000D+00  0.0000000000000D+00  0.0000000000000D+00
365  3.6400000000000D+00  0.0000000000000D+00  0.0000000000000D+00
366  3.6500000000000D+00  0.0000000000000D+00  0.0000000000000D+00
367  3.6600000000000D+00  0.0000000000000D+00  0.0000000000000D+00
368  3.6700000000000D+00  0.0000000000000D+00  0.0000000000000D+00
369  3.6800000000000D+00  0.0000000000000D+00  0.0000000000000D+00
370  3.6900000000000D+00  0.0000000000000D+00  0.0000000000000D+00
371  3.7000000000000D+00  0.0000000000000D+00  0.0000000000000D+00
372  3.7100000000000D+00  0.0000000000000D+00  0.0000000000000D+00
373  3.7200000000000D+00  0.0000000000000D+00  0.0000000000000D+00
374  3.7300000000000D+00  0.0000000000000D+00  0.0000000000000D+00
375  3.7400000000000D+00  0.0000000000000D+00  0.0000000000000D+00
376  3.7500000000000D+00  0.0000000000000D+00  0.0000000000000D+00
377  3.7600000000000D+00  0.0000000000000D+00  0.0000000000000D+00
378  3.7700000000000D+00  0.0000000000000D+00  0.0000000000000D+00
379  3.7800000000000D+00  0.0000000000000D+00  0.0000000000000D+00
380  3.7900000000000D+00  0.0000000000000D+00  0.0000000000000D+00
381  3.8000000000000D+00  0.0000000000000D+00  0.0000000000000D+00
382  3.8100000000000D+00  0.0000000000000D+00  0.0000000000000D+00
383  3.8200000000000D+00  0.0000000000000D+00  0.0000000000000D+00
384  3.8300000000000D+00  0.0000000000000D+00  0.0000000000000D+00
385  3.8400000000000D+00  0.0000000000000D+00  0.0000000000000D+00
386  3.8500000000000D+00  0.0000000000000D+00  0.0000000000000D+00
387  3.8600000000000D+00  0.0000000000000D+00  0.0000000000000D+00
388  3.8700000000000D+00  0.0000000000000D+00  0.0000000000000D+00
389  3.8800000000000D+00  0.0000000000000D+00  0.0000000000000D+00
390  3.8900000000000D+00  0.0000000000000D+00  0.0000000000000D+00
391  3.9000000000000D+00  0.0000000000000D+00  0.0000000000000D+00
392  3.9100000000000D+00  0.0000000000000D+00  0.0000000000000D+00
393  3.9200000000000D+00  0.0000000000000D+00  0.0000000000000D+00
394  3.9300000000000D+00  0.0000000000000D+00  0.0000000000000D+00
395  3.9400000000000D+00  0.0000000000000D+00  0.0000000000000D+00
396  3.9500000000000D+00  0.0000000000000D+00  0.0000000000000D+00
397  3.9600000000000D+00  0.0000000000000D+00  0.0000000000000D+00
398  3.9700000000000D+00  0.0000000000000D+00  0.0000000000000D+00
399  3.9800000000000D+00  0.0000000000000D+00  0.0000000000000D+00
400  3.9900000000000D+00  0.0000000000000D+00  0.0000000000000D+00
401  4.0000000000000D+00  0.0000000000000D+00  0.0000000000000D+00
402  4.0100000000000D+00  0.0000000000000D+00  0.0000000000000D+00
403  4.0200000000000D+00  0.0000000000000D+00  0.0000000000000D+00
404  4.0300000000000D+00  0.0000000000000D+00  0.0000000000000D+00
405  4.0400000000000D+00  0.0000000000000D+00  0.0000000000000D+00
406  4.0500000000000D+00  0.0000000000000D+00  0.0000000000000D+00
407  4.0600000000000D+00  0.0000000000000D+00  0.0000000000000D+00
408  4.0700000000000D+00  0.0000000000000D+00  0.0000000000000D+00
409  4.0800000000000D+00  0.0000000000000D+00  0.0000000000000D+00
410  4.0900000000000D+00  0.0000000000000D+00  0.0000000000000D+00
411  4.1000000000000D+00  0.0000000000000D+00  0.0000000000000D+00
412  4.1100000000000D+00  0.0000000000000D+00  0.0000000000000D+00
413  4.1200000000000D+00  0.0000000000000D+00  0.0000000000000D+00
414  4.1300000000000D+00  0.0000000000000D+00  0.0000000000000D+00
415  4.1400000000000D+00  0.0000000000000D+00  0.0000000000000D+00
416  4.1500000000000D+00  0.0000000000000D+00  0.0000000000000D+00
417  4.1600000000000D+00  0.0000000000000D+00  0.0000000000000D+00
418  4.1700000000000D+00  0.0000000000000D+00  0.0000000000000D+00
419  4.1800000000000D+00  0.0000000000000D+00  0.0000000000000D+00
420  4.1900000000000D+00  0.0000000000000D+00  0.0000000000000D+00
421  4.2000000000000D+00  0.0000000000000D+00  0.0000000000000D+00
422  4.2100000000000D+00  0.0000000000000D+00  0.0000000000000D+00
423  4.2200000000000D+00  0.0000000000000D+00  0.0000000000000D+00
424  4.2300000000000D+00  0.0000000000000D+00  0.0000000000000D+00
425  4.2400000000000D+00  0.0000000000000D+00  0.0000000000000D+00
426  4.2500000000000D+00  0.0000000000000D+00  0.0000000000000D+00
427  4.2600000000000D+00  0.0000000000000D+00  0.0000000000000D+00
428  4.2700000000000D+00  0.0000000000000D+00  0.0000000000000D+00
429  4.2800000000000D+00  0.0000000000000D+00  0.0000000000000D+00
430  4.2900000000000D+00  0.0000000000000D+00  0.0000000000000D+00
431  4.3000000000000D+00  0.0000000000000D+00  0.0000000000000D+00
432  4.3100000000000D+00  0.0000000000000D+00  0.0000000000000D+00
433  4.3200000000000D+00  0.0000000000000D+00  0.0000000000000D+00
434  4.3300000000000D+00  0.0000000000000D+00  0.0000000000000D+00
435  4.3400000000000D+00  0.0000000000000D+00  0.0000000000000D+00
436  4.3500000000000D+00  0.0000000000000D+00  0.0000000000000D+00
437  4.3600000000000D+00  0.0000000000000D+00  0.0000000000000D+00
438  4.3700000000000D+00  0.0000000000000D+00  0.0000000000000D+00
439  4.3800000000000D+00  0.0000000000000D+00  0.0000000000000D+00
440  4.3900000000000D+00  0.0000000000000D+00  0.0000000000000D+00
441  4.4000000000000D+00  0.0000000000000D+00  0.0000000000000D+00
442  4.4100000000000D+00  0.0000000000000D+00  0.0000000000000D+00
443  4.4200000000000D+00  0.0000000000000D+00  0.0000000000000D+00
444  4.4300000000000D+00  0.0000000000000D+00  0.0000000000000D+00