Hf    ONCVPSP-3.2.3.1  r_core=   1.55994   1.61677   1.40114   1.61677
72.0000     26.0000      170501    zatom,zion,pspd
8      11   3     4   600     0    pspcod,pspxc,lmax,lloc,mmax,r2well
5.99000000  3.00000000  0.00000000    rchrg fchrg qchrg
2     2     2     2     0    nproj
1     1           extension_switch
0                         1.2993029442093D+01  1.4509481700393D+00
1  0.0000000000000D+00 -1.5259304930737D-10  7.1483324814992D-10
2  1.0000000000000D-02  4.9995450472858D-02 -2.2226727345067D-02
3  2.0000000000000D-02  9.9936262550431D-02 -4.4342985074399D-02
4  3.0000000000000D-02  1.4976792625897D-01 -6.6239286287765D-02
5  4.0000000000000D-02  1.9943618614248D-01 -8.7808095795583D-02
6  5.0000000000000D-02  2.4888716274768D-01 -1.0894477185746D-01
7  6.0000000000000D-02  2.9806746729022D-01 -1.2954846749399D-01
8  7.0000000000000D-02  3.4692430741075D-01 -1.4952297874519D-01
9  8.0000000000000D-02  3.9540558208203D-01 -1.6877752796396D-01
10  9.0000000000000D-02  4.4345996391539D-01 -1.8722747111005D-01
11  1.0000000000000D-01  4.9103696733342D-01 -2.0479491903974D-01
12  1.1000000000000D-01  5.3808700132358D-01 -2.2140926395551D-01
13  1.2000000000000D-01  5.8456140576115D-01 -2.3700760347517D-01
14  1.3000000000000D-01  6.3041247058483D-01 -2.5153505618438D-01
15  1.4000000000000D-01  6.7559343742223D-01 -2.6494496403490D-01
16  1.5000000000000D-01  7.2005848358908D-01 -2.7719897852270D-01
17  1.6000000000000D-01  7.6376268872254D-01 -2.8826702920798D-01
18  1.7000000000000D-01  8.0666198464909D-01 -2.9812717480111D-01
19  1.8000000000000D-01  8.4871308942804D-01 -3.0676533871502D-01
20  1.9000000000000D-01  8.8987342684622D-01 -3.1417493265350D-01
21  2.0000000000000D-01  9.3010103296343D-01 -3.2035637344488D-01
22  2.1000000000000D-01  9.6935445161804D-01 -3.2531649992067D-01
23  2.2000000000000D-01  1.0075926210903D+00 -3.2906789815757D-01
24  2.3000000000000D-01  1.0447747543854D+00 -3.3162814482814D-01
25  2.4000000000000D-01  1.0808602158346D+00 -3.3301897972122D-01
26  2.5000000000000D-01  1.1158083969107D+00 -3.3326541967891D-01
27  2.6000000000000D-01  1.1495785943249D+00 -3.3239482723526D-01
28  2.7000000000000D-01  1.1821298935888D+00 -3.3043594811721D-01
29  2.8000000000000D-01  1.2134210613121D+00 -3.2741793246662D-01
30  2.9000000000000D-01  1.2434104495353D+00 -3.2336935515118D-01
31  3.0000000000000D-01  1.2720559153886D+00 -3.1831725084166D-01
32  3.1000000000000D-01  1.2993147592987D+00 -3.1228617963620D-01
33  3.2000000000000D-01  1.3251436848586D+00 -3.0529733890250D-01
34  3.3000000000000D-01  1.3494987833049D+00 -2.9736773668488D-01
35  3.4000000000000D-01  1.3723355453398D+00 -2.8850944148344D-01
36  3.5000000000000D-01  1.3936089027680D+00 -2.7872892246083D-01
37  3.6000000000000D-01  1.4132733021132D+00 -2.6802649317290D-01
38  3.7000000000000D-01  1.4312828120219D+00 -2.5639587076110D-01
39  3.8000000000000D-01  1.4475912658718D+00 -2.4382386119723D-01
40  3.9000000000000D-01  1.4621524405663D+00 -2.3029017964942D-01
41  4.0000000000000D-01  1.4749202720347D+00 -2.1576741335574D-01
42  4.1000000000000D-01  1.4858491074633D+00 -2.0022113256951D-01
43  4.2000000000000D-01  1.4948939937668D+00 -1.8361015319561D-01
44  4.3000000000000D-01  1.5020110012794D+00 -1.6588695269546D-01
45  4.4000000000000D-01  1.5071575811015D+00 -1.4699823872078D-01
46  4.5000000000000D-01  1.5102929539918D+00 -1.2688566777150D-01
47  4.6000000000000D-01  1.5113785281552D+00 -1.0548670898541D-01
48  4.7000000000000D-01  1.5103783427415D+00 -8.2735645987216D-02
49  4.8000000000000D-01  1.5072595333615D+00 -5.8564707577484D-02
50  4.9000000000000D-01  1.5019928154337D+00 -3.2905315960104D-02
51  5.0000000000000D-01  1.4945529807236D+00 -5.6894392157056D-03
52  5.1000000000000D-01  1.4849194020178D+00  2.3148967141753D-02
53  5.2000000000000D-01  1.4730765405068D+00  5.3672446410713D-02
54  5.3000000000000D-01  1.4590144501321D+00  8.5938473185255D-02
55  5.4000000000000D-01  1.4427292728931D+00  1.1999785186167D-01
56  5.5000000000000D-01  1.4242237189150D+00  1.5589310208422D-01
57  5.6000000000000D-01  1.4035075249509D+00  1.9365685293568D-01
58  5.7000000000000D-01  1.3805978849358D+00  2.3331026830780D-01
59  5.8000000000000D-01  1.3555198462335D+00  2.7486152624363D-01
60  5.9000000000000D-01  1.3283066653140D+00  3.1830437511506D-01
61  6.0000000000000D-01  1.2990001167774D+00  3.6361678927486D-01
62  6.1000000000000D-01  1.2676507499014D+00  4.1075974630462D-01
63  6.2000000000000D-01  1.2343180872229D+00  4.5967614715415D-01
64  6.3000000000000D-01  1.1990707600832D+00  5.1028989935697D-01
65  6.4000000000000D-01  1.1619865765544D+00  5.6250518209510D-01
66  6.5000000000000D-01  1.1231525177302D+00  6.1620591019841D-01
67  6.6000000000000D-01  1.0826646589890D+00  6.7125541222090D-01
68  6.7000000000000D-01  1.0406280135329D+00  7.2749633552848D-01
69  6.8000000000000D-01  9.9715629625012D-01  7.8475078891389D-01
70  6.9000000000000D-01  9.5237160674154D-01  8.4282073063667D-01
71  7.0000000000000D-01  9.0640403118511D-01  9.0148860698807D-01
72  7.1000000000000D-01  8.5939116357728D-01  9.6051824354831D-01
73  7.2000000000000D-01  8.1147754777301D-01  1.0196559882679D+00
74  7.3000000000000D-01  7.6281404264378D-01  1.0786321023902D+00
75  7.4000000000000D-01  7.1355711356513D-01  1.1371623921056D+00
76  7.5000000000000D-01  6.6386805433662D-01  1.1949500706744D+00
77  7.6000000000000D-01  6.1391214449798D-01  1.2516878376825D+00
78  7.7000000000000D-01  5.6385774783943D-01  1.3070601590876D+00
79  7.8000000000000D-01  5.1387535869469D-01  1.3607457288389D+00
80  7.9000000000000D-01  4.6413660334173D-01  1.4124200901451D+00
81  8.0000000000000D-01  4.1481320451048D-01  1.4617583919562D+00
82  8.1000000000000D-01  3.6607591759818D-01  1.5084382539590D+00
83  8.2000000000000D-01  3.1809344771166D-01  1.5521427113886D+00
84  8.3000000000000D-01  2.7103135708690D-01  1.5925632092663D+00
85  8.4000000000000D-01  2.2505097276915D-01  1.6294026143080D+00
86  8.5000000000000D-01  1.8030830466751D-01  1.6623782117427D+00
87  8.6000000000000D-01  1.3695298422135D-01  1.6912246536420D+00
88  8.7000000000000D-01  9.5127233927744D-02  1.7156968251126D+00
89  8.8000000000000D-01  5.4964877877931D-02  1.7355725948613D+00
90  8.9000000000000D-01  1.6590403235163D-02  1.7506554171889D+00
91  9.0000000000000D-01 -1.9881917745228D-02  1.7607767534419D+00
92  9.1000000000000D-01 -5.4348835991094D-02  1.7657982822973D+00
93  9.2000000000000D-01 -8.6718855576029D-02  1.7656138700158D+00
94  9.3000000000000D-01 -1.1691287741408D-01  1.7601512739213D+00
95  9.4000000000000D-01 -1.4486474948468D-01  1.7493735548385D+00
96  9.5000000000000D-01 -1.7052171722933D-01  1.7332801770323D+00
97  9.6000000000000D-01 -1.9384476868697D-01  1.7119077772955D+00
98  9.7000000000000D-01 -2.1480886993228D-01  1.6853305882013D+00
99  9.8000000000000D-01 -2.3340308743995D-01  1.6536605041363D+00
100  9.9000000000000D-01 -2.4963059510261D-01  1.6170467824951D+00
101  1.0000000000000D+00 -2.6350856479579D-01  1.5756753764131D+00
102  1.0100000000000D+00 -2.7506794050476D-01  1.5297678992655D+00
103  1.0200000000000D+00 -2.8435309725938D-01  1.4795802253977D+00
104  1.0300000000000D+00 -2.9142138726976D-01  1.4254007355117D+00
105  1.0400000000000D+00 -2.9634257681549D-01  1.3675482191396D+00
106  1.0500000000000D+00 -2.9919817856194D-01  1.3063694505083D+00
107  1.0600000000000D+00 -3.0008068509537D-01  1.2422364579737D+00
108  1.0700000000000D+00 -2.9909271038170D-01  1.1755435103583D+00
109  1.0800000000000D+00 -2.9634604693935D-01  1.1067038472800D+00
110  1.0900000000000D+00 -2.9196064728086D-01  1.0361461831998D+00
111  1.1000000000000D+00 -2.8606353898480D-01  9.6431101769315D-01
112  1.1100000000000D+00 -2.7878768341277D-01  8.9164678668722D-01
113  1.1200000000000D+00 -2.7027078860661D-01  8.1860589118266D-01
114  1.1300000000000D+00 -2.6065408739901D-01  7.4564064165340D-01
115  1.1400000000000D+00 -2.5008109200621D-01  6.7319915708289D-01
116  1.1500000000000D+00 -2.3869633653820D-01  6.0172125809490D-01
117  1.1600000000000D+00 -2.2664411894876D-01  5.3163439388342D-01
118  1.1700000000000D+00 -2.1406725381233D-01  4.6334964204976D-01
119  1.1800000000000D+00 -2.0110584705340D-01  3.9725781945639D-01
120  1.1900000000000D+00 -1.8789610340057D-01  3.3372574085866D-01
121  1.2000000000000D+00 -1.7456917694650D-01  2.7309266060329D-01
122  1.2100000000000D+00 -1.6125007442347D-01  2.1566692983018D-01
123  1.2200000000000D+00 -1.4805661995972D-01  1.6172289851831D-01
124  1.2300000000000D+00 -1.3509848980939D-01  1.1149809070506D-01
125  1.2400000000000D+00 -1.2247632392538D-01  6.5190675276087D-02
126  1.2500000000000D+00 -1.1028092039885D-01  2.2957251660225D-02
127  1.2600000000000D+00 -9.8592517690726D-02 -1.5089034885242D-02
128  1.2700000000000D+00 -8.7480170644841D-02 -4.8880026409193D-02
129  1.2800000000000D+00 -7.7001208923354D-02 -7.8393791606000D-02
130  1.2900000000000D+00 -6.7200867825606D-02 -1.0365515894477D-01
131  1.3000000000000D+00 -5.8111826544954D-02 -1.2473677613074D-01
132  1.3100000000000D+00 -4.9753929436044D-02 -1.4175945503549D-01
133  1.3200000000000D+00 -4.2135403096771D-02 -1.5488530432957D-01
134  1.3300000000000D+00 -3.5254242262331D-02 -1.6431066183771D-01
135  1.3400000000000D+00 -2.9099996638908D-02 -1.7025761546279D-01
136  1.3500000000000D+00 -2.3654218116232D-02 -1.7297229627639D-01
137  1.3600000000000D+00 -1.8891128054105D-02 -1.7272225954193D-01
138  1.3700000000000D+00 -1.4778442133106D-02 -1.6979313128509D-01
139  1.3800000000000D+00 -1.1278197490609D-02 -1.6448535889616D-01
140  1.3900000000000D+00 -8.3476385677967D-03 -1.5711074387604D-01
141  1.4000000000000D+00 -5.9401367321448D-03 -1.4798887174953D-01
142  1.4100000000000D+00 -4.0061372717201D-03 -1.3744345627247D-01
143  1.4200000000000D+00 -2.4941229196320D-03 -1.2579863790449D-01
144  1.4300000000000D+00 -1.3515778930299D-03 -1.1337529828359D-01
145  1.4400000000000D+00 -5.2594489833676D-04 -1.0048741538476D-01
146  1.4500000000000D+00  3.4432632300078D-05 -8.7438484729847D-02
147  1.4600000000000D+00  3.7939998138625D-04 -7.4518072587221D-02
148  1.4700000000000D+00  5.5612166666178D-04 -6.1998534937936D-02
149  1.4800000000000D+00  6.0826141361826D-04 -5.0131930082753D-02
150  1.4900000000000D+00  5.7522007444913D-04 -3.9147156886020D-02
151  1.5000000000000D+00  4.9144420907602D-04 -2.9247365296183D-02
152  1.5100000000000D+00  3.8594315652727D-04 -2.0612250737986D-02
153  1.5200000000000D+00  2.8120008264563D-04 -1.3376943663938D-02
154  1.5300000000000D+00  1.9175774297503D-04 -7.6200969082267D-03
155  1.5400000000000D+00  1.3177795269924D-04 -3.5263869606611D-03
156  1.5500000000000D+00  1.0923499053806D-04 -1.2151178121117D-03
157  1.5600000000000D+00  9.0808364501817D-05 -2.5121613287177D-04
158  1.5700000000000D+00  4.1055220274636D-05  9.2075825117922D-06
159  1.5800000000000D+00 -2.9730980998683D-06 -3.8148511196411D-06
160  1.5900000000000D+00 -7.9855644271422D-06 -1.6265493911097D-05
161  1.6000000000000D+00  9.6003572173531D-07  7.0473581646136D-07
162  1.6100000000000D+00  1.7548442754872D-06  1.7787374965752D-06
163  1.6200000000000D+00 -1.4451012411969D-07  4.0408707098675D-07
164  1.6300000000000D+00 -2.0830670550660D-07  5.8247854264758D-07
165  1.6400000000000D+00  0.0000000000000D+00  0.0000000000000D+00
166  1.6500000000000D+00  0.0000000000000D+00  0.0000000000000D+00
167  1.6600000000000D+00  0.0000000000000D+00  0.0000000000000D+00
168  1.6700000000000D+00  0.0000000000000D+00  0.0000000000000D+00
169  1.6800000000000D+00  0.0000000000000D+00  0.0000000000000D+00
170  1.6900000000000D+00  0.0000000000000D+00  0.0000000000000D+00
171  1.7000000000000D+00  0.0000000000000D+00  0.0000000000000D+00
172  1.7100000000000D+00  0.0000000000000D+00  0.0000000000000D+00
173  1.7200000000000D+00  0.0000000000000D+00  0.0000000000000D+00
174  1.7300000000000D+00  0.0000000000000D+00  0.0000000000000D+00
175  1.7400000000000D+00  0.0000000000000D+00  0.0000000000000D+00
176  1.7500000000000D+00  0.0000000000000D+00  0.0000000000000D+00
177  1.7600000000000D+00  0.0000000000000D+00  0.0000000000000D+00
178  1.7700000000000D+00  0.0000000000000D+00  0.0000000000000D+00
179  1.7800000000000D+00  0.0000000000000D+00  0.0000000000000D+00
180  1.7900000000000D+00  0.0000000000000D+00  0.0000000000000D+00
181  1.8000000000000D+00  0.0000000000000D+00  0.0000000000000D+00
182  1.8100000000000D+00  0.0000000000000D+00  0.0000000000000D+00
183  1.8200000000000D+00  0.0000000000000D+00  0.0000000000000D+00
184  1.8300000000000D+00  0.0000000000000D+00  0.0000000000000D+00
185  1.8400000000000D+00  0.0000000000000D+00  0.0000000000000D+00
186  1.8500000000000D+00  0.0000000000000D+00  0.0000000000000D+00
187  1.8600000000000D+00  0.0000000000000D+00  0.0000000000000D+00
188  1.8700000000000D+00  0.0000000000000D+00  0.0000000000000D+00
189  1.8800000000000D+00  0.0000000000000D+00  0.0000000000000D+00
190  1.8900000000000D+00  0.0000000000000D+00  0.0000000000000D+00
191  1.9000000000000D+00  0.0000000000000D+00  0.0000000000000D+00
192  1.9100000000000D+00  0.0000000000000D+00  0.0000000000000D+00
193  1.9200000000000D+00  0.0000000000000D+00  0.0000000000000D+00
194  1.9300000000000D+00  0.0000000000000D+00  0.0000000000000D+00
195  1.9400000000000D+00  0.0000000000000D+00  0.0000000000000D+00
196  1.9500000000000D+00  0.0000000000000D+00  0.0000000000000D+00
197  1.9600000000000D+00  0.0000000000000D+00  0.0000000000000D+00
198  1.9700000000000D+00  0.0000000000000D+00  0.0000000000000D+00
199  1.9800000000000D+00  0.0000000000000D+00  0.0000000000000D+00
200  1.9900000000000D+00  0.0000000000000D+00  0.0000000000000D+00
201  2.0000000000000D+00  0.0000000000000D+00  0.0000000000000D+00
202  2.0100000000000D+00  0.0000000000000D+00  0.0000000000000D+00
203  2.0200000000000D+00  0.0000000000000D+00  0.0000000000000D+00
204  2.0300000000000D+00  0.0000000000000D+00  0.0000000000000D+00
205  2.0400000000000D+00  0.0000000000000D+00  0.0000000000000D+00
206  2.0500000000000D+00  0.0000000000000D+00  0.0000000000000D+00
207  2.0600000000000D+00  0.0000000000000D+00  0.0000000000000D+00
208  2.0700000000000D+00  0.0000000000000D+00  0.0000000000000D+00
209  2.0800000000000D+00  0.0000000000000D+00  0.0000000000000D+00
210  2.0900000000000D+00  0.0000000000000D+00  0.0000000000000D+00
211  2.1000000000000D+00  0.0000000000000D+00  0.0000000000000D+00
212  2.1100000000000D+00  0.0000000000000D+00  0.0000000000000D+00
213  2.1200000000000D+00  0.0000000000000D+00  0.0000000000000D+00
214  2.1300000000000D+00  0.0000000000000D+00  0.0000000000000D+00
215  2.1400000000000D+00  0.0000000000000D+00  0.0000000000000D+00
216  2.1500000000000D+00  0.0000000000000D+00  0.0000000000000D+00
217  2.1600000000000D+00  0.0000000000000D+00  0.0000000000000D+00
218  2.1700000000000D+00  0.0000000000000D+00  0.0000000000000D+00
219  2.1800000000000D+00  0.0000000000000D+00  0.0000000000000D+00
220  2.1900000000000D+00  0.0000000000000D+00  0.0000000000000D+00
221  2.2000000000000D+00  0.0000000000000D+00  0.0000000000000D+00
222  2.2100000000000D+00  0.0000000000000D+00  0.0000000000000D+00
223  2.2200000000000D+00  0.0000000000000D+00  0.0000000000000D+00
224  2.2300000000000D+00  0.0000000000000D+00  0.0000000000000D+00
225  2.2400000000000D+00  0.0000000000000D+00  0.0000000000000D+00
226  2.2500000000000D+00  0.0000000000000D+00  0.0000000000000D+00
227  2.2600000000000D+00  0.0000000000000D+00  0.0000000000000D+00
228  2.2700000000000D+00  0.0000000000000D+00  0.0000000000000D+00
229  2.2800000000000D+00  0.0000000000000D+00  0.0000000000000D+00
230  2.2900000000000D+00  0.0000000000000D+00  0.0000000000000D+00
231  2.3000000000000D+00  0.0000000000000D+00  0.0000000000000D+00
232  2.3100000000000D+00  0.0000000000000D+00  0.0000000000000D+00
233  2.3200000000000D+00  0.0000000000000D+00  0.0000000000000D+00
234  2.3300000000000D+00  0.0000000000000D+00  0.0000000000000D+00
235  2.3400000000000D+00  0.0000000000000D+00  0.0000000000000D+00
236  2.3500000000000D+00  0.0000000000000D+00  0.0000000000000D+00
237  2.3600000000000D+00  0.0000000000000D+00  0.0000000000000D+00
238  2.3700000000000D+00  0.0000000000000D+00  0.0000000000000D+00
239  2.3800000000000D+00  0.0000000000000D+00  0.0000000000000D+00
240  2.3900000000000D+00  0.0000000000000D+00  0.0000000000000D+00
241  2.4000000000000D+00  0.0000000000000D+00  0.0000000000000D+00
242  2.4100000000000D+00  0.0000000000000D+00  0.0000000000000D+00
243  2.4200000000000D+00  0.0000000000000D+00  0.0000000000000D+00
244  2.4300000000000D+00  0.0000000000000D+00  0.0000000000000D+00
245  2.4400000000000D+00  0.0000000000000D+00  0.0000000000000D+00
246  2.4500000000000D+00  0.0000000000000D+00  0.0000000000000D+00
247  2.4600000000000D+00  0.0000000000000D+00  0.0000000000000D+00
248  2.4700000000000D+00  0.0000000000000D+00  0.0000000000000D+00
249  2.4800000000000D+00  0.0000000000000D+00  0.0000000000000D+00
250  2.4900000000000D+00  0.0000000000000D+00  0.0000000000000D+00
251  2.5000000000000D+00  0.0000000000000D+00  0.0000000000000D+00
252  2.5100000000000D+00  0.0000000000000D+00  0.0000000000000D+00
253  2.5200000000000D+00  0.0000000000000D+00  0.0000000000000D+00
254  2.5300000000000D+00  0.0000000000000D+00  0.0000000000000D+00
255  2.5400000000000D+00  0.0000000000000D+00  0.0000000000000D+00
256  2.5500000000000D+00  0.0000000000000D+00  0.0000000000000D+00
257  2.5600000000000D+00  0.0000000000000D+00  0.0000000000000D+00
258  2.5700000000000D+00  0.0000000000000D+00  0.0000000000000D+00
259  2.5800000000000D+00  0.0000000000000D+00  0.0000000000000D+00
260  2.5900000000000D+00  0.0000000000000D+00  0.0000000000000D+00
261  2.6000000000000D+00  0.0000000000000D+00  0.0000000000000D+00
262  2.6100000000000D+00  0.0000000000000D+00  0.0000000000000D+00
263  2.6200000000000D+00  0.0000000000000D+00  0.0000000000000D+00
264  2.6300000000000D+00  0.0000000000000D+00  0.0000000000000D+00
265  2.6400000000000D+00  0.0000000000000D+00  0.0000000000000D+00
266  2.6500000000000D+00  0.0000000000000D+00  0.0000000000000D+00
267  2.6600000000000D+00  0.0000000000000D+00  0.0000000000000D+00
268  2.6700000000000D+00  0.0000000000000D+00  0.0000000000000D+00
269  2.6800000000000D+00  0.0000000000000D+00  0.0000000000000D+00
270  2.6900000000000D+00  0.0000000000000D+00  0.0000000000000D+00
271  2.7000000000000D+00  0.0000000000000D+00  0.0000000000000D+00
272  2.7100000000000D+00  0.0000000000000D+00  0.0000000000000D+00
273  2.7200000000000D+00  0.0000000000000D+00  0.0000000000000D+00
274  2.7300000000000D+00  0.0000000000000D+00  0.0000000000000D+00
275  2.7400000000000D+00  0.0000000000000D+00  0.0000000000000D+00
276  2.7500000000000D+00  0.0000000000000D+00  0.0000000000000D+00
277  2.7600000000000D+00  0.0000000000000D+00  0.0000000000000D+00
278  2.7700000000000D+00  0.0000000000000D+00  0.0000000000000D+00
279  2.7800000000000D+00  0.0000000000000D+00  0.0000000000000D+00
280  2.7900000000000D+00  0.0000000000000D+00  0.0000000000000D+00
281  2.8000000000000D+00  0.0000000000000D+00  0.0000000000000D+00
282  2.8100000000000D+00  0.0000000000000D+00  0.0000000000000D+00
283  2.8200000000000D+00  0.0000000000000D+00  0.0000000000000D+00
284  2.8300000000000D+00  0.0000000000000D+00  0.0000000000000D+00
285  2.8400000000000D+00  0.0000000000000D+00  0.0000000000000D+00
286  2.8500000000000D+00  0.0000000000000D+00  0.0000000000000D+00
287  2.8600000000000D+00  0.0000000000000D+00  0.0000000000000D+00
288  2.8700000000000D+00  0.0000000000000D+00  0.0000000000000D+00
289  2.8800000000000D+00  0.0000000000000D+00  0.0000000000000D+00
290  2.8900000000000D+00  0.0000000000000D+00  0.0000000000000D+00
291  2.9000000000000D+00  0.0000000000000D+00  0.0000000000000D+00
292  2.9100000000000D+00  0.0000000000000D+00  0.0000000000000D+00
293  2.9200000000000D+00  0.0000000000000D+00  0.0000000000000D+00
294  2.9300000000000D+00  0.0000000000000D+00  0.0000000000000D+00
295  2.9400000000000D+00  0.0000000000000D+00  0.0000000000000D+00
296  2.9500000000000D+00  0.0000000000000D+00  0.0000000000000D+00
297  2.9600000000000D+00  0.0000000000000D+00  0.0000000000000D+00
298  2.9700000000000D+00  0.0000000000000D+00  0.0000000000000D+00
299  2.9800000000000D+00  0.0000000000000D+00  0.0000000000000D+00
300  2.9900000000000D+00  0.0000000000000D+00  0.0000000000000D+00
301  3.0000000000000D+00  0.0000000000000D+00  0.0000000000000D+00
302  3.0100000000000D+00  0.0000000000000D+00  0.0000000000000D+00
303  3.0200000000000D+00  0.0000000000000D+00  0.0000000000000D+00
304  3.0300000000000D+00  0.0000000000000D+00  0.0000000000000D+00
305  3.0400000000000D+00  0.0000000000000D+00  0.0000000000000D+00
306  3.0500000000000D+00  0.0000000000000D+00  0.0000000000000D+00
307  3.0600000000000D+00  0.0000000000000D+00  0.0000000000000D+00
308  3.0700000000000D+00  0.0000000000000D+00  0.0000000000000D+00
309  3.0800000000000D+00  0.0000000000000D+00  0.0000000000000D+00
310  3.0900000000000D+00  0.0000000000000D+00  0.0000000000000D+00
311  3.1000000000000D+00  0.0000000000000D+00  0.0000000000000D+00
312  3.1100000000000D+00  0.0000000000000D+00  0.0000000000000D+00
313  3.1200000000000D+00  0.0000000000000D+00  0.0000000000000D+00
314  3.1300000000000D+00  0.0000000000000D+00  0.0000000000000D+00
315  3.1400000000000D+00  0.0000000000000D+00  0.0000000000000D+00
316  3.1500000000000D+00  0.0000000000000D+00  0.0000000000000D+00
317  3.1600000000000D+00  0.0000000000000D+00  0.0000000000000D+00
318  3.1700000000000D+00  0.0000000000000D+00  0.0000000000000D+00
319  3.1800000000000D+00  0.0000000000000D+00  0.0000000000000D+00
320  3.1900000000000D+00  0.0000000000000D+00  0.0000000000000D+00
321  3.2000000000000D+00  0.0000000000000D+00  0.0000000000000D+00
322  3.2100000000000D+00  0.0000000000000D+00  0.0000000000000D+00
323  3.2200000000000D+00  0.0000000000000D+00  0.0000000000000D+00
324  3.2300000000000D+00  0.0000000000000D+00  0.0000000000000D+00
325  3.2400000000000D+00  0.0000000000000D+00  0.0000000000000D+00
326  3.2500000000000D+00  0.0000000000000D+00  0.0000000000000D+00
327  3.2600000000000D+00  0.0000000000000D+00  0.0000000000000D+00
328  3.2700000000000D+00  0.0000000000000D+00  0.0000000000000D+00
329  3.2800000000000D+00  0.0000000000000D+00  0.0000000000000D+00
330  3.2900000000000D+00  0.0000000000000D+00  0.0000000000000D+00
331  3.3000000000000D+00  0.0000000000000D+00  0.0000000000000D+00
332  3.3100000000000D+00  0.0000000000000D+00  0.0000000000000D+00
333  3.3200000000000D+00  0.0000000000000D+00  0.0000000000000D+00
334  3.3300000000000D+00  0.0000000000000D+00  0.0000000000000D+00
335  3.3400000000000D+00  0.0000000000000D+00  0.0000000000000D+00
336  3.3500000000000D+00  0.0000000000000D+00  0.0000000000000D+00
337  3.3600000000000D+00  0.0000000000000D+00  0.0000000000000D+00
338  3.3700000000000D+00  0.0000000000000D+00  0.0000000000000D+00
339  3.3800000000000D+00  0.0000000000000D+00  0.0000000000000D+00
340  3.3900000000000D+00  0.0000000000000D+00  0.0000000000000D+00
341  3.4000000000000D+00  0.0000000000000D+00  0.0000000000000D+00
342  3.4100000000000D+00  0.0000000000000D+00  0.0000000000000D+00
343  3.4200000000000D+00  0.0000000000000D+00  0.0000000000000D+00
344  3.4300000000000D+00  0.0000000000000D+00  0.0000000000000D+00
345  3.4400000000000D+00  0.0000000000000D+00  0.0000000000000D+00
346  3.4500000000000D+00  0.0000000000000D+00  0.0000000000000D+00
347  3.4600000000000D+00  0.0000000000000D+00  0.0000000000000D+00
348  3.4700000000000D+00  0.0000000000000D+00  0.0000000000000D+00
349  3.4800000000000D+00  0.0000000000000D+00  0.0000000000000D+00
350  3.4900000000000D+00  0.0000000000000D+00  0.0000000000000D+00
351  3.5000000000000D+00  0.0000000000000D+00  0.0000000000000D+00
352  3.5100000000000D+00  0.0000000000000D+00  0.0000000000000D+00
353  3.5200000000000D+00  0.0000000000000D+00  0.0000000000000D+00
354  3.5300000000000D+00  0.0000000000000D+00  0.0000000000000D+00
355  3.5400000000000D+00  0.0000000000000D+00  0.0000000000000D+00
356  3.5500000000000D+00  0.0000000000000D+00  0.0000000000000D+00
357  3.5600000000000D+00  0.0000000000000D+00  0.0000000000000D+00
358  3.5700000000000D+00  0.0000000000000D+00  0.0000000000000D+00
359  3.5800000000000D+00  0.0000000000000D+00  0.0000000000000D+00
360  3.5900000000000D+00  0.0000000000000D+00  0.0000000000000D+00
361  3.6000000000000D+00  0.0000000000000D+00  0.0000000000000D+00
362  3.6100000000000D+00  0.0000000000000D+00  0.0000000000000D+00
363  3.6200000000000D+00  0.0000000000000D+00  0.0000000000000D+00
364  3.6300000000000D+00  0.0000000000000D+00  0.0000000000000D+00
365  3.6400000000000D+00  0.0000000000000D+00  0.0000000000000D+00
366  3.6500000000000D+00  0.0000000000000D+00  0.0000000000000D+00
367  3.6600000000000D+00  0.0000000000000D+00  0.0000000000000D+00
368  3.6700000000000D+00  0.0000000000000D+00  0.0000000000000D+00
369  3.6800000000000D+00  0.0000000000000D+00  0.0000000000000D+00
370  3.6900000000000D+00  0.0000000000000D+00  0.0000000000000D+00
371  3.7000000000000D+00  0.0000000000000D+00  0.0000000000000D+00
372  3.7100000000000D+00  0.0000000000000D+00  0.0000000000000D+00
373  3.7200000000000D+00  0.0000000000000D+00  0.0000000000000D+00
374  3.7300000000000D+00  0.0000000000000D+00  0.0000000000000D+00
375  3.7400000000000D+00  0.0000000000000D+00  0.0000000000000D+00
376  3.7500000000000D+00  0.0000000000000D+00  0.0000000000000D+00
377  3.7600000000000D+00  0.0000000000000D+00  0.0000000000000D+00
378  3.7700000000000D+00  0.0000000000000D+00  0.0000000000000D+00
379  3.7800000000000D+00  0.0000000000000D+00  0.0000000000000D+00
380  3.7900000000000D+00  0.0000000000000D+00  0.0000000000000D+00
381  3.8000000000000D+00  0.0000000000000D+00  0.0000000000000D+00
382  3.8100000000000D+00  0.0000000000000D+00  0.0000000000000D+00
383  3.8200000000000D+00  0.0000000000000D+00  0.0000000000000D+00
384  3.8300000000000D+00  0.0000000000000D+00  0.0000000000000D+00
385  3.8400000000000D+00  0.0000000000000D+00  0.0000000000000D+00
386  3.8500000000000D+00  0.0000000000000D+00  0.0000000000000D+00
387  3.8600000000000D+00  0.0000000000000D+00  0.0000000000000D+00
388  3.8700000000000D+00  0.0000000000000D+00  0.0000000000000D+00
389  3.8800000000000D+00  0.0000000000000D+00  0.0000000000000D+00
390  3.8900000000000D+00  0.0000000000000D+00  0.0000000000000D+00
391  3.9000000000000D+00  0.0000000000000D+00  0.0000000000000D+00
392  3.9100000000000D+00  0.0000000000000D+00  0.0000000000000D+00
393  3.9200000000000D+00  0.0000000000000D+00  0.0000000000000D+00
394  3.9300000000000D+00  0.0000000000000D+00  0.0000000000000D+00
395  3.9400000000000D+00  0.0000000000000D+00  0.0000000000000D+00
396  3.9500000000000D+00  0.0000000000000D+00  0.0000000000000D+00
397  3.9600000000000D+00  0.0000000000000D+00  0.0000000000000D+00
398  3.9700000000000D+00  0.0000000000000D+00  0.0000000000000D+00
399  3.9800000000000D+00  0.0000000000000D+00  0.0000000000000D+00
400  3.9900000000000D+00  0.0000000000000D+00  0.0000000000000D+00
401  4.0000000000000D+00  0.0000000000000D+00  0.0000000000000D+00
402  4.0100000000000D+00  0.0000000000000D+00  0.0000000000000D+00
403  4.0200000000000D+00  0.0000000000000D+00  0.0000000000000D+00
404  4.0300000000000D+00  0.0000000000000D+00  0.0000000000000D+00
405  4.0400000000000D+00  0.0000000000000D+00  0.0000000000000D+00
406  4.0500000000000D+00  0.0000000000000D+00  0.0000000000000D+00
407  4.0600000000000D+00  0.0000000000000D+00  0.0000000000000D+00
408  4.0700000000000D+00  0.0000000000000D+00  0.0000000000000D+00
409  4.0800000000000D+00  0.0000000000000D+00  0.0000000000000D+00
410  4.0900000000000D+00  0.0000000000000D+00  0.0000000000000D+00
411  4.1000000000000D+00  0.0000000000000D+00  0.0000000000000D+00
412  4.1100000000000D+00  0.0000000000000D+00  0.0000000000000D+00
413  4.1200000000000D+00  0.0000000000000D+00  0.0000000000000D+00
414  4.1300000000000D+00  0.0000000000000D+00  0.0000000000000D+00
415  4.1400000000000D+00  0.0000000000000D+00  0.0000000000000D+00
416  4.1500000000000D+00  0.0000000000000D+00  0.0000000000000D+00
417  4.1600000000000D+00  0.0000000000000D+00  0.0000000000000D+00
418  4.1700000000000D+00  0.0000000000000D+00  0.0000000000000D+00
419  4.1800000000000D+00  0.0000000000000D+00  0.0000000000000D+00
420  4.1900000000000D+00  0.0000000000000D+00  0.0000000000000D+00
421  4.2000000000000D+00  0.0000000000000D+00  0.0000000000000D+00
422  4.2100000000000D+00  0.0000000000000D+00  0.0000000000000D+00
423  4.2200000000000D+00  0.0000000000000D+00  0.0000000000000D+00
424  4.2300000000000D+00  0.0000000000000D+00  0.0000000000000D+00
425  4.2400000000000D+00  0.0000000000000D+00  0.0000000000000D+00
426  4.2500000000000D+00  0.0000000000000D+00  0.0000000000000D+00
427  4.2600000000000D+00  0.0000000000000D+00  0.0000000000000D+00
428  4.2700000000000D+00  0.0000000000000D+00  0.0000000000000D+00
429  4.2800000000000D+00  0.0000000000000D+00  0.0000000000000D+00
430  4.2900000000000D+00  0.0000000000000D+00  0.0000000000000D+00
431  4.3000000000000D+00  0.0000000000000D+00  0.0000000000000D+00
432  4.3100000000000D+00  0.0000000000000D+00  0.0000000000000D+00
433  4.3200000000000D+00  0.0000000000000D+00  0.0000000000000D+00
434  4.3300000000000D+00  0.0000000000000D+00  0.0000000000000D+00
435  4.3400000000000D+00  0.0000000000000D+00  0.0000000000000D+00
436  4.3500000000000D+00  0.0000000000000D+00  0.0000000000000D+00
437  4.3600000000000D+00  0.0000000000000D+00  0.0000000000000D+00
438  4.3700000000000D+00  0.0000000000000D+00  0.0000000000000D+00
439  4.3800000000000D+00  0.0000000000000D+00  0.0000000000000D+00
440  4.3900000000000D+00  0.0000000000000D+00  0.0000000000000D+00
441  4.4000000000000D+00  0.0000000000000D+00  0.0000000000000D+00
442  4.4100000000000D+00  0.0000000000000D+00  0.0000000000000D+00
443  4.4200000000000D+00  0.0000000000000D+00  0.0000000000000D+00