Hf    ONCVPSP-3.2.3.1  r_core=   1.71613   1.71613   1.71613   2.42541
72.0000     12.0000      170501    zatom,zion,pspd
8      11   3     4   600     0    pspcod,pspxc,lmax,lloc,mmax,r2well
5.99000000  5.40000000  0.00000000    rchrg fchrg qchrg
2     2     2     2     0    nproj
1     1           extension_switch
0                         5.7514904667948D+00 -6.3138325594336D-01
1  0.0000000000000D+00  6.3985761133978D-11  1.0228546343249D-09
2  1.0000000000000D-02  5.0609205270468D-02 -5.5952781626332D-02
3  2.0000000000000D-02  1.0116235296025D-01 -1.1159242421059D-01
4  3.0000000000000D-02  1.5160334900061D-01 -1.6660830966982D-01
5  4.0000000000000D-02  2.0187602776467D-01 -2.2069483669110D-01
6  5.0000000000000D-02  2.5192411981710D-01 -2.7355386650816D-01
7  6.0000000000000D-02  3.0169122385230D-01 -3.2489709428027D-01
8  7.0000000000000D-02  3.5112078414165D-01 -3.7444832248594D-01
9  8.0000000000000D-02  4.0015607474624D-01 -4.2194561376725D-01
10  9.0000000000000D-02  4.4874019167265D-01 -4.6714330191916D-01
11  1.0000000000000D-01  4.9681605405692D-01 -5.0981384120000D-01
12  1.1000000000000D-01  5.4432641535591D-01 -5.4974947582840D-01
13  1.2000000000000D-01  5.9121388540791D-01 -5.8676371341181D-01
14  1.3000000000000D-01  6.3742096409562D-01 -6.2069258810195D-01
15  1.4000000000000D-01  6.8289008720755D-01 -6.5139570147296D-01
16  1.5000000000000D-01  7.2756368494759D-01 -6.7875703144487D-01
17  1.6000000000000D-01  7.7138425339072D-01 -7.0268550200524D-01
18  1.7000000000000D-01  8.1429443902585D-01 -7.2311530898948D-01
19  1.8000000000000D-01  8.5623713636627D-01 -7.4000599973958D-01
20  1.9000000000000D-01  8.9715559844644D-01 -7.5334230704558D-01
21  2.0000000000000D-01  9.3699355986218D-01 -7.6313374035622D-01
22  2.1000000000000D-01  9.7569537185129D-01 -7.6941393979910D-01
23  2.2000000000000D-01  1.0132061487549D+00 -7.7223980104792D-01
24  2.3000000000000D-01  1.0494719250491D+00 -7.7169038149068D-01
25  2.4000000000000D-01  1.0844398219907D+00 -7.6786560046060D-01
26  2.5000000000000D-01  1.1180582227869D+00 -7.6088474846795D-01
27  2.6000000000000D-01  1.1502769550683D+00 -7.5088482239231D-01
28  2.7000000000000D-01  1.1810474793336D+00 -7.3801870543841D-01
29  2.8000000000000D-01  1.2103230819288D+00 -7.2245321230723D-01
30  2.9000000000000D-01  1.2380590710340D+00 -7.0436702146585D-01
31  3.0000000000000D-01  1.2642129740588D+00 -6.8394851760249D-01
32  3.1000000000000D-01  1.2887447347840D+00 -6.6139356831129D-01
33  3.2000000000000D-01  1.3116169085487D+00 -6.3690325975458D-01
34  3.3000000000000D-01  1.3327948537518D+00 -6.1068161649071D-01
35  3.4000000000000D-01  1.3522469179299D+00 -5.8293333082580D-01
36  3.5000000000000D-01  1.3699446166813D+00 -5.5386152694732D-01
37  3.6000000000000D-01  1.3858628037320D+00 -5.2366558472356D-01
38  3.7000000000000D-01  1.3999798304821D+00 -4.9253904741055D-01
39  3.8000000000000D-01  1.4122776934310D+00 -4.6066763660166D-01
40  3.9000000000000D-01  1.4227421679587D+00 -4.2822739659287D-01
41  4.0000000000000D-01  1.4313629270303D+00 -3.9538298893014D-01
42  4.1000000000000D-01  1.4381336435007D+00 -3.6228615626785D-01
43  4.2000000000000D-01  1.4430520748191D+00 -3.2907437281576D-01
44  4.3000000000000D-01  1.4461201290655D+00 -2.9586969660295D-01
45  4.4000000000000D-01  1.4473439114020D+00 -2.6277783656413D-01
46  4.5000000000000D-01  1.4467337501767D+00 -2.2988744507683D-01
47  4.6000000000000D-01  1.4443042020858D+00 -1.9726964407298D-01
48  4.7000000000000D-01  1.4400740359725D+00 -1.6497779024093D-01
49  4.8000000000000D-01  1.4340661950233D+00 -1.3304748215058D-01
50  4.9000000000000D-01  1.4263077373021D+00 -1.0149680940488D-01
51  5.0000000000000D-01  1.4168297547533D+00 -7.0326841171109D-02
52  5.1000000000000D-01  1.4056672709862D+00 -3.9522348708396D-02
53  5.2000000000000D-01  1.3928591183432D+00 -9.0527538108633D-03
54  5.3000000000000D-01  1.3784477949303D+00  2.1126707543953D-02
55  5.4000000000000D-01  1.3624793024699D+00  5.1073619580409D-02
56  5.5000000000000D-01  1.3450029660019D+00  8.0856834786618D-02
57  5.6000000000000D-01  1.3260712366214D+00  1.1055475354960D-01
58  5.7000000000000D-01  1.3057394785923D+00  1.4025345532914D-01
59  5.8000000000000D-01  1.2840657423137D+00  1.7004470321273D-01
60  5.9000000000000D-01  1.2611105247425D+00  2.0002384533577D-01
61  6.0000000000000D-01  1.2369365189874D+00  2.3028763806114D-01
62  6.1000000000000D-01  1.2116083548827D+00  2.6093201695101D-01
63  6.2000000000000D-01  1.1851923324307D+00  2.9204984243630D-01
64  6.3000000000000D-01  1.1577561500617D+00  3.2372864766745D-01
65  6.4000000000000D-01  1.1293686297034D+00  3.5604841631806D-01
66  6.5000000000000D-01  1.1000994406756D+00  3.8907941809292D-01
67  6.6000000000000D-01  1.0700188244288D+00  4.2288012937417D-01
68  6.7000000000000D-01  1.0391973221352D+00  4.5749526581009D-01
69  6.8000000000000D-01  1.0077055071001D+00  4.9295395272375D-01
70  6.9000000000000D-01  9.7561372391651D-01  5.2926805800058D-01
71  7.0000000000000D-01  9.4299183620726D-01  5.6643071060662D-01
72  7.1000000000000D-01  9.0990898471563D-01  6.0441502611239D-01
73  7.2000000000000D-01  8.7643335739551D-01  6.4317305856808D-01
74  7.3000000000000D-01  8.4263197303162D-01  6.8263499580406D-01
75  7.4000000000000D-01  8.0857047978334D-01  7.2270861276120D-01
76  7.5000000000000D-01  7.7431296989439D-01  7.6327899476753D-01
77  7.6000000000000D-01  7.3992181164869D-01  8.0420853985432D-01
78  7.7000000000000D-01  7.0545749947954D-01  8.4533724622951D-01
79  7.8000000000000D-01  6.7097852295755D-01  8.8648328795105D-01
80  7.9000000000000D-01  6.3654125519449D-01  9.2744387869241D-01
81  8.0000000000000D-01  6.0219986100634D-01  9.6799642030231D-01
82  8.1000000000000D-01  5.6800622498277D-01  1.0078999296614D+00
83  8.2000000000000D-01  5.3400989941245D-01  1.0468967341669D+00
84  8.3000000000000D-01  5.0025807181760D-01  1.0847144230674D+00
85  8.4000000000000D-01  4.6679555165733D-01  1.1210680388456D+00
86  8.5000000000000D-01  4.3366477557139D-01  1.1556624899635D+00
87  8.6000000000000D-01  4.0090583035480D-01  1.1881951635512D+00
88  8.7000000000000D-01  3.6855649268118D-01  1.2183587140786D+00
89  8.8000000000000D-01  3.3665228443145D-01  1.2458440017316D+00
90  8.9000000000000D-01  3.0522654233548D-01  1.2703431521385D+00
91  9.0000000000000D-01  2.7431050049893D-01  1.2915527072886D+00
92  9.1000000000000D-01  2.4393338426890D-01  1.3091768359837D+00
93  9.2000000000000D-01  2.1412251378865D-01  1.3229305709595D+00
94  9.3000000000000D-01  1.8490341550751D-01  1.3325430389561D+00
95  9.4000000000000D-01  1.5629993984627D-01  1.3377606494949D+00
96  9.5000000000000D-01  1.2833438317237D-01  1.3383502079494D+00
97  9.6000000000000D-01  1.0102761221366D-01  1.3341019186918D+00
98  9.7000000000000D-01  7.4399189033874D-02  1.3248322446474D+00
99  9.8000000000000D-01  4.8467494709008D-02  1.3103865905054D+00
100  9.9000000000000D-01  2.3249849879264D-02  1.2906417780937D+00
101  1.0000000000000D+00 -1.2373695902977D-03  1.2655082840852D+00
102  1.0100000000000D+00 -2.4978623534868D-02  1.2349322120603D+00
103  1.0200000000000D+00 -4.7959106596213D-02  1.1988969733115D+00
104  1.0300000000000D+00 -7.0164656993819D-02  1.1574246532960D+00
105  1.0400000000000D+00 -9.1581676314176D-02  1.1105770434858D+00
106  1.0500000000000D+00 -1.1219706152672D-01  1.0584563214301D+00
107  1.0600000000000D+00 -1.3199815026595D-01  1.0012053653263D+00
108  1.0700000000000D+00 -1.5097268026805D-01  9.3900769247083D-01
109  1.0800000000000D+00 -1.6910876364124D-01  8.7208701512907D-01
110  1.0900000000000D+00 -1.8639487647452D-01  8.0070641078113D-01
111  1.1000000000000D+00 -2.0281986408381D-01  7.2516710769253D-01
112  1.1100000000000D+00 -2.1837296198737D-01  6.4580689071886D-01
113  1.1200000000000D+00 -2.3304383252078D-01  5.6299813570727D-01
114  1.1300000000000D+00 -2.4682261675784D-01  4.7714548542206D-01
115  1.1400000000000D+00 -2.5970000123071D-01  3.8868318313377D-01
116  1.1500000000000D+00 -2.7166729871861D-01  2.9807208411541D-01
117  1.1600000000000D+00 -2.8271654222791D-01  2.0579636797311D-01
118  1.1700000000000D+00 -2.9284059103810D-01  1.1235997920085D-01
119  1.1800000000000D+00 -3.0203324755653D-01  1.8282825671612D-02
120  1.1900000000000D+00 -3.1028938356025D-01 -7.5903232337411D-02
121  1.2000000000000D+00 -3.1760507425894D-01 -1.6965856746382D-01
122  1.2100000000000D+00 -3.2397773845954D-01 -2.6244010722571D-01
123  1.2200000000000D+00 -3.2940628302036D-01 -3.5370575345825D-01
124  1.2300000000000D+00 -3.3389124971430D-01 -4.4291885888059D-01
125  1.2400000000000D+00 -3.3743496248797D-01 -5.2955271845121D-01
126  1.2500000000000D+00 -3.4004167310692D-01 -6.1309503343750D-01
127  1.2600000000000D+00 -3.4171770313187D-01 -6.9305230544785D-01
128  1.2700000000000D+00 -3.4247158014218D-01 -7.6895411759260D-01
129  1.2800000000000D+00 -3.4231416618877D-01 -8.4035726146395D-01
130  1.2900000000000D+00 -3.4125877644654D-01 -9.0684966848948D-01
131  1.3000000000000D+00 -3.3932128610774D-01 -9.6805410603456D-01
132  1.3100000000000D+00 -3.3652022372305D-01 -1.0236316020189D+00
133  1.3200000000000D+00 -3.3287684914602D-01 -1.0732845608395D+00
134  1.3300000000000D+00 -3.2841521448057D-01 -1.1167595385375D+00
135  1.3400000000000D+00 -3.2316220666536D-01 -1.1538496497146D+00
136  1.3500000000000D+00 -3.1714757013920D-01 -1.1843965750490D+00
137  1.3600000000000D+00 -3.1040390867528D-01 -1.2082921510612D+00
138  1.3700000000000D+00 -3.0296666539218D-01 -1.2254795220788D+00
139  1.3800000000000D+00 -2.9487408003221D-01 -1.2359538361268D+00
140  1.3900000000000D+00 -2.8616712332690D-01 -1.2397624805727D+00
141  1.4000000000000D+00 -2.7688940782952D-01 -1.2370048448345D+00
142  1.4100000000000D+00 -2.6708707532310D-01 -1.2278316115942D+00
143  1.4200000000000D+00 -2.5680866113074D-01 -1.2124435820329D+00
144  1.4300000000000D+00 -2.4610493531831D-01 -1.1910900342616D+00
145  1.4400000000000D+00 -2.3502872204014D-01 -1.1640666381315D+00
146  1.4500000000000D+00 -2.2363469738597D-01 -1.1317129326076D+00
147  1.4600000000000D+00 -2.1197916717975D-01 -1.0944093926894D+00
148  1.4700000000000D+00 -2.0011982606732D-01 -1.0525741106286D+00
149  1.4800000000000D+00 -1.8811549913047D-01 -1.0066591143913D+00
150  1.4900000000000D+00 -1.7602586836473D-01 -9.5714636700304D-01
151  1.5000000000000D+00 -1.6391118522913D-01 -9.0454346918011D-01
152  1.5100000000000D+00 -1.5183197206286D-01 -8.4937911748768D-01
153  1.5200000000000D+00 -1.3984871407608D-01 -7.9219834982121D-01
154  1.5300000000000D+00 -1.2802154461250D-01 -7.3355762860667D-01
155  1.5400000000000D+00 -1.1640992599282D-01 -6.7401980481814D-01
156  1.5500000000000D+00 -1.0507232853936D-01 -6.1414901137274D-01
157  1.5600000000000D+00 -9.4065910368030D-02 -5.5450553420393D-01
158  1.5700000000000D+00 -8.3446200643284D-02 -4.9564071133588D-01
159  1.5800000000000D+00 -7.3266788755274D-02 -4.3809190592486D-01
160  1.5900000000000D+00 -6.3579022376479D-02 -3.8237760844795D-01
161  1.6000000000000D+00 -5.4431716474310D-02 -3.2899270690431D-01
162  1.6100000000000D+00 -4.5870876396785D-02 -2.7840398318042D-01
163  1.6200000000000D+00 -3.7939436741410D-02 -2.3104586764568D-01
164  1.6300000000000D+00 -3.0677019024056D-02 -1.8731650827135D-01
165  1.6400000000000D+00 -2.4119709558530D-02 -1.4757418078893D-01
166  1.6500000000000D+00 -1.8299860230061D-02 -1.1213408999560D-01
167  1.6600000000000D+00 -1.3248104514780D-02 -8.1279058173436D-02
168  1.6700000000000D+00 -8.9854775214723D-03 -5.5209652399109D-02
169  1.6800000000000D+00 -5.5158860337838D-03 -3.3994306524271D-02
170  1.6900000000000D+00 -2.8812977719632D-03 -1.7916634314710D-02
171  1.7000000000000D+00 -1.1516913338605D-03 -7.4216975453816D-03
172  1.7100000000000D+00 -2.5348895550439D-04 -1.9990357133930D-03
173  1.7200000000000D+00  5.8345880248593D-05 -1.1871002012782D-05
174  1.7300000000000D+00  5.6858370580519D-05  2.0638326067179D-04
175  1.7400000000000D+00 -1.4882158217415D-05 -6.1160768109264D-05
176  1.7500000000000D+00 -2.2296437648756D-05 -9.7233028788829D-05
177  1.7600000000000D+00  1.9107478640987D-06  7.1417625982098D-06
178  1.7700000000000D+00  4.4167867506943D-06  1.7216541829215D-05
179  1.7800000000000D+00  7.1945371481190D-09  3.2715387780673D-07
180  1.7900000000000D+00  3.0595307693562D-08  1.3912463510256D-06
181  1.8000000000000D+00  1.0175172276049D-11  4.6269092770357D-10
182  1.8100000000000D+00  0.0000000000000D+00  0.0000000000000D+00
183  1.8200000000000D+00  0.0000000000000D+00  0.0000000000000D+00
184  1.8300000000000D+00  0.0000000000000D+00  0.0000000000000D+00
185  1.8400000000000D+00  0.0000000000000D+00  0.0000000000000D+00
186  1.8500000000000D+00  0.0000000000000D+00  0.0000000000000D+00
187  1.8600000000000D+00  0.0000000000000D+00  0.0000000000000D+00
188  1.8700000000000D+00  0.0000000000000D+00  0.0000000000000D+00
189  1.8800000000000D+00  0.0000000000000D+00  0.0000000000000D+00
190  1.8900000000000D+00  0.0000000000000D+00  0.0000000000000D+00
191  1.9000000000000D+00  0.0000000000000D+00  0.0000000000000D+00
192  1.9100000000000D+00  0.0000000000000D+00  0.0000000000000D+00
193  1.9200000000000D+00  0.0000000000000D+00  0.0000000000000D+00
194  1.9300000000000D+00  0.0000000000000D+00  0.0000000000000D+00
195  1.9400000000000D+00  0.0000000000000D+00  0.0000000000000D+00
196  1.9500000000000D+00  0.0000000000000D+00  0.0000000000000D+00
197  1.9600000000000D+00  0.0000000000000D+00  0.0000000000000D+00
198  1.9700000000000D+00  0.0000000000000D+00  0.0000000000000D+00
199  1.9800000000000D+00  0.0000000000000D+00  0.0000000000000D+00
200  1.9900000000000D+00  0.0000000000000D+00  0.0000000000000D+00
201  2.0000000000000D+00  0.0000000000000D+00  0.0000000000000D+00
202  2.0100000000000D+00  0.0000000000000D+00  0.0000000000000D+00
203  2.0200000000000D+00  0.0000000000000D+00  0.0000000000000D+00
204  2.0300000000000D+00  0.0000000000000D+00  0.0000000000000D+00
205  2.0400000000000D+00  0.0000000000000D+00  0.0000000000000D+00
206  2.0500000000000D+00  0.0000000000000D+00  0.0000000000000D+00
207  2.0600000000000D+00  0.0000000000000D+00  0.0000000000000D+00
208  2.0700000000000D+00  0.0000000000000D+00  0.0000000000000D+00
209  2.0800000000000D+00  0.0000000000000D+00  0.0000000000000D+00
210  2.0900000000000D+00  0.0000000000000D+00  0.0000000000000D+00
211  2.1000000000000D+00  0.0000000000000D+00  0.0000000000000D+00
212  2.1100000000000D+00  0.0000000000000D+00  0.0000000000000D+00
213  2.1200000000000D+00  0.0000000000000D+00  0.0000000000000D+00
214  2.1300000000000D+00  0.0000000000000D+00  0.0000000000000D+00
215  2.1400000000000D+00  0.0000000000000D+00  0.0000000000000D+00
216  2.1500000000000D+00  0.0000000000000D+00  0.0000000000000D+00
217  2.1600000000000D+00  0.0000000000000D+00  0.0000000000000D+00
218  2.1700000000000D+00  0.0000000000000D+00  0.0000000000000D+00
219  2.1800000000000D+00  0.0000000000000D+00  0.0000000000000D+00
220  2.1900000000000D+00  0.0000000000000D+00  0.0000000000000D+00
221  2.2000000000000D+00  0.0000000000000D+00  0.0000000000000D+00
222  2.2100000000000D+00  0.0000000000000D+00  0.0000000000000D+00
223  2.2200000000000D+00  0.0000000000000D+00  0.0000000000000D+00
224  2.2300000000000D+00  0.0000000000000D+00  0.0000000000000D+00
225  2.2400000000000D+00  0.0000000000000D+00  0.0000000000000D+00
226  2.2500000000000D+00  0.0000000000000D+00  0.0000000000000D+00
227  2.2600000000000D+00  0.0000000000000D+00  0.0000000000000D+00
228  2.2700000000000D+00  0.0000000000000D+00  0.0000000000000D+00
229  2.2800000000000D+00  0.0000000000000D+00  0.0000000000000D+00
230  2.2900000000000D+00  0.0000000000000D+00  0.0000000000000D+00
231  2.3000000000000D+00  0.0000000000000D+00  0.0000000000000D+00
232  2.3100000000000D+00  0.0000000000000D+00  0.0000000000000D+00
233  2.3200000000000D+00  0.0000000000000D+00  0.0000000000000D+00
234  2.3300000000000D+00  0.0000000000000D+00  0.0000000000000D+00
235  2.3400000000000D+00  0.0000000000000D+00  0.0000000000000D+00
236  2.3500000000000D+00  0.0000000000000D+00  0.0000000000000D+00
237  2.3600000000000D+00  0.0000000000000D+00  0.0000000000000D+00
238  2.3700000000000D+00  0.0000000000000D+00  0.0000000000000D+00
239  2.3800000000000D+00  0.0000000000000D+00  0.0000000000000D+00
240  2.3900000000000D+00  0.0000000000000D+00  0.0000000000000D+00
241  2.4000000000000D+00  0.0000000000000D+00  0.0000000000000D+00
242  2.4100000000000D+00  0.0000000000000D+00  0.0000000000000D+00
243  2.4200000000000D+00  0.0000000000000D+00  0.0000000000000D+00
244  2.4300000000000D+00  0.0000000000000D+00  0.0000000000000D+00
245  2.4400000000000D+00  0.0000000000000D+00  0.0000000000000D+00
246  2.4500000000000D+00  0.0000000000000D+00  0.0000000000000D+00
247  2.4600000000000D+00  0.0000000000000D+00  0.0000000000000D+00
248  2.4700000000000D+00  0.0000000000000D+00  0.0000000000000D+00
249  2.4800000000000D+00  0.0000000000000D+00  0.0000000000000D+00
250  2.4900000000000D+00  0.0000000000000D+00  0.0000000000000D+00
251  2.5000000000000D+00  0.0000000000000D+00  0.0000000000000D+00
252  2.5100000000000D+00  0.0000000000000D+00  0.0000000000000D+00
253  2.5200000000000D+00  0.0000000000000D+00  0.0000000000000D+00
254  2.5300000000000D+00  0.0000000000000D+00  0.0000000000000D+00
255  2.5400000000000D+00  0.0000000000000D+00  0.0000000000000D+00
256  2.5500000000000D+00  0.0000000000000D+00  0.0000000000000D+00
257  2.5600000000000D+00  0.0000000000000D+00  0.0000000000000D+00
258  2.5700000000000D+00  0.0000000000000D+00  0.0000000000000D+00
259  2.5800000000000D+00  0.0000000000000D+00  0.0000000000000D+00
260  2.5900000000000D+00  0.0000000000000D+00  0.0000000000000D+00
261  2.6000000000000D+00  0.0000000000000D+00  0.0000000000000D+00
262  2.6100000000000D+00  0.0000000000000D+00  0.0000000000000D+00
263  2.6200000000000D+00  0.0000000000000D+00  0.0000000000000D+00
264  2.6300000000000D+00  0.0000000000000D+00  0.0000000000000D+00
265  2.6400000000000D+00  0.0000000000000D+00  0.0000000000000D+00
266  2.6500000000000D+00  0.0000000000000D+00  0.0000000000000D+00
267  2.6600000000000D+00  0.0000000000000D+00  0.0000000000000D+00
268  2.6700000000000D+00  0.0000000000000D+00  0.0000000000000D+00
269  2.6800000000000D+00  0.0000000000000D+00  0.0000000000000D+00
270  2.6900000000000D+00  0.0000000000000D+00  0.0000000000000D+00
271  2.7000000000000D+00  0.0000000000000D+00  0.0000000000000D+00
272  2.7100000000000D+00  0.0000000000000D+00  0.0000000000000D+00
273  2.7200000000000D+00  0.0000000000000D+00  0.0000000000000D+00
274  2.7300000000000D+00  0.0000000000000D+00  0.0000000000000D+00
275  2.7400000000000D+00  0.0000000000000D+00  0.0000000000000D+00
276  2.7500000000000D+00  0.0000000000000D+00  0.0000000000000D+00
277  2.7600000000000D+00  0.0000000000000D+00  0.0000000000000D+00
278  2.7700000000000D+00  0.0000000000000D+00  0.0000000000000D+00
279  2.7800000000000D+00  0.0000000000000D+00  0.0000000000000D+00
280  2.7900000000000D+00  0.0000000000000D+00  0.0000000000000D+00
281  2.8000000000000D+00  0.0000000000000D+00  0.0000000000000D+00
282  2.8100000000000D+00  0.0000000000000D+00  0.0000000000000D+00
283  2.8200000000000D+00  0.0000000000000D+00  0.0000000000000D+00
284  2.8300000000000D+00  0.0000000000000D+00  0.0000000000000D+00
285  2.8400000000000D+00  0.0000000000000D+00  0.0000000000000D+00
286  2.8500000000000D+00  0.0000000000000D+00  0.0000000000000D+00
287  2.8600000000000D+00  0.0000000000000D+00  0.0000000000000D+00
288  2.8700000000000D+00  0.0000000000000D+00  0.0000000000000D+00
289  2.8800000000000D+00  0.0000000000000D+00  0.0000000000000D+00
290  2.8900000000000D+00  0.0000000000000D+00  0.0000000000000D+00
291  2.9000000000000D+00  0.0000000000000D+00  0.0000000000000D+00
292  2.9100000000000D+00  0.0000000000000D+00  0.0000000000000D+00
293  2.9200000000000D+00  0.0000000000000D+00  0.0000000000000D+00
294  2.9300000000000D+00  0.0000000000000D+00  0.0000000000000D+00
295  2.9400000000000D+00  0.0000000000000D+00  0.0000000000000D+00
296  2.9500000000000D+00  0.0000000000000D+00  0.0000000000000D+00
297  2.9600000000000D+00  0.0000000000000D+00  0.0000000000000D+00
298  2.9700000000000D+00  0.0000000000000D+00  0.0000000000000D+00
299  2.9800000000000D+00  0.0000000000000D+00  0.0000000000000D+00
300  2.9900000000000D+00  0.0000000000000D+00  0.0000000000000D+00
301  3.0000000000000D+00  0.0000000000000D+00  0.0000000000000D+00
302  3.0100000000000D+00  0.0000000000000D+00  0.0000000000000D+00
303  3.0200000000000D+00  0.0000000000000D+00  0.0000000000000D+00
304  3.0300000000000D+00  0.0000000000000D+00  0.0000000000000D+00
305  3.0400000000000D+00  0.0000000000000D+00  0.0000000000000D+00
306  3.0500000000000D+00  0.0000000000000D+00  0.0000000000000D+00
307  3.0600000000000D+00  0.0000000000000D+00  0.0000000000000D+00
308  3.0700000000000D+00  0.0000000000000D+00  0.0000000000000D+00
309  3.0800000000000D+00  0.0000000000000D+00  0.0000000000000D+00
310  3.0900000000000D+00  0.0000000000000D+00  0.0000000000000D+00
311  3.1000000000000D+00  0.0000000000000D+00  0.0000000000000D+00
312  3.1100000000000D+00  0.0000000000000D+00  0.0000000000000D+00
313  3.1200000000000D+00  0.0000000000000D+00  0.0000000000000D+00
314  3.1300000000000D+00  0.0000000000000D+00  0.0000000000000D+00
315  3.1400000000000D+00  0.0000000000000D+00  0.0000000000000D+00
316  3.1500000000000D+00  0.0000000000000D+00  0.0000000000000D+00
317  3.1600000000000D+00  0.0000000000000D+00  0.0000000000000D+00
318  3.1700000000000D+00  0.0000000000000D+00  0.0000000000000D+00
319  3.1800000000000D+00  0.0000000000000D+00  0.0000000000000D+00
320  3.1900000000000D+00  0.0000000000000D+00  0.0000000000000D+00
321  3.2000000000000D+00  0.0000000000000D+00  0.0000000000000D+00
322  3.2100000000000D+00  0.0000000000000D+00  0.0000000000000D+00
323  3.2200000000000D+00  0.0000000000000D+00  0.0000000000000D+00
324  3.2300000000000D+00  0.0000000000000D+00  0.0000000000000D+00
325  3.2400000000000D+00  0.0000000000000D+00  0.0000000000000D+00
326  3.2500000000000D+00  0.0000000000000D+00  0.0000000000000D+00
327  3.2600000000000D+00  0.0000000000000D+00  0.0000000000000D+00
328  3.2700000000000D+00  0.0000000000000D+00  0.0000000000000D+00
329  3.2800000000000D+00  0.0000000000000D+00  0.0000000000000D+00
330  3.2900000000000D+00  0.0000000000000D+00  0.0000000000000D+00
331  3.3000000000000D+00  0.0000000000000D+00  0.0000000000000D+00
332  3.3100000000000D+00  0.0000000000000D+00  0.0000000000000D+00
333  3.3200000000000D+00  0.0000000000000D+00  0.0000000000000D+00
334  3.3300000000000D+00  0.0000000000000D+00  0.0000000000000D+00
335  3.3400000000000D+00  0.0000000000000D+00  0.0000000000000D+00
336  3.3500000000000D+00  0.0000000000000D+00  0.0000000000000D+00
337  3.3600000000000D+00  0.0000000000000D+00  0.0000000000000D+00
338  3.3700000000000D+00  0.0000000000000D+00  0.0000000000000D+00
339  3.3800000000000D+00  0.0000000000000D+00  0.0000000000000D+00
340  3.3900000000000D+00  0.0000000000000D+00  0.0000000000000D+00
341  3.4000000000000D+00  0.0000000000000D+00  0.0000000000000D+00
342  3.4100000000000D+00  0.0000000000000D+00  0.0000000000000D+00
343  3.4200000000000D+00  0.0000000000000D+00  0.0000000000000D+00
344  3.4300000000000D+00  0.0000000000000D+00  0.0000000000000D+00
345  3.4400000000000D+00  0.0000000000000D+00  0.0000000000000D+00
346  3.4500000000000D+00  0.0000000000000D+00  0.0000000000000D+00
347  3.4600000000000D+00  0.0000000000000D+00  0.0000000000000D+00
348  3.4700000000000D+00  0.0000000000000D+00  0.0000000000000D+00
349  3.4800000000000D+00  0.0000000000000D+00  0.0000000000000D+00
350  3.4900000000000D+00  0.0000000000000D+00  0.0000000000000D+00
351  3.5000000000000D+00  0.0000000000000D+00  0.0000000000000D+00
352  3.5100000000000D+00  0.0000000000000D+00  0.0000000000000D+00
353  3.5200000000000D+00  0.0000000000000D+00  0.0000000000000D+00
354  3.5300000000000D+00  0.0000000000000D+00  0.0000000000000D+00
355  3.5400000000000D+00  0.0000000000000D+00  0.0000000000000D+00
356  3.5500000000000D+00  0.0000000000000D+00  0.0000000000000D+00
357  3.5600000000000D+00  0.0000000000000D+00  0.0000000000000D+00
358  3.5700000000000D+00  0.0000000000000D+00  0.0000000000000D+00
359  3.5800000000000D+00  0.0000000000000D+00  0.0000000000000D+00
360  3.5900000000000D+00  0.0000000000000D+00  0.0000000000000D+00
361  3.6000000000000D+00  0.0000000000000D+00  0.0000000000000D+00
362  3.6100000000000D+00  0.0000000000000D+00  0.0000000000000D+00
363  3.6200000000000D+00  0.0000000000000D+00  0.0000000000000D+00
364  3.6300000000000D+00  0.0000000000000D+00  0.0000000000000D+00
365  3.6400000000000D+00  0.0000000000000D+00  0.0000000000000D+00
366  3.6500000000000D+00  0.0000000000000D+00  0.0000000000000D+00
367  3.6600000000000D+00  0.0000000000000D+00  0.0000000000000D+00
368  3.6700000000000D+00  0.0000000000000D+00  0.0000000000000D+00
369  3.6800000000000D+00  0.0000000000000D+00  0.0000000000000D+00
370  3.6900000000000D+00  0.0000000000000D+00  0.0000000000000D+00
371  3.7000000000000D+00  0.0000000000000D+00  0.0000000000000D+00
372  3.7100000000000D+00  0.0000000000000D+00  0.0000000000000D+00
373  3.7200000000000D+00  0.0000000000000D+00  0.0000000000000D+00
374  3.7300000000000D+00  0.0000000000000D+00  0.0000000000000D+00
375  3.7400000000000D+00  0.0000000000000D+00  0.0000000000000D+00
376  3.7500000000000D+00  0.0000000000000D+00  0.0000000000000D+00
377  3.7600000000000D+00  0.0000000000000D+00  0.0000000000000D+00
378  3.7700000000000D+00  0.0000000000000D+00  0.0000000000000D+00
379  3.7800000000000D+00  0.0000000000000D+00  0.0000000000000D+00
380  3.7900000000000D+00  0.0000000000000D+00  0.0000000000000D+00
381  3.8000000000000D+00  0.0000000000000D+00  0.0000000000000D+00
382  3.8100000000000D+00  0.0000000000000D+00  0.0000000000000D+00
383  3.8200000000000D+00  0.0000000000000D+00  0.0000000000000D+00
384  3.8300000000000D+00  0.0000000000000D+00  0.0000000000000D+00
385  3.8400000000000D+00  0.0000000000000D+00  0.0000000000000D+00
386  3.8500000000000D+00  0.0000000000000D+00  0.0000000000000D+00
387  3.8600000000000D+00  0.0000000000000D+00  0.0000000000000D+00
388  3.8700000000000D+00  0.0000000000000D+00  0.0000000000000D+00
389  3.8800000000000D+00  0.0000000000000D+00  0.0000000000000D+00
390  3.8900000000000D+00  0.0000000000000D+00  0.0000000000000D+00
391  3.9000000000000D+00  0.0000000000000D+00  0.0000000000000D+00
392  3.9100000000000D+00  0.0000000000000D+00  0.0000000000000D+00
393  3.9200000000000D+00  0.0000000000000D+00  0.0000000000000D+00
394  3.9300000000000D+00  0.0000000000000D+00  0.0000000000000D+00
395  3.9400000000000D+00  0.0000000000000D+00  0.0000000000000D+00
396  3.9500000000000D+00  0.0000000000000D+00  0.0000000000000D+00
397  3.9600000000000D+00  0.0000000000000D+00  0.0000000000000D+00
398  3.9700000000000D+00  0.0000000000000D+00  0.0000000000000D+00
399  3.9800000000000D+00  0.0000000000000D+00  0.0000000000000D+00
400  3.9900000000000D+00  0.0000000000000D+00  0.0000000000000D+00
401  4.0000000000000D+00  0.0000000000000D+00  0.0000000000000D+00
402  4.0100000000000D+00  0.0000000000000D+00  0.0000000000000D+00
403  4.0200000000000D+00  0.0000000000000D+00  0.0000000000000D+00
404  4.0300000000000D+00  0.0000000000000D+00  0.0000000000000D+00
405  4.0400000000000D+00  0.0000000000000D+00  0.0000000000000D+00
406  4.0500000000000D+00  0.0000000000000D+00  0.0000000000000D+00
407  4.0600000000000D+00  0.0000000000000D+00  0.0000000000000D+00
408  4.0700000000000D+00  0.0000000000000D+00  0.0000000000000D+00
409  4.0800000000000D+00  0.0000000000000D+00  0.0000000000000D+00
410  4.0900000000000D+00  0.0000000000000D+00  0.0000000000000D+00
411  4.1000000000000D+00  0.0000000000000D+00  0.0000000000000D+00
412  4.1100000000000D+00  0.0000000000000D+00  0.0000000000000D+00
413  4.1200000000000D+00  0.0000000000000D+00  0.0000000000000D+00
414  4.1300000000000D+00  0.0000000000000D+00  0.0000000000000D+00
415  4.1400000000000D+00  0.0000000000000D+00  0.0000000000000D+00
416  4.1500000000000D+00  0.0000000000000D+00  0.0000000000000D+00
417  4.1600000000000D+00  0.0000000000000D+00  0.0000000000000D+00
418  4.1700000000000D+00  0.0000000000000D+00  0.0000000000000D+00
419  4.1800000000000D+00  0.0000000000000D+00  0.0000000000000D+00
420  4.1900000000000D+00  0.0000000000000D+00  0.0000000000000D+00
421  4.2000000000000D+00  0.0000000000000D+00  0.0000000000000D+00
422  4.2100000000000D+00  0.0000000000000D+00  0.0000000000000D+00
423  4.2200000000000D+00  0.0000000000000D+00  0.0000000000000D+00
424  4.2300000000000D+00  0.0000000000000D+00  0.0000000000000D+00
425  4.2400000000000D+00  0.0000000000000D+00  0.0000000000000D+00
426  4.2500000000000D+00  0.0000000000000D+00  0.0000000000000D+00
427  4.2600000000000D+00  0.0000000000000D+00  0.0000000000000D+00
428  4.2700000000000D+00  0.0000000000000D+00  0.0000000000000D+00
429  4.2800000000000D+00  0.0000000000000D+00  0.0000000000000D+00
430  4.2900000000000D+00  0.0000000000000D+00  0.0000000000000D+00
431  4.3000000000000D+00  0.0000000000000D+00  0.0000000000000D+00
432  4.3100000000000D+00  0.0000000000000D+00  0.0000000000000D+00
433  4.3200000000000D+00  0.0000000000000D+00  0.0000000000000D+00
434  4.3300000000000D+00  0.0000000000000D+00  0.0000000000000D+00
435  4.3400000000000D+00  0.0000000000000D+00  0.0000000000000D+00
436  4.3500000000000D+00  0.0000000000000D+00  0.0000000000000D+00
437  4.3600000000000D+00  0.0000000000000D+00  0.0000000000000D+00
438  4.3700000000000D+00  0.0000000000000D+00  0.0000000000000D+00
439  4.3800000000000D+00  0.0000000000000D+00  0.0000000000000D+00
440  4.3900000000000D+00  0.0000000000000D+00  0.0000000000000D+00
441  4.4000000000000D+00  0.0000000000000D+00  0.0000000000000D+00
442  4.4100000000000D+00  0.0000000000000D+00  0.0000000000000D+00
443  4.4200000000000D+00  0.0000000000000D+00  0.0000000000000D+00