Cd    ONCVPSP-3.3.0  r_core=   1.25838   1.30423   1.35174
48.0000     20.0000      180423    zatom,zion,pspd
8      11   2     4   600     0    pspcod,pspxc,lmax,lloc,mmax,r2well
5.99000000  6.00000000  0.00000000    rchrg fchrg qchrg
2     4     4     0    nproj
3     1           extension_switch
4     4     0    nprojso
0                         3.4845184520633D+00  4.9532865784759D+01
1  0.0000000000000D+00  8.3030838593512D-09 -4.5007305660150D-09
2  1.0000000000000D-02 -2.9984780767779D-02  1.0981577008532D-01
3  2.0000000000000D-02 -5.9495911915969D-02  2.1914598653604D-01
4  3.0000000000000D-02 -8.8066167748240D-02  3.2750922765428D-01
5  4.0000000000000D-02 -1.1524105726833D-01  4.3443227289658D-01
6  5.0000000000000D-02 -1.4058491084278D-01  5.3945404783456D-01
7  6.0000000000000D-02 -1.6368663609824D-01  6.4212938566101D-01
8  7.0000000000000D-02 -1.8416504277234D-01  7.4203254949661D-01
9  8.0000000000000D-02 -2.0167364454012D-01  8.3876046425385D-01
10  9.0000000000000D-02 -2.1590485591388D-01  9.3193561227521D-01
11  1.0000000000000D-01 -2.2659351396945D-01  1.0212085532791D+00
12  1.1000000000000D-01 -2.3351966766257D-01  1.1062600361969D+00
13  1.2000000000000D-01 -2.3651059161364D-01  1.1868026781292D+00
14  1.3000000000000D-01 -2.3544199618659D-01  1.2625821937480D+00
15  1.4000000000000D-01 -2.3023842117663D-01  1.3333781668534D+00
16  1.5000000000000D-01 -2.2087281615391D-01  1.3990043643141D+00
17  1.6000000000000D-01 -2.0736532617786D-01  1.4593086010943D+00
18  1.7000000000000D-01 -1.8978131689416D-01  1.5141721733470D+00
19  1.8000000000000D-01 -1.6822868765407D-01  1.5635088844591D+00
20  1.9000000000000D-01 -1.4285453496389D-01  1.6072636963190D+00
21  2.0000000000000D-01 -1.1384124101075D-01  1.6454110447961D+00
22  2.1000000000000D-01 -8.1402072969864D-02  1.6779528643310D+00
23  2.2000000000000D-01 -4.5776388058298D-02  1.7049163715267D+00
24  2.3000000000000D-01 -7.2245466674106D-03  1.7263516615983D+00
25  2.4000000000000D-01  3.3977358767405D-02  1.7423291743944D+00
26  2.5000000000000D-01  7.7542848337039D-02  1.7529370883977D+00
27  2.6000000000000D-01  1.2318036091385D-01  1.7582787015963D+00
28  2.7000000000000D-01  1.7059841166855D-01  1.7584698573807D+00
29  2.8000000000000D-01  2.1951049400871D-01  1.7536364716750D+00
30  2.9000000000000D-01  2.6963962487525D-01  1.7439122143826D+00
31  3.0000000000000D-01  3.2072244020157D-01  1.7294363939808D+00
32  3.1000000000000D-01  3.7251275715874D-01  1.7103520888042D+00
33  3.2000000000000D-01  4.2478453139615D-01  1.6868045623304D+00
34  3.3000000000000D-01  4.7733415061931D-01  1.6589399927237D+00
35  3.4000000000000D-01  5.2998202027800D-01  1.6269045391648D+00
36  3.5000000000000D-01  5.8257341258350D-01  1.5908437592282D+00
37  3.6000000000000D-01  6.3497856623394D-01  1.5509023829479D+00
38  3.7000000000000D-01  6.8709204078055D-01  1.5072244404008D+00
39  3.8000000000000D-01  7.3883134618269D-01  1.4599537308181D+00
40  3.9000000000000D-01  7.9013488443794D-01  1.4092346125988D+00
41  4.0000000000000D-01  8.4095925590386D-01  1.3552130853161D+00
42  4.1000000000000D-01  8.9127599771703D-01  1.2980381270639D+00
43  4.2000000000000D-01  9.4106783525319D-01  1.2378632434562D+00
44  4.3000000000000D-01  9.9032453956743D-01  1.1748481784153D+00
45  4.4000000000000D-01  1.0390384939369D+00  1.1091607317172D+00
46  4.5000000000000D-01  1.0872000807696D+00  1.0409786242253D+00
47  4.6000000000000D-01  1.1347930060458D+00  9.7049134893802D-01
48  4.7000000000000D-01  1.1817896819637D+00  8.9790194448416D-01
49  4.8000000000000D-01  1.2281467894723D+00  8.2342862758005D-01
50  4.9000000000000D-01  1.2738011408089D+00  7.4730622223431D-01
51  5.0000000000000D-01  1.3186659580368D+00  6.6978732616128D-01
52  5.1000000000000D-01  1.3626276769056D+00  5.9114315890813D-01
53  5.2000000000000D-01  1.4055433762594D+00  5.1166404155638D-01
54  5.3000000000000D-01  1.4472389218093D+00  4.3165946445390D-01
55  5.4000000000000D-01  1.4875078995694D+00  3.5145770714622D-01
56  5.5000000000000D-01  1.5261113988869D+00  2.7140498337272D-01
57  5.6000000000000D-01  1.5627786879832D+00  1.9186409354372D-01
58  5.7000000000000D-01  1.5972088066992D+00  1.1321257728332D-01
59  5.8000000000000D-01  1.6290730818881D+00  3.5840369305332D-02
60  5.9000000000000D-01  1.6580185511810D+00 -3.9853027229720D-02
61  6.0000000000000D-01  1.6836722608375D+00 -1.1346182473858D-01
62  6.1000000000000D-01  1.7056463837394D+00 -1.8457765675115D-01
63  6.2000000000000D-01  1.7235440843778D+00 -2.5279365866556D-01
64  6.3000000000000D-01  1.7369660396844D+00 -3.1770886772451D-01
65  6.4000000000000D-01  1.7455175077900D+00 -3.7893287725520D-01
66  6.5000000000000D-01  1.7488158218830D+00 -4.3609067232911D-01
67  6.6000000000000D-01  1.7464981735415D+00 -4.8882756733292D-01
68  6.7000000000000D-01  1.7382295394261D+00 -5.3681416060205D-01
69  6.8000000000000D-01  1.7237105974895D+00 -5.7975121749593D-01
70  6.9000000000000D-01  1.7026854739524D+00 -6.1737439111769D-01
71  7.0000000000000D-01  1.6749491604137D+00 -6.4945868941574D-01
72  7.1000000000000D-01  1.6403544417420D+00 -6.7582259870920D-01
73  7.2000000000000D-01  1.5988181798298D+00 -6.9633177675203D-01
74  7.3000000000000D-01  1.5503268059151D+00 -7.1090223330031D-01
75  7.4000000000000D-01  1.4949408847946D+00 -7.1950292265900D-01
76  7.5000000000000D-01  1.4327986279472D+00 -7.2215768090256D-01
77  7.6000000000000D-01  1.3641182488815D+00 -7.1894645010683D-01
78  7.7000000000000D-01  1.2891990728637D+00 -7.1000574297247D-01
79  7.8000000000000D-01  1.2084213341680D+00 -6.9552831342454D-01
80  7.9000000000000D-01  1.1222446167768D+00 -6.7576201194714D-01
81  8.0000000000000D-01  1.0312049186475D+00 -6.5100781832520D-01
82  8.1000000000000D-01  9.3591034482419D-01 -6.2161705888053D-01
83  8.2000000000000D-01  8.3703546029288D-01 -5.8798782990694D-01
84  8.3000000000000D-01  7.3531435916723D-01 -5.5056066361547D-01
85  8.4000000000000D-01  6.3153253199278D-01 -5.0981348718222D-01
86  8.5000000000000D-01  5.2651763715906D-01 -4.6625593915620D-01
87  8.6000000000000D-01  4.2112930520404D-01 -4.2042312031177D-01
88  8.7000000000000D-01  3.1624812566489D-01 -3.7286886772350D-01
89  8.8000000000000D-01  2.1276398465887D-01 -3.2415865117465D-01
90  8.9000000000000D-01  1.1156393716874D-01 -2.7486219975890D-01
91  9.0000000000000D-01  1.3519810719176D-02 -2.2554597351203D-01
92  9.1000000000000D-01 -8.0524253582667D-02 -1.7676559992585D-01
93  9.2000000000000D-01 -1.6976411093736D-01 -1.2905839817927D-01
94  9.3000000000000D-01 -2.5344756010414D-01 -8.2936114701303D-02
95  9.4000000000000D-01 -3.3088571644540D-01 -3.8877992262416D-02
96  9.5000000000000D-01 -4.0146360514032D-01  2.6757088635833D-03
97  9.6000000000000D-01 -4.6464977877764D-01  4.1329624982374D-02
98  9.7000000000000D-01 -5.2000477714701D-01  7.6738533612508D-02
99  9.8000000000000D-01 -5.6718826424320D-01  1.0861183398820D-01
100  9.9000000000000D-01 -6.0596469792973D-01  1.3671718058438D-01
101  1.0000000000000D+00 -6.3620741170769D-01  1.6088320066029D-01
102  1.0100000000000D+00 -6.5790101316063D-01  1.8100124127143D-01
103  1.0200000000000D+00 -6.7114203292267D-01  1.9702610800062D-01
104  1.0300000000000D+00 -6.7613778764556D-01  2.0897577462740D-01
105  1.0400000000000D+00 -6.7320345148198D-01  2.1693006070544D-01
106  1.0500000000000D+00 -6.6275736226634D-01  2.2102829210016D-01
107  1.0600000000000D+00 -6.4531462160215D-01  2.2146597837329D-01
108  1.0700000000000D+00 -6.2147907609432D-01  2.1849055687284D-01
109  1.0800000000000D+00 -5.9193380107971D-01  2.1239627280410D-01
110  1.0900000000000D+00 -5.5743023399275D-01  2.0351827921571D-01
111  1.1000000000000D+00 -5.1877613162907D-01  1.9222605624728D-01
112  1.1100000000000D+00 -4.7682254917341D-01  1.7891626238023D-01
113  1.1200000000000D+00 -4.3245005749925D-01  1.6400514100701D-01
114  1.1300000000000D+00 -3.8655443526763D-01  1.4792061697130D-01
115  1.1400000000000D+00 -3.4003208246287D-01  1.3109422344617D-01
116  1.1500000000000D+00 -2.9376541110498D-01  1.1395300464676D-01
117  1.1600000000000D+00 -2.4860847402850D-01  9.6911542772867D-02
118  1.1700000000000D+00 -2.0537309253013D-01  8.0364257477007D-02
119  1.1800000000000D+00 -1.6481573753043D-01  6.4678122632414D-02
120  1.1900000000000D+00 -1.2762540997421D-01  5.0185940078234D-02
121  1.2000000000000D+00 -9.4412756577200D-02  3.7180304531003D-02
122  1.2100000000000D+00 -6.5700634367775D-02  2.5908380958953D-02
123  1.2200000000000D+00 -4.1930189264387D-02  1.6573243616600D-02
124  1.2300000000000D+00 -2.3362214523409D-02  9.2925775855798D-03
125  1.2400000000000D+00 -1.0250259376454D-02  4.1692083802115D-03
126  1.2500000000000D+00 -3.1968566714904D-03  1.4467507635887D-03
127  1.2600000000000D+00 -6.6711653624492D-04  4.3549573511463D-04
128  1.2700000000000D+00 -3.8742824980204D-05  5.6227490066684D-05
129  1.2800000000000D+00  1.4367914454665D-07 -2.0766074178173D-05
130  1.2900000000000D+00 -1.5601309734259D-06  2.0305741257598D-06
131  1.3000000000000D+00 -2.4525770029163D-06  4.1856329531268D-06
132  1.3100000000000D+00  2.4345399018628D-06 -1.4636849662560D-06
133  1.3200000000000D+00  0.0000000000000D+00  0.0000000000000D+00
134  1.3300000000000D+00  0.0000000000000D+00  0.0000000000000D+00
135  1.3400000000000D+00  0.0000000000000D+00  0.0000000000000D+00
136  1.3500000000000D+00  0.0000000000000D+00  0.0000000000000D+00
137  1.3600000000000D+00  0.0000000000000D+00  0.0000000000000D+00
138  1.3700000000000D+00  0.0000000000000D+00  0.0000000000000D+00
139  1.3800000000000D+00  0.0000000000000D+00  0.0000000000000D+00
140  1.3900000000000D+00  0.0000000000000D+00  0.0000000000000D+00
141  1.4000000000000D+00  0.0000000000000D+00  0.0000000000000D+00
142  1.4100000000000D+00  0.0000000000000D+00  0.0000000000000D+00
143  1.4200000000000D+00  0.0000000000000D+00  0.0000000000000D+00
144  1.4300000000000D+00  0.0000000000000D+00  0.0000000000000D+00
145  1.4400000000000D+00  0.0000000000000D+00  0.0000000000000D+00
146  1.4500000000000D+00  0.0000000000000D+00  0.0000000000000D+00
147  1.4600000000000D+00  0.0000000000000D+00  0.0000000000000D+00
148  1.4700000000000D+00  0.0000000000000D+00  0.0000000000000D+00
149  1.4800000000000D+00  0.0000000000000D+00  0.0000000000000D+00
150  1.4900000000000D+00  0.0000000000000D+00  0.0000000000000D+00
151  1.5000000000000D+00  0.0000000000000D+00  0.0000000000000D+00
152  1.5100000000000D+00  0.0000000000000D+00  0.0000000000000D+00
153  1.5200000000000D+00  0.0000000000000D+00  0.0000000000000D+00
154  1.5300000000000D+00  0.0000000000000D+00  0.0000000000000D+00
155  1.5400000000000D+00  0.0000000000000D+00  0.0000000000000D+00
156  1.5500000000000D+00  0.0000000000000D+00  0.0000000000000D+00
157  1.5600000000000D+00  0.0000000000000D+00  0.0000000000000D+00
158  1.5700000000000D+00  0.0000000000000D+00  0.0000000000000D+00
159  1.5800000000000D+00  0.0000000000000D+00  0.0000000000000D+00
160  1.5900000000000D+00  0.0000000000000D+00  0.0000000000000D+00
161  1.6000000000000D+00  0.0000000000000D+00  0.0000000000000D+00
162  1.6100000000000D+00  0.0000000000000D+00  0.0000000000000D+00
163  1.6200000000000D+00  0.0000000000000D+00  0.0000000000000D+00
164  1.6300000000000D+00  0.0000000000000D+00  0.0000000000000D+00
165  1.6400000000000D+00  0.0000000000000D+00  0.0000000000000D+00
166  1.6500000000000D+00  0.0000000000000D+00  0.0000000000000D+00
167  1.6600000000000D+00  0.0000000000000D+00  0.0000000000000D+00
168  1.6700000000000D+00  0.0000000000000D+00  0.0000000000000D+00
169  1.6800000000000D+00  0.0000000000000D+00  0.0000000000000D+00
170  1.6900000000000D+00  0.0000000000000D+00  0.0000000000000D+00
171  1.7000000000000D+00  0.0000000000000D+00  0.0000000000000D+00
172  1.7100000000000D+00  0.0000000000000D+00  0.0000000000000D+00
173  1.7200000000000D+00  0.0000000000000D+00  0.0000000000000D+00
174  1.7300000000000D+00  0.0000000000000D+00  0.0000000000000D+00
175  1.7400000000000D+00  0.0000000000000D+00  0.0000000000000D+00
176  1.7500000000000D+00  0.0000000000000D+00  0.0000000000000D+00
177  1.7600000000000D+00  0.0000000000000D+00  0.0000000000000D+00
178  1.7700000000000D+00  0.0000000000000D+00  0.0000000000000D+00
179  1.7800000000000D+00  0.0000000000000D+00  0.0000000000000D+00
180  1.7900000000000D+00  0.0000000000000D+00  0.0000000000000D+00
181  1.8000000000000D+00  0.0000000000000D+00  0.0000000000000D+00
182  1.8100000000000D+00  0.0000000000000D+00  0.0000000000000D+00
183  1.8200000000000D+00  0.0000000000000D+00  0.0000000000000D+00
184  1.8300000000000D+00  0.0000000000000D+00  0.0000000000000D+00
185  1.8400000000000D+00  0.0000000000000D+00  0.0000000000000D+00
186  1.8500000000000D+00  0.0000000000000D+00  0.0000000000000D+00
187  1.8600000000000D+00  0.0000000000000D+00  0.0000000000000D+00
188  1.8700000000000D+00  0.0000000000000D+00  0.0000000000000D+00
189  1.8800000000000D+00  0.0000000000000D+00  0.0000000000000D+00
190  1.8900000000000D+00  0.0000000000000D+00  0.0000000000000D+00
191  1.9000000000000D+00  0.0000000000000D+00  0.0000000000000D+00
192  1.9100000000000D+00  0.0000000000000D+00  0.0000000000000D+00
193  1.9200000000000D+00  0.0000000000000D+00  0.0000000000000D+00
194  1.9300000000000D+00  0.0000000000000D+00  0.0000000000000D+00
195  1.9400000000000D+00  0.0000000000000D+00  0.0000000000000D+00
196  1.9500000000000D+00  0.0000000000000D+00  0.0000000000000D+00
197  1.9600000000000D+00  0.0000000000000D+00  0.0000000000000D+00
198  1.9700000000000D+00  0.0000000000000D+00  0.0000000000000D+00
199  1.9800000000000D+00  0.0000000000000D+00  0.0000000000000D+00
200  1.9900000000000D+00  0.0000000000000D+00  0.0000000000000D+00
201  2.0000000000000D+00  0.0000000000000D+00  0.0000000000000D+00
202  2.0100000000000D+00  0.0000000000000D+00  0.0000000000000D+00
203  2.0200000000000D+00  0.0000000000000D+00  0.0000000000000D+00
204  2.0300000000000D+00  0.0000000000000D+00  0.0000000000000D+00
205  2.0400000000000D+00  0.0000000000000D+00  0.0000000000000D+00
206  2.0500000000000D+00  0.0000000000000D+00  0.0000000000000D+00
207  2.0600000000000D+00  0.0000000000000D+00  0.0000000000000D+00
208  2.0700000000000D+00  0.0000000000000D+00  0.0000000000000D+00
209  2.0800000000000D+00  0.0000000000000D+00  0.0000000000000D+00
210  2.0900000000000D+00  0.0000000000000D+00  0.0000000000000D+00
211  2.1000000000000D+00  0.0000000000000D+00  0.0000000000000D+00
212  2.1100000000000D+00  0.0000000000000D+00  0.0000000000000D+00
213  2.1200000000000D+00  0.0000000000000D+00  0.0000000000000D+00
214  2.1300000000000D+00  0.0000000000000D+00  0.0000000000000D+00
215  2.1400000000000D+00  0.0000000000000D+00  0.0000000000000D+00
216  2.1500000000000D+00  0.0000000000000D+00  0.0000000000000D+00
217  2.1600000000000D+00  0.0000000000000D+00  0.0000000000000D+00
218  2.1700000000000D+00  0.0000000000000D+00  0.0000000000000D+00
219  2.1800000000000D+00  0.0000000000000D+00  0.0000000000000D+00
220  2.1900000000000D+00  0.0000000000000D+00  0.0000000000000D+00
221  2.2000000000000D+00  0.0000000000000D+00  0.0000000000000D+00
222  2.2100000000000D+00  0.0000000000000D+00  0.0000000000000D+00
223  2.2200000000000D+00  0.0000000000000D+00  0.0000000000000D+00
224  2.2300000000000D+00  0.0000000000000D+00  0.0000000000000D+00
225  2.2400000000000D+00  0.0000000000000D+00  0.0000000000000D+00
226  2.2500000000000D+00  0.0000000000000D+00  0.0000000000000D+00
227  2.2600000000000D+00  0.0000000000000D+00  0.0000000000000D+00
228  2.2700000000000D+00  0.0000000000000D+00  0.0000000000000D+00
229  2.2800000000000D+00  0.0000000000000D+00  0.0000000000000D+00
230  2.2900000000000D+00  0.0000000000000D+00  0.0000000000000D+00
231  2.3000000000000D+00  0.0000000000000D+00  0.0000000000000D+00
232  2.3100000000000D+00  0.0000000000000D+00  0.0000000000000D+00
233  2.3200000000000D+00  0.0000000000000D+00  0.0000000000000D+00
234  2.3300000000000D+00  0.0000000000000D+00  0.0000000000000D+00
235  2.3400000000000D+00  0.0000000000000D+00  0.0000000000000D+00
236  2.3500000000000D+00  0.0000000000000D+00  0.0000000000000D+00
237  2.3600000000000D+00  0.0000000000000D+00  0.0000000000000D+00
238  2.3700000000000D+00  0.0000000000000D+00  0.0000000000000D+00
239  2.3800000000000D+00  0.0000000000000D+00  0.0000000000000D+00
240  2.3900000000000D+00  0.0000000000000D+00  0.0000000000000D+00
241  2.4000000000000D+00  0.0000000000000D+00  0.0000000000000D+00
242  2.4100000000000D+00  0.0000000000000D+00  0.0000000000000D+00
243  2.4200000000000D+00  0.0000000000000D+00  0.0000000000000D+00
244  2.4300000000000D+00  0.0000000000000D+00  0.0000000000000D+00
245  2.4400000000000D+00  0.0000000000000D+00  0.0000000000000D+00
246  2.4500000000000D+00  0.0000000000000D+00  0.0000000000000D+00
247  2.4600000000000D+00  0.0000000000000D+00  0.0000000000000D+00
248  2.4700000000000D+00  0.0000000000000D+00  0.0000000000000D+00
249  2.4800000000000D+00  0.0000000000000D+00  0.0000000000000D+00
250  2.4900000000000D+00  0.0000000000000D+00  0.0000000000000D+00
251  2.5000000000000D+00  0.0000000000000D+00  0.0000000000000D+00
252  2.5100000000000D+00  0.0000000000000D+00  0.0000000000000D+00
253  2.5200000000000D+00  0.0000000000000D+00  0.0000000000000D+00
254  2.5300000000000D+00  0.0000000000000D+00  0.0000000000000D+00
255  2.5400000000000D+00  0.0000000000000D+00  0.0000000000000D+00
256  2.5500000000000D+00  0.0000000000000D+00  0.0000000000000D+00
257  2.5600000000000D+00  0.0000000000000D+00  0.0000000000000D+00
258  2.5700000000000D+00  0.0000000000000D+00  0.0000000000000D+00
259  2.5800000000000D+00  0.0000000000000D+00  0.0000000000000D+00
260  2.5900000000000D+00  0.0000000000000D+00  0.0000000000000D+00
261  2.6000000000000D+00  0.0000000000000D+00  0.0000000000000D+00
262  2.6100000000000D+00  0.0000000000000D+00  0.0000000000000D+00
263  2.6200000000000D+00  0.0000000000000D+00  0.0000000000000D+00
264  2.6300000000000D+00  0.0000000000000D+00  0.0000000000000D+00
265  2.6400000000000D+00  0.0000000000000D+00  0.0000000000000D+00
266  2.6500000000000D+00  0.0000000000000D+00  0.0000000000000D+00
267  2.6600000000000D+00  0.0000000000000D+00  0.0000000000000D+00
268  2.6700000000000D+00  0.0000000000000D+00  0.0000000000000D+00
269  2.6800000000000D+00  0.0000000000000D+00  0.0000000000000D+00
270  2.6900000000000D+00  0.0000000000000D+00  0.0000000000000D+00
271  2.7000000000000D+00  0.0000000000000D+00  0.0000000000000D+00
272  2.7100000000000D+00  0.0000000000000D+00  0.0000000000000D+00
273  2.7200000000000D+00  0.0000000000000D+00  0.0000000000000D+00
274  2.7300000000000D+00  0.0000000000000D+00  0.0000000000000D+00
275  2.7400000000000D+00  0.0000000000000D+00  0.0000000000000D+00
276  2.7500000000000D+00  0.0000000000000D+00  0.0000000000000D+00
277  2.7600000000000D+00  0.0000000000000D+00  0.0000000000000D+00
278  2.7700000000000D+00  0.0000000000000D+00  0.0000000000000D+00
279  2.7800000000000D+00  0.0000000000000D+00  0.0000000000000D+00
280  2.7900000000000D+00  0.0000000000000D+00  0.0000000000000D+00
281  2.8000000000000D+00  0.0000000000000D+00  0.0000000000000D+00
282  2.8100000000000D+00  0.0000000000000D+00  0.0000000000000D+00
283  2.8200000000000D+00  0.0000000000000D+00  0.0000000000000D+00
284  2.8300000000000D+00  0.0000000000000D+00  0.0000000000000D+00
285  2.8400000000000D+00  0.0000000000000D+00  0.0000000000000D+00
286  2.8500000000000D+00  0.0000000000000D+00  0.0000000000000D+00
287  2.8600000000000D+00  0.0000000000000D+00  0.0000000000000D+00
288  2.8700000000000D+00  0.0000000000000D+00  0.0000000000000D+00
289  2.8800000000000D+00  0.0000000000000D+00  0.0000000000000D+00
290  2.8900000000000D+00  0.0000000000000D+00  0.0000000000000D+00
291  2.9000000000000D+00  0.0000000000000D+00  0.0000000000000D+00
292  2.9100000000000D+00  0.0000000000000D+00  0.0000000000000D+00
293  2.9200000000000D+00  0.0000000000000D+00  0.0000000000000D+00
294  2.9300000000000D+00  0.0000000000000D+00  0.0000000000000D+00
295  2.9400000000000D+00  0.0000000000000D+00  0.0000000000000D+00
296  2.9500000000000D+00  0.0000000000000D+00  0.0000000000000D+00
297  2.9600000000000D+00  0.0000000000000D+00  0.0000000000000D+00
298  2.9700000000000D+00  0.0000000000000D+00  0.0000000000000D+00
299  2.9800000000000D+00  0.0000000000000D+00  0.0000000000000D+00
300  2.9900000000000D+00  0.0000000000000D+00  0.0000000000000D+00
301  3.0000000000000D+00  0.0000000000000D+00  0.0000000000000D+00
302  3.0100000000000D+00  0.0000000000000D+00  0.0000000000000D+00
303  3.0200000000000D+00  0.0000000000000D+00  0.0000000000000D+00
304  3.0300000000000D+00  0.0000000000000D+00  0.0000000000000D+00
305  3.0400000000000D+00  0.0000000000000D+00  0.0000000000000D+00
306  3.0500000000000D+00  0.0000000000000D+00  0.0000000000000D+00
307  3.0600000000000D+00  0.0000000000000D+00  0.0000000000000D+00
308  3.0700000000000D+00  0.0000000000000D+00  0.0000000000000D+00
309  3.0800000000000D+00  0.0000000000000D+00  0.0000000000000D+00
310  3.0900000000000D+00  0.0000000000000D+00  0.0000000000000D+00
311  3.1000000000000D+00  0.0000000000000D+00  0.0000000000000D+00
312  3.1100000000000D+00  0.0000000000000D+00  0.0000000000000D+00
313  3.1200000000000D+00  0.0000000000000D+00  0.0000000000000D+00
314  3.1300000000000D+00  0.0000000000000D+00  0.0000000000000D+00
315  3.1400000000000D+00  0.0000000000000D+00  0.0000000000000D+00
316  3.1500000000000D+00  0.0000000000000D+00  0.0000000000000D+00
317  3.1600000000000D+00  0.0000000000000D+00  0.0000000000000D+00
318  3.1700000000000D+00  0.0000000000000D+00  0.0000000000000D+00
319  3.1800000000000D+00  0.0000000000000D+00  0.0000000000000D+00
320  3.1900000000000D+00  0.0000000000000D+00  0.0000000000000D+00
321  3.2000000000000D+00  0.0000000000000D+00  0.0000000000000D+00
322  3.2100000000000D+00  0.0000000000000D+00  0.0000000000000D+00
323  3.2200000000000D+00  0.0000000000000D+00  0.0000000000000D+00
324  3.2300000000000D+00  0.0000000000000D+00  0.0000000000000D+00
325  3.2400000000000D+00  0.0000000000000D+00  0.0000000000000D+00
326  3.2500000000000D+00  0.0000000000000D+00  0.0000000000000D+00
327  3.2600000000000D+00  0.0000000000000D+00  0.0000000000000D+00
328  3.2700000000000D+00  0.0000000000000D+00  0.0000000000000D+00
329  3.2800000000000D+00  0.0000000000000D+00  0.0000000000000D+00
330  3.2900000000000D+00  0.0000000000000D+00  0.0000000000000D+00
331  3.3000000000000D+00  0.0000000000000D+00  0.0000000000000D+00
332  3.3100000000000D+00  0.0000000000000D+00  0.0000000000000D+00
333  3.3200000000000D+00  0.0000000000000D+00  0.0000000000000D+00
334  3.3300000000000D+00  0.0000000000000D+00  0.0000000000000D+00
335  3.3400000000000D+00  0.0000000000000D+00  0.0000000000000D+00
336  3.3500000000000D+00  0.0000000000000D+00  0.0000000000000D+00
337  3.3600000000000D+00  0.0000000000000D+00  0.0000000000000D+00
338  3.3700000000000D+00  0.0000000000000D+00  0.0000000000000D+00
339  3.3800000000000D+00  0.0000000000000D+00  0.0000000000000D+00
340  3.3900000000000D+00  0.0000000000000D+00  0.0000000000000D+00
341  3.4000000000000D+00  0.0000000000000D+00  0.0000000000000D+00
342  3.4100000000000D+00  0.0000000000000D+00  0.0000000000000D+00
343  3.4200000000000D+00  0.0000000000000D+00  0.0000000000000D+00
344  3.4300000000000D+00  0.0000000000000D+00  0.0000000000000D+00
345  3.4400000000000D+00  0.0000000000000D+00  0.0000000000000D+00
346  3.4500000000000D+00  0.0000000000000D+00  0.0000000000000D+00
347  3.4600000000000D+00  0.0000000000000D+00  0.0000000000000D+00
348  3.4700000000000D+00  0.0000000000000D+00  0.0000000000000D+00
349  3.4800000000000D+00  0.0000000000000D+00  0.0000000000000D+00
350  3.4900000000000D+00  0.0000000000000D+00  0.0000000000000D+00
351  3.5000000000000D+00  0.0000000000000D+00  0.0000000000000D+00
352  3.5100000000000D+00  0.0000000000000D+00  0.0000000000000D+00
353  3.5200000000000D+00  0.0000000000000D+00  0.0000000000000D+00
354  3.5300000000000D+00  0.0000000000000D+00  0.0000000000000D+00
355  3.5400000000000D+00  0.0000000000000D+00  0.0000000000000D+00
356  3.5500000000000D+00  0.0000000000000D+00  0.0000000000000D+00
357  3.5600000000000D+00  0.0000000000000D+00  0.0000000000000D+00
358  3.5700000000000D+00  0.0000000000000D+00  0.0000000000000D+00
359  3.5800000000000D+00  0.0000000000000D+00  0.0000000000000D+00
360  3.5900000000000D+00  0.0000000000000D+00  0.0000000000000D+00
361  3.6000000000000D+00  0.0000000000000D+00  0.0000000000000D+00
362  3.6100000000000D+00  0.0000000000000D+00  0.0000000000000D+00
363  3.6200000000000D+00  0.0000000000000D+00  0.0000000000000D+00
364  3.6300000000000D+00  0.0000000000000D+00  0.0000000000000D+00
365  3.6400000000000D+00  0.0000000000000D+00  0.0000000000000D+00
366  3.6500000000000D+00  0.0000000000000D+00  0.0000000000000D+00
367  3.6600000000000D+00  0.0000000000000D+00  0.0000000000000D+00
368  3.6700000000000D+00  0.0000000000000D+00  0.0000000000000D+00
369  3.6800000000000D+00  0.0000000000000D+00  0.0000000000000D+00
370  3.6900000000000D+00  0.0000000000000D+00  0.0000000000000D+00
371  3.7000000000000D+00  0.0000000000000D+00  0.0000000000000D+00
372  3.7100000000000D+00  0.0000000000000D+00  0.0000000000000D+00
373  3.7200000000000D+00  0.0000000000000D+00  0.0000000000000D+00
374  3.7300000000000D+00  0.0000000000000D+00  0.0000000000000D+00
375  3.7400000000000D+00  0.0000000000000D+00  0.0000000000000D+00
376  3.7500000000000D+00  0.0000000000000D+00  0.0000000000000D+00
377  3.7600000000000D+00  0.0000000000000D+00  0.0000000000000D+00
378  3.7700000000000D+00  0.0000000000000D+00  0.0000000000000D+00
379  3.7800000000000D+00  0.0000000000000D+00  0.0000000000000D+00
380  3.7900000000000D+00  0.0000000000000D+00  0.0000000000000D+00
381  3.8000000000000D+00  0.0000000000000D+00  0.0000000000000D+00
382  3.8100000000000D+00  0.0000000000000D+00  0.0000000000000D+00
383  3.8200000000000D+00  0.0000000000000D+00  0.0000000000000D+00
384  3.8300000000000D+00  0.0000000000000D+00  0.0000000000000D+00
385  3.8400000000000D+00  0.0000000000000D+00  0.0000000000000D+00
386  3.8500000000000D+00  0.0000000000000D+00  0.0000000000000D+00
387  3.8600000000000D+00  0.0000000000000D+00  0.0000000000000D+00
388  3.8700000000000D+00  0.0000000000000D+00  0.0000000000000D+00
389  3.8800000000000D+00  0.0000000000000D+00  0.0000000000000D+00
390  3.8900000000000D+00  0.0000000000000D+00  0.0000000000000D+00
391  3.9000000000000D+00  0.0000000000000D+00  0.0000000000000D+00
392  3.9100000000000D+00  0.0000000000000D+00  0.0000000000000D+00
393  3.9200000000000D+00  0.0000000000000D+00  0.0000000000000D+00
394  3.9300000000000D+00  0.0000000000000D+00  0.0000000000000D+00
395  3.9400000000000D+00  0.0000000000000D+00  0.0000000000000D+00
396  3.9500000000000D+00  0.0000000000000D+00  0.0000000000000D+00
397  3.9600000000000D+00  0.0000000000000D+00  0.0000000000000D+00
398  3.9700000000000D+00  0.0000000000000D+00  0.0000000000000D+00
399  3.9800000000000D+00  0.0000000000000D+00  0.0000000000000D+00
400  3.9900000000000D+00  0.0000000000000D+00  0.0000000000000D+00
401  4.0000000000000D+00  0.0000000000000D+00  0.0000000000000D+00
402  4.0100000000000D+00  0.0000000000000D+00  0.0000000000000D+00
403  4.0200000000000D+00  0.0000000000000D+00  0.0000000000000D+00
404  4.0300000000000D+00  0.0000000000000D+00  0.0000000000000D+00
405  4.0400000000000D+00  0.0000000000000D+00  0.0000000000000D+00
406  4.0500000000000D+00  0.0000000000000D+00  0.0000000000000D+00
407  4.0600000000000D+00  0.0000000000000D+00  0.0000000000000D+00
408  4.0700000000000D+00  0.0000000000000D+00  0.0000000000000D+00
409  4.0800000000000D+00  0.0000000000000D+00  0.0000000000000D+00
410  4.0900000000000D+00  0.0000000000000D+00  0.0000000000000D+00
411  4.1000000000000D+00  0.0000000000000D+00  0.0000000000000D+00
412  4.1100000000000D+00  0.0000000000000D+00  0.0000000000000D+00
413  4.1200000000000D+00  0.0000000000000D+00  0.0000000000000D+00
414  4.1300000000000D+00  0.0000000000000D+00  0.0000000000000D+00
415  4.1400000000000D+00  0.0000000000000D+00  0.0000000000000D+00
416  4.1500000000000D+00  0.0000000000000D+00  0.0000000000000D+00
417  4.1600000000000D+00  0.0000000000000D+00  0.0000000000000D+00
418  4.1700000000000D+00  0.0000000000000D+00  0.0000000000000D+00
419  4.1800000000000D+00  0.0000000000000D+00  0.0000000000000D+00
420  4.1900000000000D+00  0.0000000000000D+00  0.0000000000000D+00
421  4.2000000000000D+00  0.0000000000000D+00  0.0000000000000D+00
422  4.2100000000000D+00  0.0000000000000D+00  0.0000000000000D+00
423  4.2200000000000D+00  0.0000000000000D+00  0.0000000000000D+00
424  4.2300000000000D+00  0.0000000000000D+00  0.0000000000000D+00
425  4.2400000000000D+00  0.0000000000000D+00  0.0000000000000D+00
426  4.2500000000000D+00  0.0000000000000D+00  0.0000000000000D+00
427  4.2600000000000D+00  0.0000000000000D+00  0.0000000000000D+00
428  4.2700000000000D+00  0.0000000000000D+00  0.0000000000000D+00
429  4.2800000000000D+00  0.0000000000000D+00  0.0000000000000D+00
430  4.2900000000000D+00  0.0000000000000D+00  0.0000000000000D+00
431  4.3000000000000D+00  0.0000000000000D+00  0.0000000000000D+00
432  4.3100000000000D+00  0.0000000000000D+00  0.0000000000000D+00
433  4.3200000000000D+00  0.0000000000000D+00  0.0000000000000D+00
434  4.3300000000000D+00  0.0000000000000D+00  0.0000000000000D+00
435  4.3400000000000D+00  0.0000000000000D+00  0.0000000000000D+00
436  4.3500000000000D+00  0.0000000000000D+00  0.0000000000000D+00
437  4.3600000000000D+00  0.0000000000000D+00  0.0000000000000D+00
438  4.3700000000000D+00  0.0000000000000D+00  0.0000000000000D+00
439  4.3800000000000D+00  0.0000000000000D+00  0.0000000000000D+00
440  4.3900000000000D+00  0.0000000000000D+00  0.0000000000000D+00
441  4.4000000000000D+00  0.0000000000000D+00  0.0000000000000D+00
442  4.4100000000000D+00  0.0000000000000D+00  0.0000000000000D+00
443  4.4200000000000D+00  0.0000000000000D+00  0.0000000000000D+00