Rb    ONCVPSP-3.3.0  r_core=   1.71227   1.75361   1.90633
37.0000      9.0000      180112    zatom,zion,pspd
8 -116133   2     4   600     0    pspcod,pspxc,lmax,lloc,mmax,r2well
5.99000000  7.00000000  0.00000000    rchrg fchrg qchrg
2     2     2     0     0    nproj
1     1           extension_switch
0                         8.1969565804662D+00 -4.7722144885822D-01
1  0.0000000000000D+00  3.9428171838551D-10  1.6696546992212D-09
2  1.0000000000000D-02  5.7211026478338D-02 -7.2003614350711D-03
3  2.0000000000000D-02  1.1436204292123D-01 -1.4281060275307D-02
4  3.0000000000000D-02  1.7139271862259D-01 -2.1124304377199D-02
5  4.0000000000000D-02  2.2824208838421D-01 -2.7616013431189D-02
6  5.0000000000000D-02  2.8484825229063D-01 -3.3647602639884D-02
7  6.0000000000000D-02  3.4114809562430D-01 -3.9117680915905D-02
8  7.0000000000000D-02  3.9707703516448D-01 -4.3933637097291D-02
9  8.0000000000000D-02  4.5256879771893D-01 -4.8013089348080D-02
10  9.0000000000000D-02  5.0755523625515D-01 -5.1285174952736D-02
11  1.0000000000000D-01  5.6196618843514D-01 -5.3691660095863D-02
12  1.1000000000000D-01  6.1572938172102D-01 -5.5187851908530D-02
13  1.2000000000000D-01  6.6877038851949D-01 -5.5743298020340D-02
14  1.3000000000000D-01  7.2101263407906D-01 -5.5342262038672D-02
15  1.4000000000000D-01  7.7237745905741D-01 -5.3983966737758D-02
16  1.5000000000000D-01  8.2278423784822D-01 -5.1682600229963D-02
17  1.6000000000000D-01  8.7215055290868D-01 -4.8467083960382D-02
18  1.7000000000000D-01  9.2039242447373D-01 -4.4380604960002D-02
19  1.8000000000000D-01  9.6742459419265D-01 -3.9479918360454D-02
20  1.9000000000000D-01  1.0131608603902D+00 -3.3834429661827D-02
21  2.0000000000000D-01  1.0575144618504D+00 -2.7525069602944D-02
22  2.1000000000000D-01  1.1003985062570D+00 -2.0642977661629D-02
23  2.2000000000000D-01  1.1417264387143D+00 -1.3288013162805D-02
24  2.3000000000000D-01  1.1814125451213D+00 -5.5671156521935D-03
25  2.4000000000000D-01  1.2193724845945D+00  2.4074614382410D-03
26  2.5000000000000D-01  1.2555238446375D+00  1.0520017785319D-02
27  2.6000000000000D-01  1.2897867123449D+00  1.8653346137862D-02
28  2.7000000000000D-01  1.3220842546111D+00  2.6690716314764D-02
29  2.8000000000000D-01  1.3523433000948D+00  3.4517873484687D-02
30  2.9000000000000D-01  1.3804949155769D+00  4.2025020591476D-02
31  3.0000000000000D-01  1.4064749693303D+00  4.9108754847802D-02
32  3.1000000000000D-01  1.4302246742161D+00  5.5673928723285D-02
33  3.2000000000000D-01  1.4516911034114D+00  6.1635406793540D-02
34  3.3000000000000D-01  1.4708276719678D+00  6.6919691183461D-02
35  3.4000000000000D-01  1.4875945777919D+00  7.1466390111813D-02
36  3.5000000000000D-01  1.5019591961187D+00  7.5229506201490D-02
37  3.6000000000000D-01  1.5138964221171D+00  7.8178523729779D-02
38  3.7000000000000D-01  1.5233889569059D+00  8.0299276821223D-02
39  3.8000000000000D-01  1.5304275329732D+00  8.1594583691327D-02
40  3.9000000000000D-01  1.5350110757558D+00  8.2084635389197D-02
41  4.0000000000000D-01  1.5371467989526D+00  8.1807131012554D-02
42  4.1000000000000D-01  1.5368502319930D+00  8.0817155028971D-02
43  4.2000000000000D-01  1.5341451789573D+00  7.9186796080321D-02
44  4.3000000000000D-01  1.5290636091258D+00  7.7004510418186D-02
45  4.4000000000000D-01  1.5216454802174D+00  7.4374236861572D-02
46  4.5000000000000D-01  1.5119384962452D+00  7.1414273830641D-02
47  4.6000000000000D-01  1.4999978027553D+00  6.8255932536170D-02
48  4.7000000000000D-01  1.4858856230182D+00  6.5041983743054D-02
49  4.8000000000000D-01  1.4696708394896D+00  6.1924918626758D-02
50  4.9000000000000D-01  1.4514285255518D+00  5.9065047058869D-02
51  5.0000000000000D-01  1.4312394331578D+00  5.6628459147980D-02
52  5.1000000000000D-01  1.4091894425461D+00  5.4784877988307D-02
53  5.2000000000000D-01  1.3853689806361D+00  5.3705433296459D-02
54  5.3000000000000D-01  1.3598724150760D+00  5.3560386921436D-02
55  5.4000000000000D-01  1.3327974311661D+00  5.4516842071011D-02
56  5.5000000000000D-01  1.3042443990348D+00  5.6736468495261D-02
57  5.6000000000000D-01  1.2743157384914D+00  6.0373275798271D-02
58  5.7000000000000D-01  1.2431152889192D+00  6.5571466507823D-02
59  5.8000000000000D-01  1.2107476914080D+00  7.2463399529854D-02
60  5.9000000000000D-01  1.1773177900580D+00  8.1167693156806D-02
61  6.0000000000000D-01  1.1429300590189D+00  9.1787494912528D-02
62  6.1000000000000D-01  1.1076880613687D+00  1.0440894322051D-01
63  6.2000000000000D-01  1.0716939453906D+00  1.1909984320878D-01
64  6.3000000000000D-01  1.0350479831799D+00  1.3590857596603D-01
65  6.4000000000000D-01  9.9784815581770D-01  1.5486325724650D-01
66  6.5000000000000D-01  9.6018978859820D-01  1.7597115808359D-01
67  6.6000000000000D-01  9.2216523899283D-01  1.9921839601986D-01
68  6.7000000000000D-01  8.8386363919950D-01  2.2456990176670D-01
69  6.8000000000000D-01  8.4537069426718D-01  2.5196966213754D-01
70  6.9000000000000D-01  8.0676853591892D-01  2.8134123610019D-01
71  7.0000000000000D-01  7.6813563132930D-01  3.1258853681096D-01
72  7.1000000000000D-01  7.2954674526690D-01  3.4559686862580D-01
73  7.2000000000000D-01  6.9107295319302D-01  3.8023420434465D-01
74  7.3000000000000D-01  6.5278170213552D-01  4.1635268443535D-01
75  7.4000000000000D-01  6.1473691543156D-01  4.5379031669712D-01
76  7.5000000000000D-01  5.7699913678174D-01  4.9237285188237D-01
77  7.6000000000000D-01  5.3962570847815D-01  5.3191580818733D-01
78  7.7000000000000D-01  5.0267097817584D-01  5.7222661531545D-01
79  7.8000000000000D-01  4.6618652817733D-01  6.1310684704068D-01
80  7.9000000000000D-01  4.3022142090046D-01  6.5435450988042D-01
81  8.0000000000000D-01  3.9482245400487D-01  6.9576635465220D-01
82  8.1000000000000D-01  3.6003441856653D-01  7.3714017734679D-01
83  8.2000000000000D-01  3.2590035371413D-01  7.7827707591736D-01
84  8.3000000000000D-01  2.9246179127677D-01  8.1898363025306D-01
85  8.4000000000000D-01  2.5975898423611D-01  8.5907397377197D-01
86  8.5000000000000D-01  2.2783111312681D-01  8.9837172671861D-01
87  8.6000000000000D-01  1.9671646498000D-01  9.3671176336069D-01
88  8.7000000000000D-01  1.6645257995055D-01  9.7394178782114D-01
89  8.8000000000000D-01  1.3707636140076D-01  1.0099236962176D+00
90  8.9000000000000D-01  1.0862414592260D-01  1.0445347060712D+00
91  9.0000000000000D-01  8.1131730555984D-02  1.0776682375397D+00
92  9.1000000000000D-01  5.4634355290568D-02  1.1092345348786D+00
93  9.2000000000000D-01  2.9166639809173D-02  1.1391610205680D+00
94  9.3000000000000D-01  4.7624743365131D-03  1.1673923787511D+00
95  9.4000000000000D-01 -1.8545134643493D-02  1.1938903688090D+00
96  9.5000000000000D-01 -4.0724262108768D-02  1.2186333742372D+00
97  9.6000000000000D-01 -6.1744303079168D-02  1.2416156961284D+00
98  9.7000000000000D-01 -8.1576248605130D-02  1.2628466046657D+00
99  9.8000000000000D-01 -1.0019299489150D-01  1.2823491659113D+00
100  9.9000000000000D-01 -1.1756968051822D-01  1.3001588648254D+00
101  1.0000000000000D+00 -1.3368404602627D-01  1.3163220487764D+00
102  1.0100000000000D+00 -1.4851680952229D-01  1.3308942188126D+00
103  1.0200000000000D+00 -1.6205205145070D-01  1.3439381984750D+00
104  1.0300000000000D+00 -1.7427760125815D-01  1.3555222121085D+00
105  1.0400000000000D+00 -1.8518541837816D-01  1.3657179062570D+00
106  1.0500000000000D+00 -1.9477195978790D-01  1.3745983488148D+00
107  1.0600000000000D+00 -2.0303852632447D-01  1.3822360412209D+00
108  1.0700000000000D+00 -2.0999158004457D-01  1.3887009789166D+00
109  1.0800000000000D+00 -2.1564302505811D-01  1.3940587949287D+00
110  1.0900000000000D+00 -2.2001044464758D-01  1.3983690201796D+00
111  1.1000000000000D+00 -2.2311728790152D-01  1.4016834925952D+00
112  1.1100000000000D+00 -2.2499299969604D-01  1.4040449448077D+00
113  1.1200000000000D+00 -2.2567308852494D-01  1.4054857976582D+00
114  1.1300000000000D+00 -2.2519912742376D-01  1.4060271837879D+00
115  1.1400000000000D+00 -2.2361868422829D-01  1.4056782216307D+00
116  1.1500000000000D+00 -2.2098517833478D-01  1.4044355563897D+00
117  1.1600000000000D+00 -2.1735766216761D-01  1.4022831803775D+00
118  1.1700000000000D+00 -2.1280052657958D-01  1.3991925409633D+00
119  1.1800000000000D+00 -2.0738313076118D-01  1.3951229388460D+00
120  1.1900000000000D+00 -2.0117935837645D-01  1.3900222146961D+00
121  1.2000000000000D+00 -1.9426710253141D-01  1.3838277185659D+00
122  1.2100000000000D+00 -1.8672768375218D-01  1.3764675500137D+00
123  1.2200000000000D+00 -1.7864520621597D-01  1.3678620524886D+00
124  1.2300000000000D+00 -1.7010585847876D-01  1.3579255414050D+00
125  1.2400000000000D+00 -1.6119716594107D-01  1.3465682412213D+00
126  1.2500000000000D+00 -1.5200720369760D-01  1.3336984010413D+00
127  1.2600000000000D+00 -1.4262377897357D-01  1.3192245559563D+00
128  1.2700000000000D+00 -1.3313359300883D-01  1.3030578986264D+00
129  1.2800000000000D+00 -1.2362139354494D-01  1.2851147202550D+00
130  1.2900000000000D+00 -1.1416912905898D-01  1.2653188801335D+00
131  1.3000000000000D+00 -1.0485511647101D-01  1.2436042605411D+00
132  1.3100000000000D+00 -9.5753234604379D-02  1.2199171614560D+00
133  1.3200000000000D+00 -8.6932155276221D-02  1.1942185911488D+00
134  1.3300000000000D+00 -7.8454624487969D-02  1.1664864063157D+00
135  1.3400000000000D+00 -7.0376805358881D-02  1.1367172586387D+00
136  1.3500000000000D+00 -6.2747694361840D-02  1.1049283049944D+00
137  1.3600000000000D+00 -5.5608622375771D-02  1.0711586386991D+00
138  1.3700000000000D+00 -4.8992849698819D-02  1.0354704084800D+00
139  1.3800000000000D+00 -4.2925265765734D-02  9.9794958558664D-01
140  1.3900000000000D+00 -3.7422201130258D-02  9.5870635196781D-01
141  1.4000000000000D+00 -3.2491358098807D-02  9.1787508687069D-01
142  1.4100000000000D+00 -2.8131868109095D-02  8.7561392277853D-01
143  1.4200000000000D+00 -2.4334476650841D-02  8.3210386964921D-01
144  1.4300000000000D+00 -2.1081861347592D-02  7.8754748785517D-01
145  1.4400000000000D+00 -1.8349082461227D-02  7.4216711476744D-01
146  1.4500000000000D+00 -1.6104163165104D-02  6.9620265664039D-01
147  1.4600000000000D+00 -1.4308800802137D-02  6.4990894356275D-01
148  1.4700000000000D+00 -1.2919196612640D-02  6.0355269581670D-01
149  1.4800000000000D+00 -1.1887004088678D-02  5.5740910345317D-01
150  1.4900000000000D+00 -1.1160379018775D-02  5.1175808361974D-01
151  1.5000000000000D+00 -1.0685122261926D-02  4.6688025044478D-01
152  1.5100000000000D+00 -1.0405900699786D-02  4.2305265365069D-01
153  1.5200000000000D+00 -1.0267523050681D-02  3.8054437113261D-01
154  1.5300000000000D+00 -1.0216260520462D-02  3.3961199653302D-01
155  1.5400000000000D+00 -1.0201173888482D-02  3.0049515802674D-01
156  1.5500000000000D+00 -1.0175439089015D-02  2.6341210331525D-01
157  1.5600000000000D+00 -1.0097623456801D-02  2.2855551746327D-01
158  1.5700000000000D+00 -9.9328972662848D-03  1.9608863388920D-01
159  1.5800000000000D+00 -9.6541323030326D-03  1.6614180548666D-01
160  1.5900000000000D+00 -9.2428580539408D-03  1.3880964136347D-01
161  1.6000000000000D+00 -8.6900297303657D-03  1.1414886795877D-01
162  1.6100000000000D+00 -7.9965625157217D-03  9.2177069221630D-02
163  1.6200000000000D+00 -7.1735897309094D-03  7.2872454603321D-02
164  1.6300000000000D+00 -6.2423813977268D-03  5.6174860896958D-02
165  1.6400000000000D+00 -5.2338850647185D-03  4.1988125991469D-02
166  1.6500000000000D+00 -4.1878057394327D-03  3.0184093959018D-02
167  1.6600000000000D+00 -3.1522636989597D-03  2.0614203340078D-02
168  1.6700000000000D+00 -2.1768313809189D-03  1.3090435822274D-02
169  1.6800000000000D+00 -1.3118047014567D-03  7.4085984679530D-03
170  1.6900000000000D+00 -6.2905662923565D-04  3.4794330720795D-03
171  1.7000000000000D+00 -1.8634887983806D-04  1.1960656392942D-03
172  1.7100000000000D+00  2.5787887151009D-05  1.7193100495364D-04
173  1.7200000000000D+00  6.1210497032663D-05 -9.3715445546903D-05
174  1.7300000000000D+00  1.4775669444184D-05 -3.1146924838705D-05
175  1.7400000000000D+00 -1.3742133533739D-05  3.3618581639616D-05
176  1.7500000000000D+00 -6.4572230969592D-06  1.6577442358609D-05
177  1.7600000000000D+00  2.3873855080471D-06 -5.5983571144716D-06
178  1.7700000000000D+00  1.6381933451283D-06 -3.9910370913318D-06
179  1.7800000000000D+00 -1.0238746408407D-07 -1.3897780133294D-07
180  1.7900000000000D+00 -9.8083662066123D-08 -1.3313594415660D-07
181  1.8000000000000D+00  0.0000000000000D+00  0.0000000000000D+00
182  1.8100000000000D+00  0.0000000000000D+00  0.0000000000000D+00
183  1.8200000000000D+00  0.0000000000000D+00  0.0000000000000D+00
184  1.8300000000000D+00  0.0000000000000D+00  0.0000000000000D+00
185  1.8400000000000D+00  0.0000000000000D+00  0.0000000000000D+00
186  1.8500000000000D+00  0.0000000000000D+00  0.0000000000000D+00
187  1.8600000000000D+00  0.0000000000000D+00  0.0000000000000D+00
188  1.8700000000000D+00  0.0000000000000D+00  0.0000000000000D+00
189  1.8800000000000D+00  0.0000000000000D+00  0.0000000000000D+00
190  1.8900000000000D+00  0.0000000000000D+00  0.0000000000000D+00
191  1.9000000000000D+00  0.0000000000000D+00  0.0000000000000D+00
192  1.9100000000000D+00  0.0000000000000D+00  0.0000000000000D+00
193  1.9200000000000D+00  0.0000000000000D+00  0.0000000000000D+00
194  1.9300000000000D+00  0.0000000000000D+00  0.0000000000000D+00
195  1.9400000000000D+00  0.0000000000000D+00  0.0000000000000D+00
196  1.9500000000000D+00  0.0000000000000D+00  0.0000000000000D+00
197  1.9600000000000D+00  0.0000000000000D+00  0.0000000000000D+00
198  1.9700000000000D+00  0.0000000000000D+00  0.0000000000000D+00
199  1.9800000000000D+00  0.0000000000000D+00  0.0000000000000D+00
200  1.9900000000000D+00  0.0000000000000D+00  0.0000000000000D+00
201  2.0000000000000D+00  0.0000000000000D+00  0.0000000000000D+00
202  2.0100000000000D+00  0.0000000000000D+00  0.0000000000000D+00
203  2.0200000000000D+00  0.0000000000000D+00  0.0000000000000D+00
204  2.0300000000000D+00  0.0000000000000D+00  0.0000000000000D+00
205  2.0400000000000D+00  0.0000000000000D+00  0.0000000000000D+00
206  2.0500000000000D+00  0.0000000000000D+00  0.0000000000000D+00
207  2.0600000000000D+00  0.0000000000000D+00  0.0000000000000D+00
208  2.0700000000000D+00  0.0000000000000D+00  0.0000000000000D+00
209  2.0800000000000D+00  0.0000000000000D+00  0.0000000000000D+00
210  2.0900000000000D+00  0.0000000000000D+00  0.0000000000000D+00
211  2.1000000000000D+00  0.0000000000000D+00  0.0000000000000D+00
212  2.1100000000000D+00  0.0000000000000D+00  0.0000000000000D+00
213  2.1200000000000D+00  0.0000000000000D+00  0.0000000000000D+00
214  2.1300000000000D+00  0.0000000000000D+00  0.0000000000000D+00
215  2.1400000000000D+00  0.0000000000000D+00  0.0000000000000D+00
216  2.1500000000000D+00  0.0000000000000D+00  0.0000000000000D+00
217  2.1600000000000D+00  0.0000000000000D+00  0.0000000000000D+00
218  2.1700000000000D+00  0.0000000000000D+00  0.0000000000000D+00
219  2.1800000000000D+00  0.0000000000000D+00  0.0000000000000D+00
220  2.1900000000000D+00  0.0000000000000D+00  0.0000000000000D+00
221  2.2000000000000D+00  0.0000000000000D+00  0.0000000000000D+00
222  2.2100000000000D+00  0.0000000000000D+00  0.0000000000000D+00
223  2.2200000000000D+00  0.0000000000000D+00  0.0000000000000D+00
224  2.2300000000000D+00  0.0000000000000D+00  0.0000000000000D+00
225  2.2400000000000D+00  0.0000000000000D+00  0.0000000000000D+00
226  2.2500000000000D+00  0.0000000000000D+00  0.0000000000000D+00
227  2.2600000000000D+00  0.0000000000000D+00  0.0000000000000D+00
228  2.2700000000000D+00  0.0000000000000D+00  0.0000000000000D+00
229  2.2800000000000D+00  0.0000000000000D+00  0.0000000000000D+00
230  2.2900000000000D+00  0.0000000000000D+00  0.0000000000000D+00
231  2.3000000000000D+00  0.0000000000000D+00  0.0000000000000D+00
232  2.3100000000000D+00  0.0000000000000D+00  0.0000000000000D+00
233  2.3200000000000D+00  0.0000000000000D+00  0.0000000000000D+00
234  2.3300000000000D+00  0.0000000000000D+00  0.0000000000000D+00
235  2.3400000000000D+00  0.0000000000000D+00  0.0000000000000D+00
236  2.3500000000000D+00  0.0000000000000D+00  0.0000000000000D+00
237  2.3600000000000D+00  0.0000000000000D+00  0.0000000000000D+00
238  2.3700000000000D+00  0.0000000000000D+00  0.0000000000000D+00
239  2.3800000000000D+00  0.0000000000000D+00  0.0000000000000D+00
240  2.3900000000000D+00  0.0000000000000D+00  0.0000000000000D+00
241  2.4000000000000D+00  0.0000000000000D+00  0.0000000000000D+00
242  2.4100000000000D+00  0.0000000000000D+00  0.0000000000000D+00
243  2.4200000000000D+00  0.0000000000000D+00  0.0000000000000D+00
244  2.4300000000000D+00  0.0000000000000D+00  0.0000000000000D+00
245  2.4400000000000D+00  0.0000000000000D+00  0.0000000000000D+00
246  2.4500000000000D+00  0.0000000000000D+00  0.0000000000000D+00
247  2.4600000000000D+00  0.0000000000000D+00  0.0000000000000D+00
248  2.4700000000000D+00  0.0000000000000D+00  0.0000000000000D+00
249  2.4800000000000D+00  0.0000000000000D+00  0.0000000000000D+00
250  2.4900000000000D+00  0.0000000000000D+00  0.0000000000000D+00
251  2.5000000000000D+00  0.0000000000000D+00  0.0000000000000D+00
252  2.5100000000000D+00  0.0000000000000D+00  0.0000000000000D+00
253  2.5200000000000D+00  0.0000000000000D+00  0.0000000000000D+00
254  2.5300000000000D+00  0.0000000000000D+00  0.0000000000000D+00
255  2.5400000000000D+00  0.0000000000000D+00  0.0000000000000D+00
256  2.5500000000000D+00  0.0000000000000D+00  0.0000000000000D+00
257  2.5600000000000D+00  0.0000000000000D+00  0.0000000000000D+00
258  2.5700000000000D+00  0.0000000000000D+00  0.0000000000000D+00
259  2.5800000000000D+00  0.0000000000000D+00  0.0000000000000D+00
260  2.5900000000000D+00  0.0000000000000D+00  0.0000000000000D+00
261  2.6000000000000D+00  0.0000000000000D+00  0.0000000000000D+00
262  2.6100000000000D+00  0.0000000000000D+00  0.0000000000000D+00
263  2.6200000000000D+00  0.0000000000000D+00  0.0000000000000D+00
264  2.6300000000000D+00  0.0000000000000D+00  0.0000000000000D+00
265  2.6400000000000D+00  0.0000000000000D+00  0.0000000000000D+00
266  2.6500000000000D+00  0.0000000000000D+00  0.0000000000000D+00
267  2.6600000000000D+00  0.0000000000000D+00  0.0000000000000D+00
268  2.6700000000000D+00  0.0000000000000D+00  0.0000000000000D+00
269  2.6800000000000D+00  0.0000000000000D+00  0.0000000000000D+00
270  2.6900000000000D+00  0.0000000000000D+00  0.0000000000000D+00
271  2.7000000000000D+00  0.0000000000000D+00  0.0000000000000D+00
272  2.7100000000000D+00  0.0000000000000D+00  0.0000000000000D+00
273  2.7200000000000D+00  0.0000000000000D+00  0.0000000000000D+00
274  2.7300000000000D+00  0.0000000000000D+00  0.0000000000000D+00
275  2.7400000000000D+00  0.0000000000000D+00  0.0000000000000D+00
276  2.7500000000000D+00  0.0000000000000D+00  0.0000000000000D+00
277  2.7600000000000D+00  0.0000000000000D+00  0.0000000000000D+00
278  2.7700000000000D+00  0.0000000000000D+00  0.0000000000000D+00
279  2.7800000000000D+00  0.0000000000000D+00  0.0000000000000D+00
280  2.7900000000000D+00  0.0000000000000D+00  0.0000000000000D+00
281  2.8000000000000D+00  0.0000000000000D+00  0.0000000000000D+00
282  2.8100000000000D+00  0.0000000000000D+00  0.0000000000000D+00
283  2.8200000000000D+00  0.0000000000000D+00  0.0000000000000D+00
284  2.8300000000000D+00  0.0000000000000D+00  0.0000000000000D+00
285  2.8400000000000D+00  0.0000000000000D+00  0.0000000000000D+00
286  2.8500000000000D+00  0.0000000000000D+00  0.0000000000000D+00
287  2.8600000000000D+00  0.0000000000000D+00  0.0000000000000D+00
288  2.8700000000000D+00  0.0000000000000D+00  0.0000000000000D+00
289  2.8800000000000D+00  0.0000000000000D+00  0.0000000000000D+00
290  2.8900000000000D+00  0.0000000000000D+00  0.0000000000000D+00
291  2.9000000000000D+00  0.0000000000000D+00  0.0000000000000D+00
292  2.9100000000000D+00  0.0000000000000D+00  0.0000000000000D+00
293  2.9200000000000D+00  0.0000000000000D+00  0.0000000000000D+00
294  2.9300000000000D+00  0.0000000000000D+00  0.0000000000000D+00
295  2.9400000000000D+00  0.0000000000000D+00  0.0000000000000D+00
296  2.9500000000000D+00  0.0000000000000D+00  0.0000000000000D+00
297  2.9600000000000D+00  0.0000000000000D+00  0.0000000000000D+00
298  2.9700000000000D+00  0.0000000000000D+00  0.0000000000000D+00
299  2.9800000000000D+00  0.0000000000000D+00  0.0000000000000D+00
300  2.9900000000000D+00  0.0000000000000D+00  0.0000000000000D+00
301  3.0000000000000D+00  0.0000000000000D+00  0.0000000000000D+00
302  3.0100000000000D+00  0.0000000000000D+00  0.0000000000000D+00
303  3.0200000000000D+00  0.0000000000000D+00  0.0000000000000D+00
304  3.0300000000000D+00  0.0000000000000D+00  0.0000000000000D+00
305  3.0400000000000D+00  0.0000000000000D+00  0.0000000000000D+00
306  3.0500000000000D+00  0.0000000000000D+00  0.0000000000000D+00
307  3.0600000000000D+00  0.0000000000000D+00  0.0000000000000D+00
308  3.0700000000000D+00  0.0000000000000D+00  0.0000000000000D+00
309  3.0800000000000D+00  0.0000000000000D+00  0.0000000000000D+00
310  3.0900000000000D+00  0.0000000000000D+00  0.0000000000000D+00
311  3.1000000000000D+00  0.0000000000000D+00  0.0000000000000D+00
312  3.1100000000000D+00  0.0000000000000D+00  0.0000000000000D+00
313  3.1200000000000D+00  0.0000000000000D+00  0.0000000000000D+00
314  3.1300000000000D+00  0.0000000000000D+00  0.0000000000000D+00
315  3.1400000000000D+00  0.0000000000000D+00  0.0000000000000D+00
316  3.1500000000000D+00  0.0000000000000D+00  0.0000000000000D+00
317  3.1600000000000D+00  0.0000000000000D+00  0.0000000000000D+00
318  3.1700000000000D+00  0.0000000000000D+00  0.0000000000000D+00
319  3.1800000000000D+00  0.0000000000000D+00  0.0000000000000D+00
320  3.1900000000000D+00  0.0000000000000D+00  0.0000000000000D+00
321  3.2000000000000D+00  0.0000000000000D+00  0.0000000000000D+00
322  3.2100000000000D+00  0.0000000000000D+00  0.0000000000000D+00
323  3.2200000000000D+00  0.0000000000000D+00  0.0000000000000D+00
324  3.2300000000000D+00  0.0000000000000D+00  0.0000000000000D+00
325  3.2400000000000D+00  0.0000000000000D+00  0.0000000000000D+00
326  3.2500000000000D+00  0.0000000000000D+00  0.0000000000000D+00
327  3.2600000000000D+00  0.0000000000000D+00  0.0000000000000D+00
328  3.2700000000000D+00  0.0000000000000D+00  0.0000000000000D+00
329  3.2800000000000D+00  0.0000000000000D+00  0.0000000000000D+00
330  3.2900000000000D+00  0.0000000000000D+00  0.0000000000000D+00
331  3.3000000000000D+00  0.0000000000000D+00  0.0000000000000D+00
332  3.3100000000000D+00  0.0000000000000D+00  0.0000000000000D+00
333  3.3200000000000D+00  0.0000000000000D+00  0.0000000000000D+00
334  3.3300000000000D+00  0.0000000000000D+00  0.0000000000000D+00
335  3.3400000000000D+00  0.0000000000000D+00  0.0000000000000D+00
336  3.3500000000000D+00  0.0000000000000D+00  0.0000000000000D+00
337  3.3600000000000D+00  0.0000000000000D+00  0.0000000000000D+00
338  3.3700000000000D+00  0.0000000000000D+00  0.0000000000000D+00
339  3.3800000000000D+00  0.0000000000000D+00  0.0000000000000D+00
340  3.3900000000000D+00  0.0000000000000D+00  0.0000000000000D+00
341  3.4000000000000D+00  0.0000000000000D+00  0.0000000000000D+00
342  3.4100000000000D+00  0.0000000000000D+00  0.0000000000000D+00
343  3.4200000000000D+00  0.0000000000000D+00  0.0000000000000D+00
344  3.4300000000000D+00  0.0000000000000D+00  0.0000000000000D+00
345  3.4400000000000D+00  0.0000000000000D+00  0.0000000000000D+00
346  3.4500000000000D+00  0.0000000000000D+00  0.0000000000000D+00
347  3.4600000000000D+00  0.0000000000000D+00  0.0000000000000D+00
348  3.4700000000000D+00  0.0000000000000D+00  0.0000000000000D+00
349  3.4800000000000D+00  0.0000000000000D+00  0.0000000000000D+00
350  3.4900000000000D+00  0.0000000000000D+00  0.0000000000000D+00
351  3.5000000000000D+00  0.0000000000000D+00  0.0000000000000D+00
352  3.5100000000000D+00  0.0000000000000D+00  0.0000000000000D+00
353  3.5200000000000D+00  0.0000000000000D+00  0.0000000000000D+00
354  3.5300000000000D+00  0.0000000000000D+00  0.0000000000000D+00
355  3.5400000000000D+00  0.0000000000000D+00  0.0000000000000D+00
356  3.5500000000000D+00  0.0000000000000D+00  0.0000000000000D+00
357  3.5600000000000D+00  0.0000000000000D+00  0.0000000000000D+00
358  3.5700000000000D+00  0.0000000000000D+00  0.0000000000000D+00
359  3.5800000000000D+00  0.0000000000000D+00  0.0000000000000D+00
360  3.5900000000000D+00  0.0000000000000D+00  0.0000000000000D+00
361  3.6000000000000D+00  0.0000000000000D+00  0.0000000000000D+00
362  3.6100000000000D+00  0.0000000000000D+00  0.0000000000000D+00
363  3.6200000000000D+00  0.0000000000000D+00  0.0000000000000D+00
364  3.6300000000000D+00  0.0000000000000D+00  0.0000000000000D+00
365  3.6400000000000D+00  0.0000000000000D+00  0.0000000000000D+00
366  3.6500000000000D+00  0.0000000000000D+00  0.0000000000000D+00
367  3.6600000000000D+00  0.0000000000000D+00  0.0000000000000D+00
368  3.6700000000000D+00  0.0000000000000D+00  0.0000000000000D+00
369  3.6800000000000D+00  0.0000000000000D+00  0.0000000000000D+00
370  3.6900000000000D+00  0.0000000000000D+00  0.0000000000000D+00
371  3.7000000000000D+00  0.0000000000000D+00  0.0000000000000D+00
372  3.7100000000000D+00  0.0000000000000D+00  0.0000000000000D+00
373  3.7200000000000D+00  0.0000000000000D+00  0.0000000000000D+00
374  3.7300000000000D+00  0.0000000000000D+00  0.0000000000000D+00
375  3.7400000000000D+00  0.0000000000000D+00  0.0000000000000D+00
376  3.7500000000000D+00  0.0000000000000D+00  0.0000000000000D+00
377  3.7600000000000D+00  0.0000000000000D+00  0.0000000000000D+00
378  3.7700000000000D+00  0.0000000000000D+00  0.0000000000000D+00
379  3.7800000000000D+00  0.0000000000000D+00  0.0000000000000D+00
380  3.7900000000000D+00  0.0000000000000D+00  0.0000000000000D+00
381  3.8000000000000D+00  0.0000000000000D+00  0.0000000000000D+00
382  3.8100000000000D+00  0.0000000000000D+00  0.0000000000000D+00
383  3.8200000000000D+00  0.0000000000000D+00  0.0000000000000D+00
384  3.8300000000000D+00  0.0000000000000D+00  0.0000000000000D+00
385  3.8400000000000D+00  0.0000000000000D+00  0.0000000000000D+00
386  3.8500000000000D+00  0.0000000000000D+00  0.0000000000000D+00
387  3.8600000000000D+00  0.0000000000000D+00  0.0000000000000D+00
388  3.8700000000000D+00  0.0000000000000D+00  0.0000000000000D+00
389  3.8800000000000D+00  0.0000000000000D+00  0.0000000000000D+00
390  3.8900000000000D+00  0.0000000000000D+00  0.0000000000000D+00
391  3.9000000000000D+00  0.0000000000000D+00  0.0000000000000D+00
392  3.9100000000000D+00  0.0000000000000D+00  0.0000000000000D+00
393  3.9200000000000D+00  0.0000000000000D+00  0.0000000000000D+00
394  3.9300000000000D+00  0.0000000000000D+00  0.0000000000000D+00
395  3.9400000000000D+00  0.0000000000000D+00  0.0000000000000D+00
396  3.9500000000000D+00  0.0000000000000D+00  0.0000000000000D+00
397  3.9600000000000D+00  0.0000000000000D+00  0.0000000000000D+00
398  3.9700000000000D+00  0.0000000000000D+00  0.0000000000000D+00
399  3.9800000000000D+00  0.0000000000000D+00  0.0000000000000D+00
400  3.9900000000000D+00  0.0000000000000D+00  0.0000000000000D+00
401  4.0000000000000D+00  0.0000000000000D+00  0.0000000000000D+00
402  4.0100000000000D+00  0.0000000000000D+00  0.0000000000000D+00
403  4.0200000000000D+00  0.0000000000000D+00  0.0000000000000D+00
404  4.0300000000000D+00  0.0000000000000D+00  0.0000000000000D+00
405  4.0400000000000D+00  0.0000000000000D+00  0.0000000000000D+00
406  4.0500000000000D+00  0.0000000000000D+00  0.0000000000000D+00
407  4.0600000000000D+00  0.0000000000000D+00  0.0000000000000D+00
408  4.0700000000000D+00  0.0000000000000D+00  0.0000000000000D+00
409  4.0800000000000D+00  0.0000000000000D+00  0.0000000000000D+00
410  4.0900000000000D+00  0.0000000000000D+00  0.0000000000000D+00
411  4.1000000000000D+00  0.0000000000000D+00  0.0000000000000D+00
412  4.1100000000000D+00  0.0000000000000D+00  0.0000000000000D+00
413  4.1200000000000D+00  0.0000000000000D+00  0.0000000000000D+00
414  4.1300000000000D+00  0.0000000000000D+00  0.0000000000000D+00
415  4.1400000000000D+00  0.0000000000000D+00  0.0000000000000D+00
416  4.1500000000000D+00  0.0000000000000D+00  0.0000000000000D+00
417  4.1600000000000D+00  0.0000000000000D+00  0.0000000000000D+00
418  4.1700000000000D+00  0.0000000000000D+00  0.0000000000000D+00
419  4.1800000000000D+00  0.0000000000000D+00  0.0000000000000D+00
420  4.1900000000000D+00  0.0000000000000D+00  0.0000000000000D+00
421  4.2000000000000D+00  0.0000000000000D+00  0.0000000000000D+00
422  4.2100000000000D+00  0.0000000000000D+00  0.0000000000000D+00
423  4.2200000000000D+00  0.0000000000000D+00  0.0000000000000D+00
424  4.2300000000000D+00  0.0000000000000D+00  0.0000000000000D+00
425  4.2400000000000D+00  0.0000000000000D+00  0.0000000000000D+00
426  4.2500000000000D+00  0.0000000000000D+00  0.0000000000000D+00
427  4.2600000000000D+00  0.0000000000000D+00  0.0000000000000D+00
428  4.2700000000000D+00  0.0000000000000D+00  0.0000000000000D+00
429  4.2800000000000D+00  0.0000000000000D+00  0.0000000000000D+00
430  4.2900000000000D+00  0.0000000000000D+00  0.0000000000000D+00
431  4.3000000000000D+00  0.0000000000000D+00  0.0000000000000D+00
432  4.3100000000000D+00  0.0000000000000D+00  0.0000000000000D+00
433  4.3200000000000D+00  0.0000000000000D+00  0.0000000000000D+00
434  4.3300000000000D+00  0.0000000000000D+00  0.0000000000000D+00
435  4.3400000000000D+00  0.0000000000000D+00  0.0000000000000D+00
436  4.3500000000000D+00  0.0000000000000D+00  0.0000000000000D+00
437  4.3600000000000D+00  0.0000000000000D+00  0.0000000000000D+00
438  4.3700000000000D+00  0.0000000000000D+00  0.0000000000000D+00
439  4.3800000000000D+00  0.0000000000000D+00  0.0000000000000D+00
440  4.3900000000000D+00  0.0000000000000D+00  0.0000000000000D+00
441  4.4000000000000D+00  0.0000000000000D+00  0.0000000000000D+00
442  4.4100000000000D+00  0.0000000000000D+00  0.0000000000000D+00
443  4.4200000000000D+00  0.0000000000000D+00  0.0000000000000D+00