I     ONCVPSP  r_core=  2.02  2.17  2.28
53.0000      7.0000      150806    zatom,zion,pspd
8      11   2     4   600     0    pspcod,pspxc,lmax,lloc,mmax,r2well
5.99000000  4.00000000  0.00000000    rchrg fchrg qchrg
2     2     2     0     0    nproj
0                 extension_switch
0                         5.8947559335463D+00  7.7712414484915D-01
1  0.0000000000000D+00 -1.4152568006409D-13 -3.4458810804772D-11
2  1.0000000000000D-02  2.2913625829826D-02  4.9474073348956D-03
3  2.0000000000000D-02  4.5825612871121D-02  9.8206654050179D-03
4  3.0000000000000D-02  6.8734297392449D-02  1.4546042903654D-02
5  4.0000000000000D-02  9.1637965828530D-02  1.9050642482403D-02
6  5.0000000000000D-02  1.1453482999331D-01  2.3262812844521D-02
7  6.0000000000000D-02  1.3742300244909D-01  2.7112554999597D-02
8  7.0000000000000D-02  1.6030047208401D-01  3.0531920773778D-02
9  8.0000000000000D-02  1.8316507995020D-01  3.3455401704178D-02
10  9.0000000000000D-02  2.0601449541515D-01  3.5820306488832D-02
11  1.0000000000000D-01  2.2884619267920D-01  3.7567125214518D-02
12  1.1000000000000D-01  2.5165742771208D-01  3.8639878643557D-02
13  1.2000000000000D-01  2.7444521566180D-01  3.8986450907185D-02
14  1.3000000000000D-01  2.9720630878955D-01  3.8558904027107D-02
15  1.4000000000000D-01  3.1993717498442D-01  3.7313772767636D-02
16  1.5000000000000D-01  3.4263397691209D-01  3.5212338408682D-02
17  1.6000000000000D-01  3.6529255185188D-01  3.2220880123860D-02
18  1.7000000000000D-01  3.8790839227696D-01  2.8310902747819D-02
19  1.8000000000000D-01  4.1047662723240D-01  2.3459339822776D-02
20  1.9000000000000D-01  4.3299200456646D-01  1.7648730924312D-02
21  2.0000000000000D-01  4.5544887407006D-01  1.0867372382044D-02
22  2.1000000000000D-01  4.7784117157996D-01  3.1094406297822D-03
23  2.2000000000000D-01  5.0016240410085D-01 -5.6249124572972D-03
24  2.3000000000000D-01  5.2240563600179D-01 -1.5329492755319D-02
25  2.4000000000000D-01  5.4456347634191D-01 -2.5992026002489D-02
26  2.5000000000000D-01  5.6662806738033D-01 -3.7594149086161D-02
27  2.6000000000000D-01  5.8859107432481D-01 -5.0111430633004D-02
28  2.7000000000000D-01  6.1044367637293D-01 -6.3513420896207D-02
29  2.8000000000000D-01  6.3217655909922D-01 -7.7763730801607D-02
30  2.9000000000000D-01  6.5377990824070D-01 -9.2820139882227D-02
31  3.0000000000000D-01  6.7524340493226D-01 -1.0863473269936D-01
32  3.1000000000000D-01  6.9655622244233D-01 -1.2515406321906D-01
33  3.2000000000000D-01  7.1770702445786D-01 -1.4231934648489D-01
34  3.3000000000000D-01  7.3868396496589D-01 -1.6006667680339D-01
35  3.4000000000000D-01  7.5947468977766D-01 -1.7832727153688D-01
36  3.5000000000000D-01  7.8006633973884D-01 -1.9702773948022D-01
37  3.6000000000000D-01  8.0044555566733D-01 -2.1609037268529D-01
38  3.7000000000000D-01  8.2059848505788D-01 -2.3543346048773D-01
39  3.8000000000000D-01  8.4051079058965D-01 -2.5497162438723D-01
40  3.9000000000000D-01  8.6016766047030D-01 -2.7461617233579D-01
41  4.0000000000000D-01  8.7955382064659D-01 -2.9427547089607D-01
42  4.1000000000000D-01  8.9865354890836D-01 -3.1385533364852D-01
43  4.2000000000000D-01  9.1745069090864D-01 -3.3325942414739D-01
44  4.3000000000000D-01  9.3592867811881D-01 -3.5238967165675D-01
45  4.4000000000000D-01  9.5407054773351D-01 -3.7114669783433D-01
46  4.5000000000000D-01  9.7185896453506D-01 -3.8943025247740D-01
47  4.6000000000000D-01  9.8927624472273D-01 -4.0713965639891D-01
48  4.7000000000000D-01  1.0063043817067D+00 -4.2417424946453D-01
49  4.8000000000000D-01  1.0229250738614D+00 -4.4043384179297D-01
50  4.9000000000000D-01  1.0391197542273D+00 -4.5581916610198D-01
51  5.0000000000000D-01  1.0548696221436D+00 -4.7023232917205D-01
52  5.1000000000000D-01  1.0701556767898D+00 -4.8357726039809D-01
53  5.2000000000000D-01  1.0849587526055D+00 -4.9576015540698D-01
54  5.3000000000000D-01  1.0992595565536D+00 -5.0668991273581D-01
55  5.4000000000000D-01  1.1130387071822D+00 -5.1627856159091D-01
56  5.5000000000000D-01  1.1262767754382D+00 -5.2444167874324D-01
57  5.6000000000000D-01  1.1389543271723D+00 -5.3109879265865D-01
58  5.7000000000000D-01  1.1510519672744D+00 -5.3617377301459D-01
59  5.8000000000000D-01  1.1625503853652D+00 -5.3959520381467D-01
60  5.9000000000000D-01  1.1734304029664D+00 -5.4129673838295D-01
61  6.0000000000000D-01  1.1836730220626D+00 -5.4121743459527D-01
62  6.1000000000000D-01  1.1932594749603D+00 -5.3930206879069D-01
63  6.2000000000000D-01  1.2021712753422D+00 -5.3550142689780D-01
64  6.3000000000000D-01  1.2103902704078D+00 -5.2977257140874D-01
65  6.4000000000000D-01  1.2178986939829D+00 -5.2207908294000D-01
66  6.5000000000000D-01  1.2246792204739D+00 -5.1239127522942D-01
67  6.6000000000000D-01  1.2307150195353D+00 -5.0068638253589D-01
68  6.7000000000000D-01  1.2359898113106D+00 -4.8694871852990D-01
69  6.8000000000000D-01  1.2404879221032D+00 -4.7116980588883D-01
70  6.9000000000000D-01  1.2441943403213D+00 -4.5334847594119D-01
71  7.0000000000000D-01  1.2470947725414D+00 -4.3349093783712D-01
72  7.1000000000000D-01  1.2491756995231D+00 -4.1161081685828D-01
73  7.2000000000000D-01  1.2504244320049D+00 -3.8772916161836D-01
74  7.3000000000000D-01  1.2508291661057D+00 -3.6187442004445D-01
75  7.4000000000000D-01  1.2503790381498D+00 -3.3408238417053D-01
76  7.5000000000000D-01  1.2490641787301D+00 -3.0439610391366D-01
77  7.6000000000000D-01  1.2468757658211D+00 -2.7286577014408D-01
78  7.7000000000000D-01  1.2438060767466D+00 -2.3954856749858D-01
79  7.8000000000000D-01  1.2398485388086D+00 -2.0450849752376D-01
80  7.9000000000000D-01  1.2349977783788D+00 -1.6781617286978D-01
81  8.0000000000000D-01  1.2292496682523D+00 -1.2954858338708D-01
82  8.1000000000000D-01  1.2226013730643D+00 -8.9788835105782D-02
83  8.2000000000000D-01  1.2150513925699D+00 -4.8625863201000D-02
84  8.3000000000000D-01  1.2065996025852D+00 -6.1541201656641D-03
85  8.4000000000000D-01  1.1972472933938D+00  3.7526759474391D-02
86  8.5000000000000D-01  1.1869972054204D+00  8.2312316461627D-02
87  8.6000000000000D-01  1.1758535619803D+00  1.2809364458214D-01
88  8.7000000000000D-01  1.1638220989136D+00  1.7475778727968D-01
89  8.8000000000000D-01  1.1509100909207D+00  2.2218815138688D-01
90  8.9000000000000D-01  1.1371263744201D+00  2.7026493617428D-01
91  9.0000000000000D-01  1.1224813667548D+00  3.1886557584781D-01
92  9.1000000000000D-01  1.1069870815831D+00  3.6786519356429D-01
93  9.2000000000000D-01  1.0906571402957D+00  4.1713706498258D-01
94  9.3000000000000D-01  1.0735067793117D+00  4.6655308932447D-01
95  9.4000000000000D-01  1.0555528531146D+00  5.1598426588659D-01
96  9.5000000000000D-01  1.0368138329005D+00  5.6530117392016D-01
97  9.6000000000000D-01  1.0173098007235D+00  6.1437445378154D-01
98  9.7000000000000D-01  9.9706243903312D-01  6.6307528725202D-01
99  9.8000000000000D-01  9.7609501551445D-01  7.1127587493105D-01
100  9.9000000000000D-01  9.5443236315321D-01  7.5884990862249D-01
101  1.0000000000000D+00  9.3210085546417D-01  8.0567303665872D-01
102  1.0100000000000D+00  9.0912837683565D-01  8.5162332014199D-01
103  1.0200000000000D+00  8.8554428795928D-01  8.9658167812881D-01
104  1.0300000000000D+00  8.6137938633003D-01  9.4043231983354D-01
105  1.0400000000000D+00  8.3666586181886D-01  9.8306316199368D-01
106  1.0500000000000D+00  8.1143724733801D-01  1.0243662296098D+00
107  1.0600000000000D+00  7.8572836463615D-01  1.0642380383528D+00
108  1.0700000000000D+00  7.5957526527951D-01  1.1025799570218D+00
109  1.0800000000000D+00  7.3301516689315D-01  1.1392985485308D+00
110  1.0900000000000D+00  7.0608638475476D-01  1.1743058880003D+00
111  1.1000000000000D+00  6.7882825885346D-01  1.2075198566524D+00
112  1.1100000000000D+00  6.5128107654366D-01  1.2388644103095D+00
113  1.1200000000000D+00  6.2348599094466D-01  1.2682698214394D+00
114  1.1300000000000D+00  5.9548493525188D-01  1.2956728937816D+00
115  1.1400000000000D+00  5.6732053314867D-01  1.3210171487609D+00
116  1.1500000000000D+00  5.3903600552255D-01  1.3442529829994D+00
117  1.1600000000000D+00  5.1067507371105D-01  1.3653377964058D+00
118  1.1700000000000D+00  4.8228185951409D-01  1.3842360904129D+00
119  1.1800000000000D+00  4.5390078223365D-01  1.4009195361308D+00
120  1.1900000000000D+00  4.2557645301415D-01  1.4153670122976D+00
121  1.2000000000000D+00  3.9735356677347D-01  1.4275646130627D+00
122  1.2100000000000D+00  3.6927679202744D-01  1.4375056257521D+00
123  1.2200000000000D+00  3.4139065892925D-01  1.4451904789560D+00
124  1.2300000000000D+00  3.1373944585654D-01  1.4506266614077D+00
125  1.2400000000000D+00  2.8636706488615D-01  1.4538286121921D+00
126  1.2500000000000D+00  2.5931694651627D-01  1.4548175830586D+00
127  1.2600000000000D+00  2.3263192400115D-01  1.4536214737030D+00
128  1.2700000000000D+00  2.0635411766928D-01  1.4502746409505D+00
129  1.2800000000000D+00  1.8052481961002D-01  1.4448176829813D+00
130  1.2900000000000D+00  1.5518437911615D-01  1.4372971998353D+00
131  1.3000000000000D+00  1.3037208927269D-01  1.4277655314636D+00
132  1.3100000000000D+00  1.0612607509104D-01  1.4162804747956D+00
133  1.3200000000000D+00  8.2483183583826D-02  1.4029049813632D+00
134  1.3300000000000D+00  5.9478876179900D-02  1.3877068370163D+00
135  1.3400000000000D+00  3.7147123877305D-02  1.3707583254828D+00
136  1.3500000000000D+00  1.5520305523933D-02  1.3521358775081D+00
137  1.3600000000000D+00 -5.3708903761679D-03  1.3319197073453D+00
138  1.3700000000000D+00 -2.5497559955351D-02  1.3101934385196D+00
139  1.3800000000000D+00 -4.4832673994428D-02  1.2870437207175D+00
140  1.3900000000000D+00 -6.3351163279554D-02  1.2625598397550D+00
141  1.4000000000000D+00 -8.1029998967266D-02  1.2368333225715D+00
142  1.4100000000000D+00 -9.7848267586436D-02  1.2099575392032D+00
143  1.4200000000000D+00 -1.1378724036936D-01  1.1820273037087D+00
144  1.4300000000000D+00 -1.2883043659243D-01  1.1531384759639D+00
145  1.4400000000000D+00 -1.4296368060684D-01  1.1233875663217D+00
146  1.4500000000000D+00 -1.5617515232759D-01  1.0928713449140D+00
147  1.4600000000000D+00 -1.6845543085526D-01  1.0616864576089D+00
148  1.4700000000000D+00 -1.7979753105403D-01  1.0299290502760D+00
149  1.4800000000000D+00 -1.9019693282949D-01  9.9769440319296D-01
150  1.4900000000000D+00 -1.9965160291429D-01  9.6507657729111D-01
151  1.5000000000000D+00 -2.0816200903376D-01  9.3216807367297D-01
152  1.5100000000000D+00 -2.1573112622155D-01  8.9905950823582D-01
153  1.5200000000000D+00 -2.2236443529096D-01  8.6583930235295D-01
154  1.5300000000000D+00 -2.2806991322595D-01  8.3259339148581D-01
155  1.5400000000000D+00 -2.3285801557109D-01  7.9940495238302D-01
156  1.5500000000000D+00 -2.3674165066951D-01  7.6635415041772D-01
157  1.5600000000000D+00 -2.3973614581925D-01  7.3351790774047D-01
158  1.5700000000000D+00 -2.4185920534028D-01  7.0096969320908D-01
159  1.5800000000000D+00 -2.4313086058783D-01  6.6877933491608D-01
160  1.5900000000000D+00 -2.4357341205987D-01  6.3701285558649D-01
161  1.6000000000000D+00 -2.4321136359622D-01  6.0573233184754D-01
162  1.6100000000000D+00 -2.4207134897105D-01  5.7499577691620D-01
163  1.6200000000000D+00 -2.4018205084380D-01  5.4485704788257D-01
164  1.6300000000000D+00 -2.3757411251324D-01  5.1536577642139D-01
165  1.6400000000000D+00 -2.3428004241858D-01  4.8656732424595D-01
166  1.6500000000000D+00 -2.3033411195690D-01  4.5850276148412D-01
167  1.6600000000000D+00 -2.2577224656107D-01  4.3120886932927D-01
168  1.6700000000000D+00 -2.2063191069174D-01  4.0471816467463D-01
169  1.6800000000000D+00 -2.1495198673212D-01  3.7905894789786D-01
170  1.6900000000000D+00 -2.0877264847700D-01  3.5425537125870D-01
171  1.7000000000000D+00 -2.0213522926786D-01  3.3032752879065D-01
172  1.7100000000000D+00 -1.9508208549324D-01  3.0729156494808D-01
173  1.7200000000000D+00 -1.8765645556252D-01  2.8515980263718D-01
174  1.7300000000000D+00 -1.7990231509510D-01  2.6394088770287D-01
175  1.7400000000000D+00 -1.7186422848708D-01  2.4363995026397D-01
176  1.7500000000000D+00 -1.6358719760228D-01  2.2425877986246D-01
177  1.7600000000000D+00 -1.5511650781956D-01  2.0579601449392D-01
178  1.7700000000000D+00 -1.4649757214744D-01  1.8824734060212D-01
179  1.7800000000000D+00 -1.3777577373944D-01  1.7160570358206D-01
180  1.7900000000000D+00 -1.2899630744470D-01  1.5586152623879D-01
181  1.8000000000000D+00 -1.2020402083940D-01  1.4100293412624D-01
182  1.8100000000000D+00 -1.1144325528783D-01  1.2701598566279D-01
183  1.8200000000000D+00 -1.0275768756845D-01  1.1388490540108D-01
184  1.8300000000000D+00 -9.4190172550532D-02  1.0159231872504D-01
185  1.8400000000000D+00 -8.5782587489481D-02  9.0119486051505D-02
186  1.8500000000000D+00 -7.7575678424645D-02  7.9446534918476D-02
187  1.8600000000000D+00 -6.9608909180746D-02  6.9552688199229D-02
188  1.8700000000000D+00 -6.1920313560436D-02  6.0416486440130D-02
189  1.8800000000000D+00 -5.4546351023678D-02  5.2016003393393D-02
190  1.8900000000000D+00 -4.7521766665355D-02  4.4329051762578D-02
191  1.9000000000000D+00 -4.0879455489160D-02  3.7333379562679D-02
192  1.9100000000000D+00 -3.4650331990202D-02  3.1006853153175D-02
193  1.9200000000000D+00 -2.8863204903780D-02  2.5327628050170D-02
194  1.9300000000000D+00 -2.3544658018130D-02  2.0274304003638D-02
195  1.9400000000000D+00 -1.8718937141066D-02  1.5826064462428D-02
196  1.9500000000000D+00 -1.4408100551859D-02  1.1962971877690D-02
197  1.9600000000000D+00 -1.0634001645776D-02  8.6674708314951D-03
198  1.9700000000000D+00 -7.4054175259157D-03  5.9158808750547D-03
199  1.9800000000000D+00 -4.7259600316279D-03  3.6845169401944D-03
200  1.9900000000000D+00 -2.6367957477527D-03  1.9758325650550D-03
201  2.0000000000000D+00 -1.1744918227278D-03  7.9072318840451D-04
202  2.0100000000000D+00 -3.1102643272862D-04  9.5025873138057D-05
203  2.0200000000000D+00  7.7249945781566D-05 -1.9834637478042D-04
204  2.0300000000000D+00  1.3864279472572D-04 -1.9321051239806D-04
205  2.0400000000000D+00  4.9839805993614D-05 -6.2224512046751D-05
206  2.0500000000000D+00 -2.6486258591813D-05  3.2073041619883D-05
207  2.0600000000000D+00 -3.0597757445619D-05  3.5993180001256D-05
208  2.0700000000000D+00  8.4752897126683D-07 -1.0935693350699D-06
209  2.0800000000000D+00  6.8237943298229D-06 -8.6607599208849D-06
210  2.0900000000000D+00  3.1224885906320D-06 -3.9145364987953D-06
211  2.1000000000000D+00 -1.7853537857701D-07  4.2576128468413D-07
212  2.1100000000000D+00 -2.1297757833106D-07  5.0789713546904D-07
213  2.1200000000000D+00  0.0000000000000D+00  0.0000000000000D+00
214  2.1300000000000D+00  0.0000000000000D+00  0.0000000000000D+00
215  2.1400000000000D+00  0.0000000000000D+00  0.0000000000000D+00
216  2.1500000000000D+00  0.0000000000000D+00  0.0000000000000D+00
217  2.1600000000000D+00  0.0000000000000D+00  0.0000000000000D+00
218  2.1700000000000D+00  0.0000000000000D+00  0.0000000000000D+00
219  2.1800000000000D+00  0.0000000000000D+00  0.0000000000000D+00
220  2.1900000000000D+00  0.0000000000000D+00  0.0000000000000D+00
221  2.2000000000000D+00  0.0000000000000D+00  0.0000000000000D+00
222  2.2100000000000D+00  0.0000000000000D+00  0.0000000000000D+00
223  2.2200000000000D+00  0.0000000000000D+00  0.0000000000000D+00
224  2.2300000000000D+00  0.0000000000000D+00  0.0000000000000D+00
225  2.2400000000000D+00  0.0000000000000D+00  0.0000000000000D+00
226  2.2500000000000D+00  0.0000000000000D+00  0.0000000000000D+00
227  2.2600000000000D+00  0.0000000000000D+00  0.0000000000000D+00
228  2.2700000000000D+00  0.0000000000000D+00  0.0000000000000D+00
229  2.2800000000000D+00  0.0000000000000D+00  0.0000000000000D+00
230  2.2900000000000D+00  0.0000000000000D+00  0.0000000000000D+00
231  2.3000000000000D+00  0.0000000000000D+00  0.0000000000000D+00
232  2.3100000000000D+00  0.0000000000000D+00  0.0000000000000D+00
233  2.3200000000000D+00  0.0000000000000D+00  0.0000000000000D+00
234  2.3300000000000D+00  0.0000000000000D+00  0.0000000000000D+00
235  2.3400000000000D+00  0.0000000000000D+00  0.0000000000000D+00
236  2.3500000000000D+00  0.0000000000000D+00  0.0000000000000D+00
237  2.3600000000000D+00  0.0000000000000D+00  0.0000000000000D+00
238  2.3700000000000D+00  0.0000000000000D+00  0.0000000000000D+00
239  2.3800000000000D+00  0.0000000000000D+00  0.0000000000000D+00
240  2.3900000000000D+00  0.0000000000000D+00  0.0000000000000D+00
241  2.4000000000000D+00  0.0000000000000D+00  0.0000000000000D+00
242  2.4100000000000D+00  0.0000000000000D+00  0.0000000000000D+00
243  2.4200000000000D+00  0.0000000000000D+00  0.0000000000000D+00
244  2.4300000000000D+00  0.0000000000000D+00  0.0000000000000D+00
245  2.4400000000000D+00  0.0000000000000D+00  0.0000000000000D+00
246  2.4500000000000D+00  0.0000000000000D+00  0.0000000000000D+00
247  2.4600000000000D+00  0.0000000000000D+00  0.0000000000000D+00
248  2.4700000000000D+00  0.0000000000000D+00  0.0000000000000D+00
249  2.4800000000000D+00  0.0000000000000D+00  0.0000000000000D+00
250  2.4900000000000D+00  0.0000000000000D+00  0.0000000000000D+00
251  2.5000000000000D+00  0.0000000000000D+00  0.0000000000000D+00
252  2.5100000000000D+00  0.0000000000000D+00  0.0000000000000D+00
253  2.5200000000000D+00  0.0000000000000D+00  0.0000000000000D+00
254  2.5300000000000D+00  0.0000000000000D+00  0.0000000000000D+00
255  2.5400000000000D+00  0.0000000000000D+00  0.0000000000000D+00
256  2.5500000000000D+00  0.0000000000000D+00  0.0000000000000D+00
257  2.5600000000000D+00  0.0000000000000D+00  0.0000000000000D+00
258  2.5700000000000D+00  0.0000000000000D+00  0.0000000000000D+00
259  2.5800000000000D+00  0.0000000000000D+00  0.0000000000000D+00
260  2.5900000000000D+00  0.0000000000000D+00  0.0000000000000D+00
261  2.6000000000000D+00  0.0000000000000D+00  0.0000000000000D+00
262  2.6100000000000D+00  0.0000000000000D+00  0.0000000000000D+00
263  2.6200000000000D+00  0.0000000000000D+00  0.0000000000000D+00
264  2.6300000000000D+00  0.0000000000000D+00  0.0000000000000D+00
265  2.6400000000000D+00  0.0000000000000D+00  0.0000000000000D+00
266  2.6500000000000D+00  0.0000000000000D+00  0.0000000000000D+00
267  2.6600000000000D+00  0.0000000000000D+00  0.0000000000000D+00
268  2.6700000000000D+00  0.0000000000000D+00  0.0000000000000D+00
269  2.6800000000000D+00  0.0000000000000D+00  0.0000000000000D+00
270  2.6900000000000D+00  0.0000000000000D+00  0.0000000000000D+00
271  2.7000000000000D+00  0.0000000000000D+00  0.0000000000000D+00
272  2.7100000000000D+00  0.0000000000000D+00  0.0000000000000D+00
273  2.7200000000000D+00  0.0000000000000D+00  0.0000000000000D+00
274  2.7300000000000D+00  0.0000000000000D+00  0.0000000000000D+00
275  2.7400000000000D+00  0.0000000000000D+00  0.0000000000000D+00
276  2.7500000000000D+00  0.0000000000000D+00  0.0000000000000D+00
277  2.7600000000000D+00  0.0000000000000D+00  0.0000000000000D+00
278  2.7700000000000D+00  0.0000000000000D+00  0.0000000000000D+00
279  2.7800000000000D+00  0.0000000000000D+00  0.0000000000000D+00
280  2.7900000000000D+00  0.0000000000000D+00  0.0000000000000D+00
281  2.8000000000000D+00  0.0000000000000D+00  0.0000000000000D+00
282  2.8100000000000D+00  0.0000000000000D+00  0.0000000000000D+00
283  2.8200000000000D+00  0.0000000000000D+00  0.0000000000000D+00
284  2.8300000000000D+00  0.0000000000000D+00  0.0000000000000D+00
285  2.8400000000000D+00  0.0000000000000D+00  0.0000000000000D+00
286  2.8500000000000D+00  0.0000000000000D+00  0.0000000000000D+00
287  2.8600000000000D+00  0.0000000000000D+00  0.0000000000000D+00
288  2.8700000000000D+00  0.0000000000000D+00  0.0000000000000D+00
289  2.8800000000000D+00  0.0000000000000D+00  0.0000000000000D+00
290  2.8900000000000D+00  0.0000000000000D+00  0.0000000000000D+00
291  2.9000000000000D+00  0.0000000000000D+00  0.0000000000000D+00
292  2.9100000000000D+00  0.0000000000000D+00  0.0000000000000D+00
293  2.9200000000000D+00  0.0000000000000D+00  0.0000000000000D+00
294  2.9300000000000D+00  0.0000000000000D+00  0.0000000000000D+00
295  2.9400000000000D+00  0.0000000000000D+00  0.0000000000000D+00
296  2.9500000000000D+00  0.0000000000000D+00  0.0000000000000D+00
297  2.9600000000000D+00  0.0000000000000D+00  0.0000000000000D+00
298  2.9700000000000D+00  0.0000000000000D+00  0.0000000000000D+00
299  2.9800000000000D+00  0.0000000000000D+00  0.0000000000000D+00
300  2.9900000000000D+00  0.0000000000000D+00  0.0000000000000D+00
301  3.0000000000000D+00  0.0000000000000D+00  0.0000000000000D+00
302  3.0100000000000D+00  0.0000000000000D+00  0.0000000000000D+00
303  3.0200000000000D+00  0.0000000000000D+00  0.0000000000000D+00
304  3.0300000000000D+00  0.0000000000000D+00  0.0000000000000D+00
305  3.0400000000000D+00  0.0000000000000D+00  0.0000000000000D+00
306  3.0500000000000D+00  0.0000000000000D+00  0.0000000000000D+00
307  3.0600000000000D+00  0.0000000000000D+00  0.0000000000000D+00
308  3.0700000000000D+00  0.0000000000000D+00  0.0000000000000D+00
309  3.0800000000000D+00  0.0000000000000D+00  0.0000000000000D+00
310  3.0900000000000D+00  0.0000000000000D+00  0.0000000000000D+00
311  3.1000000000000D+00  0.0000000000000D+00  0.0000000000000D+00
312  3.1100000000000D+00  0.0000000000000D+00  0.0000000000000D+00
313  3.1200000000000D+00  0.0000000000000D+00  0.0000000000000D+00
314  3.1300000000000D+00  0.0000000000000D+00  0.0000000000000D+00
315  3.1400000000000D+00  0.0000000000000D+00  0.0000000000000D+00
316  3.1500000000000D+00  0.0000000000000D+00  0.0000000000000D+00
317  3.1600000000000D+00  0.0000000000000D+00  0.0000000000000D+00
318  3.1700000000000D+00  0.0000000000000D+00  0.0000000000000D+00
319  3.1800000000000D+00  0.0000000000000D+00  0.0000000000000D+00
320  3.1900000000000D+00  0.0000000000000D+00  0.0000000000000D+00
321  3.2000000000000D+00  0.0000000000000D+00  0.0000000000000D+00
322  3.2100000000000D+00  0.0000000000000D+00  0.0000000000000D+00
323  3.2200000000000D+00  0.0000000000000D+00  0.0000000000000D+00
324  3.2300000000000D+00  0.0000000000000D+00  0.0000000000000D+00
325  3.2400000000000D+00  0.0000000000000D+00  0.0000000000000D+00
326  3.2500000000000D+00  0.0000000000000D+00  0.0000000000000D+00
327  3.2600000000000D+00  0.0000000000000D+00  0.0000000000000D+00
328  3.2700000000000D+00  0.0000000000000D+00  0.0000000000000D+00
329  3.2800000000000D+00  0.0000000000000D+00  0.0000000000000D+00
330  3.2900000000000D+00  0.0000000000000D+00  0.0000000000000D+00
331  3.3000000000000D+00  0.0000000000000D+00  0.0000000000000D+00
332  3.3100000000000D+00  0.0000000000000D+00  0.0000000000000D+00
333  3.3200000000000D+00  0.0000000000000D+00  0.0000000000000D+00
334  3.3300000000000D+00  0.0000000000000D+00  0.0000000000000D+00
335  3.3400000000000D+00  0.0000000000000D+00  0.0000000000000D+00
336  3.3500000000000D+00  0.0000000000000D+00  0.0000000000000D+00
337  3.3600000000000D+00  0.0000000000000D+00  0.0000000000000D+00
338  3.3700000000000D+00  0.0000000000000D+00  0.0000000000000D+00
339  3.3800000000000D+00  0.0000000000000D+00  0.0000000000000D+00
340  3.3900000000000D+00  0.0000000000000D+00  0.0000000000000D+00
341  3.4000000000000D+00  0.0000000000000D+00  0.0000000000000D+00
342  3.4100000000000D+00  0.0000000000000D+00  0.0000000000000D+00
343  3.4200000000000D+00  0.0000000000000D+00  0.0000000000000D+00
344  3.4300000000000D+00  0.0000000000000D+00  0.0000000000000D+00
345  3.4400000000000D+00  0.0000000000000D+00  0.0000000000000D+00
346  3.4500000000000D+00  0.0000000000000D+00  0.0000000000000D+00
347  3.4600000000000D+00  0.0000000000000D+00  0.0000000000000D+00
348  3.4700000000000D+00  0.0000000000000D+00  0.0000000000000D+00
349  3.4800000000000D+00  0.0000000000000D+00  0.0000000000000D+00
350  3.4900000000000D+00  0.0000000000000D+00  0.0000000000000D+00
351  3.5000000000000D+00  0.0000000000000D+00  0.0000000000000D+00
352  3.5100000000000D+00  0.0000000000000D+00  0.0000000000000D+00
353  3.5200000000000D+00  0.0000000000000D+00  0.0000000000000D+00
354  3.5300000000000D+00  0.0000000000000D+00  0.0000000000000D+00
355  3.5400000000000D+00  0.0000000000000D+00  0.0000000000000D+00
356  3.5500000000000D+00  0.0000000000000D+00  0.0000000000000D+00
357  3.5600000000000D+00  0.0000000000000D+00  0.0000000000000D+00
358  3.5700000000000D+00  0.0000000000000D+00  0.0000000000000D+00
359  3.5800000000000D+00  0.0000000000000D+00  0.0000000000000D+00
360  3.5900000000000D+00  0.0000000000000D+00  0.0000000000000D+00
361  3.6000000000000D+00  0.0000000000000D+00  0.0000000000000D+00
362  3.6100000000000D+00  0.0000000000000D+00  0.0000000000000D+00
363  3.6200000000000D+00  0.0000000000000D+00  0.0000000000000D+00
364  3.6300000000000D+00  0.0000000000000D+00  0.0000000000000D+00
365  3.6400000000000D+00  0.0000000000000D+00  0.0000000000000D+00
366  3.6500000000000D+00  0.0000000000000D+00  0.0000000000000D+00
367  3.6600000000000D+00  0.0000000000000D+00  0.0000000000000D+00
368  3.6700000000000D+00  0.0000000000000D+00  0.0000000000000D+00
369  3.6800000000000D+00  0.0000000000000D+00  0.0000000000000D+00
370  3.6900000000000D+00  0.0000000000000D+00  0.0000000000000D+00
371  3.7000000000000D+00  0.0000000000000D+00  0.0000000000000D+00
372  3.7100000000000D+00  0.0000000000000D+00  0.0000000000000D+00
373  3.7200000000000D+00  0.0000000000000D+00  0.0000000000000D+00
374  3.7300000000000D+00  0.0000000000000D+00  0.0000000000000D+00
375  3.7400000000000D+00  0.0000000000000D+00  0.0000000000000D+00
376  3.7500000000000D+00  0.0000000000000D+00  0.0000000000000D+00
377  3.7600000000000D+00  0.0000000000000D+00  0.0000000000000D+00
378  3.7700000000000D+00  0.0000000000000D+00  0.0000000000000D+00
379  3.7800000000000D+00  0.0000000000000D+00  0.0000000000000D+00
380  3.7900000000000D+00  0.0000000000000D+00  0.0000000000000D+00
381  3.8000000000000D+00  0.0000000000000D+00  0.0000000000000D+00
382  3.8100000000000D+00  0.0000000000000D+00  0.0000000000000D+00
383  3.8200000000000D+00  0.0000000000000D+00  0.0000000000000D+00
384  3.8300000000000D+00  0.0000000000000D+00  0.0000000000000D+00
385  3.8400000000000D+00  0.0000000000000D+00  0.0000000000000D+00
386  3.8500000000000D+00  0.0000000000000D+00  0.0000000000000D+00
387  3.8600000000000D+00  0.0000000000000D+00  0.0000000000000D+00
388  3.8700000000000D+00  0.0000000000000D+00  0.0000000000000D+00
389  3.8800000000000D+00  0.0000000000000D+00  0.0000000000000D+00
390  3.8900000000000D+00  0.0000000000000D+00  0.0000000000000D+00
391  3.9000000000000D+00  0.0000000000000D+00  0.0000000000000D+00
392  3.9100000000000D+00  0.0000000000000D+00  0.0000000000000D+00
393  3.9200000000000D+00  0.0000000000000D+00  0.0000000000000D+00
394  3.9300000000000D+00  0.0000000000000D+00  0.0000000000000D+00
395  3.9400000000000D+00  0.0000000000000D+00  0.0000000000000D+00
396  3.9500000000000D+00  0.0000000000000D+00  0.0000000000000D+00
397  3.9600000000000D+00  0.0000000000000D+00  0.0000000000000D+00
398  3.9700000000000D+00  0.0000000000000D+00  0.0000000000000D+00
399  3.9800000000000D+00  0.0000000000000D+00  0.0000000000000D+00
400  3.9900000000000D+00  0.0000000000000D+00  0.0000000000000D+00
401  4.0000000000000D+00  0.0000000000000D+00  0.0000000000000D+00
402  4.0100000000000D+00  0.0000000000000D+00  0.0000000000000D+00
403  4.0200000000000D+00  0.0000000000000D+00  0.0000000000000D+00
404  4.0300000000000D+00  0.0000000000000D+00  0.0000000000000D+00
405  4.0400000000000D+00  0.0000000000000D+00  0.0000000000000D+00
406  4.0500000000000D+00  0.0000000000000D+00  0.0000000000000D+00
407  4.0600000000000D+00  0.0000000000000D+00  0.0000000000000D+00
408  4.0700000000000D+00  0.0000000000000D+00  0.0000000000000D+00
409  4.0800000000000D+00  0.0000000000000D+00  0.0000000000000D+00
410  4.0900000000000D+00  0.0000000000000D+00  0.0000000000000D+00
411  4.1000000000000D+00  0.0000000000000D+00  0.0000000000000D+00
412  4.1100000000000D+00  0.0000000000000D+00  0.0000000000000D+00
413  4.1200000000000D+00  0.0000000000000D+00  0.0000000000000D+00
414  4.1300000000000D+00  0.0000000000000D+00  0.0000000000000D+00
415  4.1400000000000D+00  0.0000000000000D+00  0.0000000000000D+00
416  4.1500000000000D+00  0.0000000000000D+00  0.0000000000000D+00
417  4.1600000000000D+00  0.0000000000000D+00  0.0000000000000D+00
418  4.1700000000000D+00  0.0000000000000D+00  0.0000000000000D+00
419  4.1800000000000D+00  0.0000000000000D+00  0.0000000000000D+00
420  4.1900000000000D+00  0.0000000000000D+00  0.0000000000000D+00
421  4.2000000000000D+00  0.0000000000000D+00  0.0000000000000D+00
422  4.2100000000000D+00  0.0000000000000D+00  0.0000000000000D+00
423  4.2200000000000D+00  0.0000000000000D+00  0.0000000000000D+00
424  4.2300000000000D+00  0.0000000000000D+00  0.0000000000000D+00
425  4.2400000000000D+00  0.0000000000000D+00  0.0000000000000D+00
426  4.2500000000000D+00  0.0000000000000D+00  0.0000000000000D+00
427  4.2600000000000D+00  0.0000000000000D+00  0.0000000000000D+00
428  4.2700000000000D+00  0.0000000000000D+00  0.0000000000000D+00
429  4.2800000000000D+00  0.0000000000000D+00  0.0000000000000D+00
430  4.2900000000000D+00  0.0000000000000D+00  0.0000000000000D+00
431  4.3000000000000D+00  0.0000000000000D+00  0.0000000000000D+00
432  4.3100000000000D+00  0.0000000000000D+00  0.0000000000000D+00
433  4.3200000000000D+00  0.0000000000000D+00  0.0000000000000D+00
434  4.3300000000000D+00  0.0000000000000D+00  0.0000000000000D+00
435  4.3400000000000D+00  0.0000000000000D+00  0.0000000000000D+00
436  4.3500000000000D+00  0.0000000000000D+00  0.0000000000000D+00
437  4.3600000000000D+00  0.0000000000000D+00  0.0000000000000D+00
438  4.3700000000000D+00  0.0000000000000D+00  0.0000000000000D+00
439  4.3800000000000D+00  0.0000000000000D+00  0.0000000000000D+00
440  4.3900000000000D+00  0.0000000000000D+00  0.0000000000000D+00
441  4.4000000000000D+00  0.0000000000000D+00  0.0000000000000D+00
442  4.4100000000000D+00  0.0000000000000D+00  0.0000000000000D+00
443  4.4200000000000D+00  0.0000000000000D+00  0.0000000000000D+00
444  4.4300000000000D+00  0.0000000000000D+00  0.0000000000000D+00