Br    ONCVPSP-3.2.3.1  r_core=   1.81012   1.51356   1.92136
35.0000      7.0000      170504    zatom,zion,pspd
8      11   2     4   600     0    pspcod,pspxc,lmax,lloc,mmax,r2well
5.99000000  8.00000000  0.00000000    rchrg fchrg qchrg
2     2     2     0     0    nproj
1     1           extension_switch
0                         8.4555490507487D+00  8.7846033533440D-01
1  0.0000000000000D+00 -2.0606810702262D-10  4.1346384649366D-10
2  1.0000000000000D-02  3.9351458826834D-02 -1.7751567685617D-02
3  2.0000000000000D-02  7.8658812251728D-02 -3.5438896619836D-02
4  3.0000000000000D-02  1.1787823389510D-01 -5.2998350839045D-02
5  4.0000000000000D-02  1.5696645145483D-01 -7.0367491674828D-02
6  5.0000000000000D-02  1.9588101388004D-01 -8.7485655807178D-02
7  6.0000000000000D-02  2.3458054685513D-01 -1.0429450890158D-01
8  7.0000000000000D-02  2.7302499294255D-01 -1.2073856718256D-01
9  8.0000000000000D-02  3.1117583293883D-01 -1.3676567970990D-01
10  9.0000000000000D-02  3.4899628525111D-01 -1.5232746463087D-01
11  1.0000000000000D-01  3.8645148039760D-01 -1.6737969327734D-01
12  1.1000000000000D-01  4.2350860807123D-01 -1.8188261665187D-01
13  1.2000000000000D-01  4.6013703457723D-01 -1.9580122959531D-01
14  1.3000000000000D-01  4.9630838885769D-01 -2.0910546873935D-01
15  1.4000000000000D-01  5.3199661574389D-01 -2.2177034121221D-01
16  1.5000000000000D-01  5.6717799552600D-01 -2.3377598197293D-01
17  1.6000000000000D-01  6.0183112939223D-01 -2.4510763858904D-01
18  1.7000000000000D-01  6.3593689076190D-01 -2.5575558323148D-01
19  1.8000000000000D-01  6.6947834301103D-01 -2.6571495262841D-01
20  1.9000000000000D-01  7.0244062456068D-01 -2.7498551768412D-01
21  2.0000000000000D-01  7.3481080276024D-01 -2.8357138541764D-01
22  2.1000000000000D-01  7.6657769844448D-01 -2.9148063679776D-01
23  2.2000000000000D-01  7.9773168346905D-01 -2.9872490493397D-01
24  2.3000000000000D-01  8.2826445392802D-01 -3.0531889891610D-01
25  2.4000000000000D-01  8.5816878212443D-01 -3.1127987936857D-01
26  2.5000000000000D-01  8.8743825069540D-01 -3.1662709248799D-01
27  2.6000000000000D-01  9.1606697258234D-01 -3.2138116995650D-01
28  2.7000000000000D-01  9.4404930078161D-01 -3.2556350265993D-01
29  2.8000000000000D-01  9.7137953200635D-01 -3.2919559658177D-01
30  2.9000000000000D-01  9.9805160853456D-01 -3.3229841958532D-01
31  3.0000000000000D-01  1.0240588226097D+00 -3.3489174803310D-01
32  3.1000000000000D-01  1.0493935277955D+00 -3.3699352231940D-01
33  3.2000000000000D-01  1.0740468616660D+00 -3.3861922040810D-01
34  3.3000000000000D-01  1.0980084841369D+00 -3.3978125837134D-01
35  3.4000000000000D-01  1.1212663356093D+00 -3.4048842671633D-01
36  3.5000000000000D-01  1.1438064189133D+00 -3.4074537096831D-01
37  3.6000000000000D-01  1.1656126087964D+00 -3.4055212455177D-01
38  3.7000000000000D-01  1.1866664924145D+00 -3.3990370148187D-01
39  3.8000000000000D-01  1.2069472439448D+00 -3.3878975575082D-01
40  3.9000000000000D-01  1.2264315360601D+00 -3.3719431357548D-01
41  4.0000000000000D-01  1.2450934905859D+00 -3.3509558387041D-01
42  4.1000000000000D-01  1.2629046702071D+00 -3.3246585143466D-01
43  4.2000000000000D-01  1.2798341126084D+00 -3.2927145639920D-01
44  4.3000000000000D-01  1.2958484079301D+00 -3.2547286248721D-01
45  4.4000000000000D-01  1.3109118198923D+00 -3.2102481560150D-01
46  4.5000000000000D-01  1.3249864504113D+00 -3.1587659318425D-01
47  4.6000000000000D-01  1.3380324469912D+00 -3.0997234370710D-01
48  4.7000000000000D-01  1.3500082516341D+00 -3.0325151455630D-01
49  4.8000000000000D-01  1.3608708894872D+00 -2.9564936549017D-01
50  4.9000000000000D-01  1.3705762949275D+00 -2.8709756377986D-01
51  5.0000000000000D-01  1.3790796722914D+00 -2.7752485610841D-01
52  5.1000000000000D-01  1.3863358879925D+00 -2.6685781131275D-01
53  5.2000000000000D-01  1.3922998903337D+00 -2.5502162711879D-01
54  5.3000000000000D-01  1.3969271529284D+00 -2.4194099315292D-01
55  5.4000000000000D-01  1.4001741372904D+00 -2.2754100172438D-01
56  5.5000000000000D-01  1.4019987698505D+00 -2.1174809717232D-01
57  5.6000000000000D-01  1.4023609284059D+00 -1.9449105396755D-01
58  5.7000000000000D-01  1.4012229328109D+00 -1.7570197325863D-01
59  5.8000000000000D-01  1.3985500345812D+00 -1.5531728716412D-01
60  5.9000000000000D-01  1.3943109000042D+00 -1.3327875983987D-01
61  6.0000000000000D-01  1.3884780813332D+00 -1.0953447419802D-01
62  6.1000000000000D-01  1.3810284706880D+00 -8.4039793126051D-02
63  6.2000000000000D-01  1.3719437313951D+00 -5.6758284147534D-02
64  6.3000000000000D-01  1.3612107016662D+00 -2.7662596687555D-02
65  6.4000000000000D-01  1.3488217657495D+00  3.2647185551033D-03
66  6.5000000000000D-01  1.3347751879678D+00  3.6030458165135D-02
67  6.6000000000000D-01  1.3190754054075D+00  7.0630091956857D-02
68  6.7000000000000D-01  1.3017332754072D+00  1.0704717508518D-01
69  6.8000000000000D-01  1.2827662744403D+00  1.4525285431001D-01
70  6.9000000000000D-01  1.2621986454636D+00  1.8520547551952D-01
71  7.0000000000000D-01  1.2400614913225D+00  2.2685029865201D-01
72  7.1000000000000D-01  1.2163928123528D+00  2.7011932511763D-01
73  7.2000000000000D-01  1.1912374868900D+00  3.1493124171359D-01
74  7.3000000000000D-01  1.1646471939897D+00  3.6119148387236D-01
75  7.4000000000000D-01  1.1366802782630D+00  4.0879241988811D-01
76  7.5000000000000D-01  1.1074015573405D+00  4.5761365654579D-01
77  7.6000000000000D-01  1.0768820730769D+00  5.0752246534266D-01
78  7.7000000000000D-01  1.0451987882074D+00  5.5837432726510D-01
79  7.8000000000000D-01  1.0124342307427D+00  6.1001359285888D-01
80  7.9000000000000D-01  9.7867608894302D-01  6.6227425314644D-01
81  8.0000000000000D-01  9.4401676023934D-01  7.1498081579446D-01
82  8.1000000000000D-01  9.0855285795572D-01  7.6794927983964D-01
83  8.2000000000000D-01  8.7238468013760D-01  8.2098820125141D-01
84  8.3000000000000D-01  8.3561564519071D-01  8.7389984065757D-01
85  8.4000000000000D-01  7.9835169938587D-01  9.2648138369362D-01
86  8.5000000000000D-01  7.6070070157987D-01  9.7852622366845D-01
87  8.6000000000000D-01  7.2277179073898D-01  1.0298252955752D+00
88  8.7000000000000D-01  6.8467474202676D-01  1.0801684499263D+00
89  8.8000000000000D-01  6.4651931732913D-01  1.1293458544568D+00
90  8.9000000000000D-01  6.0841461613738D-01  1.1771494114343D+00
91  9.0000000000000D-01  5.7046843269179D-01  1.2233741781244D+00
92  9.1000000000000D-01  5.3278662520604D-01  1.2678197779081D+00
93  9.2000000000000D-01  4.9547250284705D-01  1.3102917896187D+00
94  9.3000000000000D-01  4.5862623593697D-01  1.3506031028614D+00
95  9.4000000000000D-01  4.2234429457763D-01  1.3885752274043D+00
96  9.5000000000000D-01  3.8671892057576D-01  1.4240395451695D+00
97  9.6000000000000D-01  3.5183763717131D-01  1.4568384939127D+00
98  9.7000000000000D-01  3.1778280065077D-01  1.4868266723473D+00
99  9.8000000000000D-01  2.8463119746795D-01  1.5138718572219D+00
100  9.9000000000000D-01  2.5245368998547D-01  1.5378559237397D+00
101  1.0000000000000D+00  2.2131491342726D-01  1.5586756616303D+00
102  1.0100000000000D+00  1.9127302607462D-01  1.5762434802027D+00
103  1.0200000000000D+00  1.6237951416824D-01  1.5904879967727D+00
104  1.0300000000000D+00  1.3467905238723D-01  1.6013545039956D+00
105  1.0400000000000D+00  1.0820942020378D-01  1.6088053127572D+00
106  1.0500000000000D+00  8.3001473824995D-02  1.6128199684603D+00
107  1.0600000000000D+00  5.9079172845691D-02  1.6133953397583D+00
108  1.0700000000000D+00  3.6459660199297D-02  1.6105455799267D+00
109  1.0800000000000D+00  1.5153393445039D-02  1.6043019622667D+00
110  1.0900000000000D+00 -4.8356750645791D-03  1.5947125920492D+00
111  1.1000000000000D+00 -2.3509872046933D-02  1.5818419985655D+00
112  1.1100000000000D+00 -4.0877534563401D-02  1.5657706119987D+00
113  1.1200000000000D+00 -5.6952702425691D-02  1.5465941307071D+00
114  1.1300000000000D+00 -7.1754775823791D-02  1.5244227855244D+00
115  1.1400000000000D+00 -8.5308142489908D-02  1.4993805083204D+00
116  1.1500000000000D+00 -9.7641779018744D-02  1.4716040130623D+00
117  1.1600000000000D+00 -1.0878883107091D-01  1.4412417980687D+00
118  1.1700000000000D+00 -1.1878617730590D-01  1.4084530787762D+00
119  1.1800000000000D+00 -1.2767398195741D-01  1.3734066606900D+00
120  1.1900000000000D+00 -1.3549524095043D-01  1.3362797626655D+00
121  1.2000000000000D+00 -1.4229532635857D-01  1.2972568007509D+00
122  1.2100000000000D+00 -1.4812153391147D-01  1.2565281429670D+00
123  1.2200000000000D+00 -1.5302263809426D-01  1.2142888454669D+00
124  1.2300000000000D+00 -1.5704845908353D-01  1.1707373803272D+00
125  1.2400000000000D+00 -1.6024944549600D-01  1.1260743649835D+00
126  1.2500000000000D+00 -1.6267627675445D-01  1.0805013032391D+00
127  1.2600000000000D+00 -1.6437948826877D-01  1.0342193470910D+00
128  1.2700000000000D+00 -1.6540912230160D-01  9.8742808813743D-01
129  1.2800000000000D+00 -1.6581440726058D-01  9.4032438725426D-01
130  1.2900000000000D+00 -1.6564346722150D-01  8.9310124988890D-01
131  1.3000000000000D+00 -1.6494306326071D-01  8.4594675388600D-01
132  1.3100000000000D+00 -1.6375836801675D-01  7.9904303662432D-01
133  1.3200000000000D+00 -1.6213277374617D-01  7.5256534630637D-01
134  1.3300000000000D+00 -1.6010773417935D-01  7.0668116221996D-01
135  1.3400000000000D+00 -1.5772264008851D-01  6.6154938822991D-01
136  1.3500000000000D+00 -1.5501472740004D-01  6.1731962162322D-01
137  1.3600000000000D+00 -1.5201901704705D-01  5.7413150010623D-01
138  1.3700000000000D+00 -1.4876828490003D-01  5.3211412816332D-01
139  1.3800000000000D+00 -1.4529305956249D-01  4.9138558248972D-01
140  1.3900000000000D+00 -1.4162164626745D-01  4.5205249746919D-01
141  1.4000000000000D+00 -1.3778017380392D-01  4.1420972841527D-01
142  1.4100000000000D+00 -1.3379266193734D-01  3.7794009134160D-01
143  1.4200000000000D+00 -1.2968110627838D-01  3.4331417715664D-01
144  1.4300000000000D+00 -1.2546557728036D-01  3.1039023630844D-01
145  1.4400000000000D+00 -1.2116433028284D-01  2.7921413157253D-01
146  1.4500000000000D+00 -1.1679392306845D-01  2.4981935392509D-01
147  1.4600000000000D+00 -1.1236933780321D-01  2.2222709775932D-01
148  1.4700000000000D+00 -1.0790410298703D-01  1.9644638639906D-01
149  1.4800000000000D+00 -1.0341041618275D-01  1.7247426226686D-01
150  1.4900000000000D+00 -9.8899256414025D-02  1.5029599445938D-01
151  1.5000000000000D+00 -9.4380517787431D-02  1.2988548385896D-01
152  1.5100000000000D+00 -8.9863016344131D-02  1.1120507789034D-01
153  1.5200000000000D+00 -8.5354669190358D-02  9.4206410170885D-02
154  1.5300000000000D+00 -8.0862851466815D-02  7.8832357127334D-02
155  1.5400000000000D+00 -7.6394722260502D-02  6.5018762067018D-02
156  1.5500000000000D+00 -7.1957640699684D-02  5.2696670175989D-02
157  1.5600000000000D+00 -6.7559277857035D-02  4.1792995879233D-02
158  1.5700000000000D+00 -6.3207654683981D-02  3.2230839179488D-02
159  1.5800000000000D+00 -5.8911253070544D-02  2.3930384398051D-02
160  1.5900000000000D+00 -5.4679054918980D-02  1.6809486917252D-02
161  1.6000000000000D+00 -5.0520573790393D-02  1.0784343436197D-02
162  1.6100000000000D+00 -4.6445859612527D-02  5.7701137682309D-03
163  1.6200000000000D+00 -4.2465480856677D-02  1.6815223431154D-03
164  1.6300000000000D+00 -3.8590486299577D-02 -1.5665655266017D-03
165  1.6400000000000D+00 -3.4832346181790D-02 -4.0585972693878D-03
166  1.6500000000000D+00 -3.1202875671468D-02 -5.8778164909481D-03
167  1.6600000000000D+00 -2.7714141627111D-02 -7.1057789728159D-03
168  1.6700000000000D+00 -2.4378355589408D-02 -7.8219010444734D-03
169  1.6800000000000D+00 -2.1207754762824D-02 -8.1030416599804D-03
170  1.6900000000000D+00 -1.8214474039857D-02 -8.0231176902310D-03
171  1.7000000000000D+00 -1.5410411192505D-02 -7.6527528599289D-03
172  1.7100000000000D+00 -1.2807088413278D-02 -7.0589593947145D-03
173  1.7200000000000D+00 -1.0415512416549D-02 -6.3048523402660D-03
174  1.7300000000000D+00 -8.2460362272359D-03 -5.4493951948556D-03
175  1.7400000000000D+00 -6.3082249049986D-03 -4.5471765924246D-03
176  1.7500000000000D+00 -4.6111578018016D-03 -3.6492514187668D-03
177  1.7600000000000D+00 -3.1620303552189D-03 -2.7998960714642D-03
178  1.7700000000000D+00 -1.9645716875737D-03 -2.0308414033397D-03
179  1.7800000000000D+00 -1.0258963953090D-03 -1.3822645001560D-03
180  1.7900000000000D+00 -3.5964109844273D-04 -9.2758028621615D-04
181  1.8000000000000D+00  3.6369521021139D-05 -6.8776677171434D-04
182  1.8100000000000D+00  1.8560541571713D-04 -5.1472332310606D-04
183  1.8200000000000D+00  1.3401099095794D-04 -2.6132635495368D-04
184  1.8300000000000D+00  1.8664610410552D-05 -3.1820004765778D-05
185  1.8400000000000D+00 -2.8920001812307D-05  4.6591432331058D-05
186  1.8500000000000D+00 -1.2828757420931D-05  1.9652340782362D-05
187  1.8600000000000D+00  5.1840111336081D-06 -9.2479745832712D-06
188  1.8700000000000D+00  4.3731700549669D-06 -7.6224173463766D-06
189  1.8800000000000D+00 -3.0736699222388D-07  8.4664643727063D-07
190  1.8900000000000D+00 -4.7625038300390D-07  1.3118379664051D-06
191  1.9000000000000D+00  0.0000000000000D+00  0.0000000000000D+00
192  1.9100000000000D+00  0.0000000000000D+00  0.0000000000000D+00
193  1.9200000000000D+00  0.0000000000000D+00  0.0000000000000D+00
194  1.9300000000000D+00  0.0000000000000D+00  0.0000000000000D+00
195  1.9400000000000D+00  0.0000000000000D+00  0.0000000000000D+00
196  1.9500000000000D+00  0.0000000000000D+00  0.0000000000000D+00
197  1.9600000000000D+00  0.0000000000000D+00  0.0000000000000D+00
198  1.9700000000000D+00  0.0000000000000D+00  0.0000000000000D+00
199  1.9800000000000D+00  0.0000000000000D+00  0.0000000000000D+00
200  1.9900000000000D+00  0.0000000000000D+00  0.0000000000000D+00
201  2.0000000000000D+00  0.0000000000000D+00  0.0000000000000D+00
202  2.0100000000000D+00  0.0000000000000D+00  0.0000000000000D+00
203  2.0200000000000D+00  0.0000000000000D+00  0.0000000000000D+00
204  2.0300000000000D+00  0.0000000000000D+00  0.0000000000000D+00
205  2.0400000000000D+00  0.0000000000000D+00  0.0000000000000D+00
206  2.0500000000000D+00  0.0000000000000D+00  0.0000000000000D+00
207  2.0600000000000D+00  0.0000000000000D+00  0.0000000000000D+00
208  2.0700000000000D+00  0.0000000000000D+00  0.0000000000000D+00
209  2.0800000000000D+00  0.0000000000000D+00  0.0000000000000D+00
210  2.0900000000000D+00  0.0000000000000D+00  0.0000000000000D+00
211  2.1000000000000D+00  0.0000000000000D+00  0.0000000000000D+00
212  2.1100000000000D+00  0.0000000000000D+00  0.0000000000000D+00
213  2.1200000000000D+00  0.0000000000000D+00  0.0000000000000D+00
214  2.1300000000000D+00  0.0000000000000D+00  0.0000000000000D+00
215  2.1400000000000D+00  0.0000000000000D+00  0.0000000000000D+00
216  2.1500000000000D+00  0.0000000000000D+00  0.0000000000000D+00
217  2.1600000000000D+00  0.0000000000000D+00  0.0000000000000D+00
218  2.1700000000000D+00  0.0000000000000D+00  0.0000000000000D+00
219  2.1800000000000D+00  0.0000000000000D+00  0.0000000000000D+00
220  2.1900000000000D+00  0.0000000000000D+00  0.0000000000000D+00
221  2.2000000000000D+00  0.0000000000000D+00  0.0000000000000D+00
222  2.2100000000000D+00  0.0000000000000D+00  0.0000000000000D+00
223  2.2200000000000D+00  0.0000000000000D+00  0.0000000000000D+00
224  2.2300000000000D+00  0.0000000000000D+00  0.0000000000000D+00
225  2.2400000000000D+00  0.0000000000000D+00  0.0000000000000D+00
226  2.2500000000000D+00  0.0000000000000D+00  0.0000000000000D+00
227  2.2600000000000D+00  0.0000000000000D+00  0.0000000000000D+00
228  2.2700000000000D+00  0.0000000000000D+00  0.0000000000000D+00
229  2.2800000000000D+00  0.0000000000000D+00  0.0000000000000D+00
230  2.2900000000000D+00  0.0000000000000D+00  0.0000000000000D+00
231  2.3000000000000D+00  0.0000000000000D+00  0.0000000000000D+00
232  2.3100000000000D+00  0.0000000000000D+00  0.0000000000000D+00
233  2.3200000000000D+00  0.0000000000000D+00  0.0000000000000D+00
234  2.3300000000000D+00  0.0000000000000D+00  0.0000000000000D+00
235  2.3400000000000D+00  0.0000000000000D+00  0.0000000000000D+00
236  2.3500000000000D+00  0.0000000000000D+00  0.0000000000000D+00
237  2.3600000000000D+00  0.0000000000000D+00  0.0000000000000D+00
238  2.3700000000000D+00  0.0000000000000D+00  0.0000000000000D+00
239  2.3800000000000D+00  0.0000000000000D+00  0.0000000000000D+00
240  2.3900000000000D+00  0.0000000000000D+00  0.0000000000000D+00
241  2.4000000000000D+00  0.0000000000000D+00  0.0000000000000D+00
242  2.4100000000000D+00  0.0000000000000D+00  0.0000000000000D+00
243  2.4200000000000D+00  0.0000000000000D+00  0.0000000000000D+00
244  2.4300000000000D+00  0.0000000000000D+00  0.0000000000000D+00
245  2.4400000000000D+00  0.0000000000000D+00  0.0000000000000D+00
246  2.4500000000000D+00  0.0000000000000D+00  0.0000000000000D+00
247  2.4600000000000D+00  0.0000000000000D+00  0.0000000000000D+00
248  2.4700000000000D+00  0.0000000000000D+00  0.0000000000000D+00
249  2.4800000000000D+00  0.0000000000000D+00  0.0000000000000D+00
250  2.4900000000000D+00  0.0000000000000D+00  0.0000000000000D+00
251  2.5000000000000D+00  0.0000000000000D+00  0.0000000000000D+00
252  2.5100000000000D+00  0.0000000000000D+00  0.0000000000000D+00
253  2.5200000000000D+00  0.0000000000000D+00  0.0000000000000D+00
254  2.5300000000000D+00  0.0000000000000D+00  0.0000000000000D+00
255  2.5400000000000D+00  0.0000000000000D+00  0.0000000000000D+00
256  2.5500000000000D+00  0.0000000000000D+00  0.0000000000000D+00
257  2.5600000000000D+00  0.0000000000000D+00  0.0000000000000D+00
258  2.5700000000000D+00  0.0000000000000D+00  0.0000000000000D+00
259  2.5800000000000D+00  0.0000000000000D+00  0.0000000000000D+00
260  2.5900000000000D+00  0.0000000000000D+00  0.0000000000000D+00
261  2.6000000000000D+00  0.0000000000000D+00  0.0000000000000D+00
262  2.6100000000000D+00  0.0000000000000D+00  0.0000000000000D+00
263  2.6200000000000D+00  0.0000000000000D+00  0.0000000000000D+00
264  2.6300000000000D+00  0.0000000000000D+00  0.0000000000000D+00
265  2.6400000000000D+00  0.0000000000000D+00  0.0000000000000D+00
266  2.6500000000000D+00  0.0000000000000D+00  0.0000000000000D+00
267  2.6600000000000D+00  0.0000000000000D+00  0.0000000000000D+00
268  2.6700000000000D+00  0.0000000000000D+00  0.0000000000000D+00
269  2.6800000000000D+00  0.0000000000000D+00  0.0000000000000D+00
270  2.6900000000000D+00  0.0000000000000D+00  0.0000000000000D+00
271  2.7000000000000D+00  0.0000000000000D+00  0.0000000000000D+00
272  2.7100000000000D+00  0.0000000000000D+00  0.0000000000000D+00
273  2.7200000000000D+00  0.0000000000000D+00  0.0000000000000D+00
274  2.7300000000000D+00  0.0000000000000D+00  0.0000000000000D+00
275  2.7400000000000D+00  0.0000000000000D+00  0.0000000000000D+00
276  2.7500000000000D+00  0.0000000000000D+00  0.0000000000000D+00
277  2.7600000000000D+00  0.0000000000000D+00  0.0000000000000D+00
278  2.7700000000000D+00  0.0000000000000D+00  0.0000000000000D+00
279  2.7800000000000D+00  0.0000000000000D+00  0.0000000000000D+00
280  2.7900000000000D+00  0.0000000000000D+00  0.0000000000000D+00
281  2.8000000000000D+00  0.0000000000000D+00  0.0000000000000D+00
282  2.8100000000000D+00  0.0000000000000D+00  0.0000000000000D+00
283  2.8200000000000D+00  0.0000000000000D+00  0.0000000000000D+00
284  2.8300000000000D+00  0.0000000000000D+00  0.0000000000000D+00
285  2.8400000000000D+00  0.0000000000000D+00  0.0000000000000D+00
286  2.8500000000000D+00  0.0000000000000D+00  0.0000000000000D+00
287  2.8600000000000D+00  0.0000000000000D+00  0.0000000000000D+00
288  2.8700000000000D+00  0.0000000000000D+00  0.0000000000000D+00
289  2.8800000000000D+00  0.0000000000000D+00  0.0000000000000D+00
290  2.8900000000000D+00  0.0000000000000D+00  0.0000000000000D+00
291  2.9000000000000D+00  0.0000000000000D+00  0.0000000000000D+00
292  2.9100000000000D+00  0.0000000000000D+00  0.0000000000000D+00
293  2.9200000000000D+00  0.0000000000000D+00  0.0000000000000D+00
294  2.9300000000000D+00  0.0000000000000D+00  0.0000000000000D+00
295  2.9400000000000D+00  0.0000000000000D+00  0.0000000000000D+00
296  2.9500000000000D+00  0.0000000000000D+00  0.0000000000000D+00
297  2.9600000000000D+00  0.0000000000000D+00  0.0000000000000D+00
298  2.9700000000000D+00  0.0000000000000D+00  0.0000000000000D+00
299  2.9800000000000D+00  0.0000000000000D+00  0.0000000000000D+00
300  2.9900000000000D+00  0.0000000000000D+00  0.0000000000000D+00
301  3.0000000000000D+00  0.0000000000000D+00  0.0000000000000D+00
302  3.0100000000000D+00  0.0000000000000D+00  0.0000000000000D+00
303  3.0200000000000D+00  0.0000000000000D+00  0.0000000000000D+00
304  3.0300000000000D+00  0.0000000000000D+00  0.0000000000000D+00
305  3.0400000000000D+00  0.0000000000000D+00  0.0000000000000D+00
306  3.0500000000000D+00  0.0000000000000D+00  0.0000000000000D+00
307  3.0600000000000D+00  0.0000000000000D+00  0.0000000000000D+00
308  3.0700000000000D+00  0.0000000000000D+00  0.0000000000000D+00
309  3.0800000000000D+00  0.0000000000000D+00  0.0000000000000D+00
310  3.0900000000000D+00  0.0000000000000D+00  0.0000000000000D+00
311  3.1000000000000D+00  0.0000000000000D+00  0.0000000000000D+00
312  3.1100000000000D+00  0.0000000000000D+00  0.0000000000000D+00
313  3.1200000000000D+00  0.0000000000000D+00  0.0000000000000D+00
314  3.1300000000000D+00  0.0000000000000D+00  0.0000000000000D+00
315  3.1400000000000D+00  0.0000000000000D+00  0.0000000000000D+00
316  3.1500000000000D+00  0.0000000000000D+00  0.0000000000000D+00
317  3.1600000000000D+00  0.0000000000000D+00  0.0000000000000D+00
318  3.1700000000000D+00  0.0000000000000D+00  0.0000000000000D+00
319  3.1800000000000D+00  0.0000000000000D+00  0.0000000000000D+00
320  3.1900000000000D+00  0.0000000000000D+00  0.0000000000000D+00
321  3.2000000000000D+00  0.0000000000000D+00  0.0000000000000D+00
322  3.2100000000000D+00  0.0000000000000D+00  0.0000000000000D+00
323  3.2200000000000D+00  0.0000000000000D+00  0.0000000000000D+00
324  3.2300000000000D+00  0.0000000000000D+00  0.0000000000000D+00
325  3.2400000000000D+00  0.0000000000000D+00  0.0000000000000D+00
326  3.2500000000000D+00  0.0000000000000D+00  0.0000000000000D+00
327  3.2600000000000D+00  0.0000000000000D+00  0.0000000000000D+00
328  3.2700000000000D+00  0.0000000000000D+00  0.0000000000000D+00
329  3.2800000000000D+00  0.0000000000000D+00  0.0000000000000D+00
330  3.2900000000000D+00  0.0000000000000D+00  0.0000000000000D+00
331  3.3000000000000D+00  0.0000000000000D+00  0.0000000000000D+00
332  3.3100000000000D+00  0.0000000000000D+00  0.0000000000000D+00
333  3.3200000000000D+00  0.0000000000000D+00  0.0000000000000D+00
334  3.3300000000000D+00  0.0000000000000D+00  0.0000000000000D+00
335  3.3400000000000D+00  0.0000000000000D+00  0.0000000000000D+00
336  3.3500000000000D+00  0.0000000000000D+00  0.0000000000000D+00
337  3.3600000000000D+00  0.0000000000000D+00  0.0000000000000D+00
338  3.3700000000000D+00  0.0000000000000D+00  0.0000000000000D+00
339  3.3800000000000D+00  0.0000000000000D+00  0.0000000000000D+00
340  3.3900000000000D+00  0.0000000000000D+00  0.0000000000000D+00
341  3.4000000000000D+00  0.0000000000000D+00  0.0000000000000D+00
342  3.4100000000000D+00  0.0000000000000D+00  0.0000000000000D+00
343  3.4200000000000D+00  0.0000000000000D+00  0.0000000000000D+00
344  3.4300000000000D+00  0.0000000000000D+00  0.0000000000000D+00
345  3.4400000000000D+00  0.0000000000000D+00  0.0000000000000D+00
346  3.4500000000000D+00  0.0000000000000D+00  0.0000000000000D+00
347  3.4600000000000D+00  0.0000000000000D+00  0.0000000000000D+00
348  3.4700000000000D+00  0.0000000000000D+00  0.0000000000000D+00
349  3.4800000000000D+00  0.0000000000000D+00  0.0000000000000D+00
350  3.4900000000000D+00  0.0000000000000D+00  0.0000000000000D+00
351  3.5000000000000D+00  0.0000000000000D+00  0.0000000000000D+00
352  3.5100000000000D+00  0.0000000000000D+00  0.0000000000000D+00
353  3.5200000000000D+00  0.0000000000000D+00  0.0000000000000D+00
354  3.5300000000000D+00  0.0000000000000D+00  0.0000000000000D+00
355  3.5400000000000D+00  0.0000000000000D+00  0.0000000000000D+00
356  3.5500000000000D+00  0.0000000000000D+00  0.0000000000000D+00
357  3.5600000000000D+00  0.0000000000000D+00  0.0000000000000D+00
358  3.5700000000000D+00  0.0000000000000D+00  0.0000000000000D+00
359  3.5800000000000D+00  0.0000000000000D+00  0.0000000000000D+00
360  3.5900000000000D+00  0.0000000000000D+00  0.0000000000000D+00
361  3.6000000000000D+00  0.0000000000000D+00  0.0000000000000D+00
362  3.6100000000000D+00  0.0000000000000D+00  0.0000000000000D+00
363  3.6200000000000D+00  0.0000000000000D+00  0.0000000000000D+00
364  3.6300000000000D+00  0.0000000000000D+00  0.0000000000000D+00
365  3.6400000000000D+00  0.0000000000000D+00  0.0000000000000D+00
366  3.6500000000000D+00  0.0000000000000D+00  0.0000000000000D+00
367  3.6600000000000D+00  0.0000000000000D+00  0.0000000000000D+00
368  3.6700000000000D+00  0.0000000000000D+00  0.0000000000000D+00
369  3.6800000000000D+00  0.0000000000000D+00  0.0000000000000D+00
370  3.6900000000000D+00  0.0000000000000D+00  0.0000000000000D+00
371  3.7000000000000D+00  0.0000000000000D+00  0.0000000000000D+00
372  3.7100000000000D+00  0.0000000000000D+00  0.0000000000000D+00
373  3.7200000000000D+00  0.0000000000000D+00  0.0000000000000D+00
374  3.7300000000000D+00  0.0000000000000D+00  0.0000000000000D+00
375  3.7400000000000D+00  0.0000000000000D+00  0.0000000000000D+00
376  3.7500000000000D+00  0.0000000000000D+00  0.0000000000000D+00
377  3.7600000000000D+00  0.0000000000000D+00  0.0000000000000D+00
378  3.7700000000000D+00  0.0000000000000D+00  0.0000000000000D+00
379  3.7800000000000D+00  0.0000000000000D+00  0.0000000000000D+00
380  3.7900000000000D+00  0.0000000000000D+00  0.0000000000000D+00
381  3.8000000000000D+00  0.0000000000000D+00  0.0000000000000D+00
382  3.8100000000000D+00  0.0000000000000D+00  0.0000000000000D+00
383  3.8200000000000D+00  0.0000000000000D+00  0.0000000000000D+00
384  3.8300000000000D+00  0.0000000000000D+00  0.0000000000000D+00
385  3.8400000000000D+00  0.0000000000000D+00  0.0000000000000D+00
386  3.8500000000000D+00  0.0000000000000D+00  0.0000000000000D+00
387  3.8600000000000D+00  0.0000000000000D+00  0.0000000000000D+00
388  3.8700000000000D+00  0.0000000000000D+00  0.0000000000000D+00
389  3.8800000000000D+00  0.0000000000000D+00  0.0000000000000D+00
390  3.8900000000000D+00  0.0000000000000D+00  0.0000000000000D+00
391  3.9000000000000D+00  0.0000000000000D+00  0.0000000000000D+00
392  3.9100000000000D+00  0.0000000000000D+00  0.0000000000000D+00
393  3.9200000000000D+00  0.0000000000000D+00  0.0000000000000D+00
394  3.9300000000000D+00  0.0000000000000D+00  0.0000000000000D+00
395  3.9400000000000D+00  0.0000000000000D+00  0.0000000000000D+00
396  3.9500000000000D+00  0.0000000000000D+00  0.0000000000000D+00
397  3.9600000000000D+00  0.0000000000000D+00  0.0000000000000D+00
398  3.9700000000000D+00  0.0000000000000D+00  0.0000000000000D+00
399  3.9800000000000D+00  0.0000000000000D+00  0.0000000000000D+00
400  3.9900000000000D+00  0.0000000000000D+00  0.0000000000000D+00
401  4.0000000000000D+00  0.0000000000000D+00  0.0000000000000D+00
402  4.0100000000000D+00  0.0000000000000D+00  0.0000000000000D+00
403  4.0200000000000D+00  0.0000000000000D+00  0.0000000000000D+00
404  4.0300000000000D+00  0.0000000000000D+00  0.0000000000000D+00
405  4.0400000000000D+00  0.0000000000000D+00  0.0000000000000D+00
406  4.0500000000000D+00  0.0000000000000D+00  0.0000000000000D+00
407  4.0600000000000D+00  0.0000000000000D+00  0.0000000000000D+00
408  4.0700000000000D+00  0.0000000000000D+00  0.0000000000000D+00
409  4.0800000000000D+00  0.0000000000000D+00  0.0000000000000D+00
410  4.0900000000000D+00  0.0000000000000D+00  0.0000000000000D+00
411  4.1000000000000D+00  0.0000000000000D+00  0.0000000000000D+00
412  4.1100000000000D+00  0.0000000000000D+00  0.0000000000000D+00
413  4.1200000000000D+00  0.0000000000000D+00  0.0000000000000D+00
414  4.1300000000000D+00  0.0000000000000D+00  0.0000000000000D+00
415  4.1400000000000D+00  0.0000000000000D+00  0.0000000000000D+00
416  4.1500000000000D+00  0.0000000000000D+00  0.0000000000000D+00
417  4.1600000000000D+00  0.0000000000000D+00  0.0000000000000D+00
418  4.1700000000000D+00  0.0000000000000D+00  0.0000000000000D+00
419  4.1800000000000D+00  0.0000000000000D+00  0.0000000000000D+00
420  4.1900000000000D+00  0.0000000000000D+00  0.0000000000000D+00
421  4.2000000000000D+00  0.0000000000000D+00  0.0000000000000D+00
422  4.2100000000000D+00  0.0000000000000D+00  0.0000000000000D+00
423  4.2200000000000D+00  0.0000000000000D+00  0.0000000000000D+00
424  4.2300000000000D+00  0.0000000000000D+00  0.0000000000000D+00
425  4.2400000000000D+00  0.0000000000000D+00  0.0000000000000D+00
426  4.2500000000000D+00  0.0000000000000D+00  0.0000000000000D+00
427  4.2600000000000D+00  0.0000000000000D+00  0.0000000000000D+00
428  4.2700000000000D+00  0.0000000000000D+00  0.0000000000000D+00
429  4.2800000000000D+00  0.0000000000000D+00  0.0000000000000D+00
430  4.2900000000000D+00  0.0000000000000D+00  0.0000000000000D+00
431  4.3000000000000D+00  0.0000000000000D+00  0.0000000000000D+00
432  4.3100000000000D+00  0.0000000000000D+00  0.0000000000000D+00
433  4.3200000000000D+00  0.0000000000000D+00  0.0000000000000D+00
434  4.3300000000000D+00  0.0000000000000D+00  0.0000000000000D+00
435  4.3400000000000D+00  0.0000000000000D+00  0.0000000000000D+00
436  4.3500000000000D+00  0.0000000000000D+00  0.0000000000000D+00
437  4.3600000000000D+00  0.0000000000000D+00  0.0000000000000D+00
438  4.3700000000000D+00  0.0000000000000D+00  0.0000000000000D+00
439  4.3800000000000D+00  0.0000000000000D+00  0.0000000000000D+00
440  4.3900000000000D+00  0.0000000000000D+00  0.0000000000000D+00
441  4.4000000000000D+00  0.0000000000000D+00  0.0000000000000D+00
442  4.4100000000000D+00  0.0000000000000D+00  0.0000000000000D+00
443  4.4200000000000D+00  0.0000000000000D+00  0.0000000000000D+00