Te    ONCVPSP-3.3.0  r_core=   2.40470   2.21206   2.61411
52.0000      6.0000      180112    zatom,zion,pspd
8 -116133   2     4   600     0    pspcod,pspxc,lmax,lloc,mmax,r2well
5.99000000  9.00000000  0.00000000    rchrg fchrg qchrg
2     2     2     0     0    nproj
1     1           extension_switch
0                         4.5018642340555D+00  4.1935377592919D-01
1  0.0000000000000D+00 -1.0167450215093D-11  4.4392045595032D-11
2  1.0000000000000D-02  2.4773084867356D-02 -1.1615423561936D-02
3  2.0000000000000D-02  4.9524420944310D-02 -2.3166606517991D-02
4  3.0000000000000D-02  7.4232343863841D-02 -3.4589683991949D-02
5  4.0000000000000D-02  9.8875357628404D-02 -4.5821540446721D-02
6  5.0000000000000D-02  1.2343221760404D-01 -5.6800179064616D-02
7  6.0000000000000D-02  1.4788201209293D-01 -6.7465084811888D-02
8  7.0000000000000D-02  1.7220424202249D-01 -7.7757579134513D-02
9  8.0000000000000D-02  1.9637889829932D-01 -8.7621164276528D-02
10  9.0000000000000D-02  2.2038653638888D-01 -9.7001855267388D-02
11  1.0000000000000D-01  2.4420834769675D-01 -1.0584849769022D-01
12  1.1000000000000D-01  2.6782622734483D-01 -1.1411306941847D-01
13  1.2000000000000D-01  2.9122283795501D-01 -1.2175096459357D-01
14  1.3000000000000D-01  3.1438166907486D-01 -1.2872125821097D-01
15  1.4000000000000D-01  3.3728709190326D-01 -1.3498694978478D-01
16  1.5000000000000D-01  3.5992440899960D-01 -1.4051518467333D-01
17  1.6000000000000D-01  3.8227989868736D-01 -1.4527745176668D-01
18  1.7000000000000D-01  4.0434085389189D-01 -1.4924975636372D-01
19  1.8000000000000D-01  4.2609561518254D-01 -1.5241276719938D-01
20  1.9000000000000D-01  4.4753359782096D-01 -1.5475193672063D-01
21  2.0000000000000D-01  4.6864531265032D-01 -1.5625759385393D-01
22  2.1000000000000D-01  4.8942238069402D-01 -1.5692500865474D-01
23  2.2000000000000D-01  5.0985754136698D-01 -1.5675442838087D-01
24  2.3000000000000D-01  5.2994465423802D-01 -1.5575108468641D-01
25  2.4000000000000D-01  5.4967869431751D-01 -1.5392517178869D-01
26  2.5000000000000D-01  5.6905574088042D-01 -1.5129179561891D-01
27  2.6000000000000D-01  5.8807295987094D-01 -1.4787089412462D-01
28  2.7000000000000D-01  6.0672857997088D-01 -1.4368712905013D-01
29  2.8000000000000D-01  6.2502186244954D-01 -1.3876974967699D-01
30  2.9000000000000D-01  6.4295306494815D-01 -1.3315242916142D-01
31  3.0000000000000D-01  6.6052339938605D-01 -1.2687307425645D-01
32  3.1000000000000D-01  6.7773498420987D-01 -1.1997360935505D-01
33  3.2000000000000D-01  6.9459079123918D-01 -1.1249973593342D-01
34  3.3000000000000D-01  7.1109458739377D-01 -1.0450066861227D-01
35  3.4000000000000D-01  7.2725087161731D-01 -9.6028849185959D-02
36  3.5000000000000D-01  7.4306480734117D-01 -8.7139640095543D-02
37  3.6000000000000D-01  7.5854215085830D-01 -7.7890998939864D-02
38  3.7000000000000D-01  7.7368917600267D-01 -6.8343135729772D-02
39  3.8000000000000D-01  7.8851259555197D-01 -5.8558154692343D-02
40  3.9000000000000D-01  8.0301947979293D-01 -4.8599682525290D-02
41  4.0000000000000D-01  8.1721717270635D-01 -3.8532485084728D-02
42  4.1000000000000D-01  8.3111320624608D-01 -2.8422074563233D-02
43  4.2000000000000D-01  8.4471521319918D-01 -1.8334309277677D-02
44  4.3000000000000D-01  8.5803083912650D-01 -8.3349882384871D-03
45  4.4000000000000D-01  8.7106765389125D-01  1.5105572874329D-03
46  4.5000000000000D-01  8.8383306328928D-01  1.1137872978136D-02
47  4.6000000000000D-01  8.9633422129825D-01  2.0483789163139D-02
48  4.7000000000000D-01  9.0857794346348D-01  2.9486824769516D-02
49  4.8000000000000D-01  9.2057062193610D-01  3.8087585247996D-02
50  4.9000000000000D-01  9.3231814267445D-01  4.6229152237583D-02
51  5.0000000000000D-01  9.4382580531179D-01  5.3857462756669D-02
52  5.1000000000000D-01  9.5509824618340D-01  6.0921675750247D-02
53  5.2000000000000D-01  9.6613936499292D-01  6.7374523875905D-02
54  5.3000000000000D-01  9.7695225558211D-01  7.3172648475934D-02
55  5.4000000000000D-01  9.8753914125029D-01  7.8276915758315D-02
56  5.5000000000000D-01  9.9790131504857D-01  8.2652712296153D-02
57  5.6000000000000D-01  1.0080390854514D+00  8.6270218051813D-02
58  5.7000000000000D-01  1.0179517277819D+00  8.9104655238973D-02
59  5.8000000000000D-01  1.0276374417408D+00  9.1136511452281D-02
60  5.9000000000000D-01  1.0370933153580D+00  9.2351735619464D-02
61  6.0000000000000D-01  1.0463152956553D+00  9.2741905464553D-02
62  6.1000000000000D-01  1.0552981662748D+00  9.2304365312217D-02
63  6.2000000000000D-01  1.0640355322927D+00  9.1042333211370D-02
64  6.3000000000000D-01  1.0725198124025D+00  8.8964976511561D-02
65  6.4000000000000D-01  1.0807422386129D+00  8.6087455184737D-02
66  6.5000000000000D-01  1.0886928635677D+00  8.2430932351190D-02
67  6.6000000000000D-01  1.0963605755557D+00  7.8022551636660D-02
68  6.7000000000000D-01  1.1037331212369D+00  7.2895381159304D-02
69  6.8000000000000D-01  1.1107971360732D+00  6.7088324120216D-02
70  6.9000000000000D-01  1.1175381824078D+00  6.0645996146026D-02
71  7.0000000000000D-01  1.1239407950982D+00  5.3618569708210D-02
72  7.1000000000000D-01  1.1299885345666D+00  4.6061586119023D-02
73  7.2000000000000D-01  1.1356640470908D+00  3.8035735778455D-02
74  7.3000000000000D-01  1.1409491321182D+00  2.9606607517830D-02
75  7.4000000000000D-01  1.1458248163461D+00  2.0844408054759D-02
76  7.5000000000000D-01  1.1502714342756D+00  1.1823652738111D-02
77  7.6000000000000D-01  1.1542687149055D+00  2.6228289215391D-03
78  7.7000000000000D-01  1.1577958742000D+00 -6.6759665420340D-03
79  7.8000000000000D-01  1.1608317129286D+00 -1.5987414045773D-02
80  7.9000000000000D-01  1.1633547194445D+00 -2.5223380435225D-02
81  8.0000000000000D-01  1.1653431769372D+00 -3.4293348764850D-02
82  8.1000000000000D-01  1.1667752746672D+00 -4.3104866572087D-02
83  8.2000000000000D-01  1.1676292226643D+00 -5.1564010522795D-02
84  8.3000000000000D-01  1.1678833693474D+00 -5.9575865179851D-02
85  8.4000000000000D-01  1.1675163215024D+00 -6.7045013554119D-02
86  8.5000000000000D-01  1.1665070660388D+00 -7.3876037017703D-02
87  8.6000000000000D-01  1.1648350929247D+00 -7.9974022089947D-02
88  8.7000000000000D-01  1.1624805186949D+00 -8.5245071550953D-02
89  8.8000000000000D-01  1.1594242099092D+00 -8.9596817294192D-02
90  8.9000000000000D-01  1.1556479059383D+00 -9.2938932298742D-02
91  9.0000000000000D-01  1.1511343404463D+00 -9.5183639085050D-02
92  9.1000000000000D-01  1.1458673609412D+00 -9.6246212014248D-02
93  9.2000000000000D-01  1.1398320457676D+00 -9.6045470800605D-02
94  9.3000000000000D-01  1.1330148179195D+00 -9.4504262630370D-02
95  9.4000000000000D-01  1.1254035550646D+00 -9.1549930317086D-02
96  9.5000000000000D-01  1.1169876951795D+00 -8.7114763973756D-02
97  9.6000000000000D-01  1.1077583372140D+00 -8.1136433745984D-02
98  9.7000000000000D-01  1.0977083362197D+00 -7.3558401226552D-02
99  9.8000000000000D-01  1.0868323924005D+00 -6.4330307263026D-02
100  9.9000000000000D-01  1.0751271335673D+00 -5.3408333967994D-02
101  1.0000000000000D+00  1.0625911905047D+00 -4.0755538859469D-02
102  1.0100000000000D+00  1.0492252647910D+00 -2.6342159181609D-02
103  1.0200000000000D+00  1.0350321886420D+00 -1.0145884592400D-02
104  1.0300000000000D+00  1.0200169763861D+00  7.8479034493173D-03
105  1.0400000000000D+00  1.0041868672154D+00  2.7645927107192D-02
106  1.0500000000000D+00  9.8755135889472D-01  4.9246843749012D-02
107  1.0600000000000D+00  9.7012223215552D-01  7.2641114864452D-02
108  1.0700000000000D+00  9.5191356553999D-01  9.7810913308860D-02
109  1.0800000000000D+00  9.3294174050908D-01  1.2473006968619D-01
110  1.0900000000000D+00  9.1322543667220D-01  1.5336405848371D-01
111  1.1000000000000D+00  8.9278561704220D-01  1.8367002438489D-01
112  1.1100000000000D+00  8.7164550326678D-01  2.1559684898743D-01
113  1.1200000000000D+00  8.4983054083817D-01  2.4908525793978D-01
114  1.1300000000000D+00  8.2736835432877D-01  2.8406796831846D-01
115  1.1400000000000D+00  8.0428869275181D-01  3.2046987585331D-01
116  1.1500000000000D+00  7.8062336518665D-01  3.5820828143711D-01
117  1.1600000000000D+00  7.5640616686829D-01  3.9719315610602D-01
118  1.1700000000000D+00  7.3167279598086D-01  4.3732744350921D-01
119  1.1800000000000D+00  7.0646076144139D-01  4.7850739869076D-01
120  1.1900000000000D+00  6.8080928200378D-01  5.2062296182522D-01
121  1.2000000000000D+00  6.5475917706432D-01  5.6355816533371D-01
122  1.2100000000000D+00  6.2835274959113D-01  6.0719157263586D-01
123  1.2200000000000D+00  6.0163366162484D-01  6.5139674668967D-01
124  1.2300000000000D+00  5.7464680286033D-01  6.9604274621035D-01
125  1.2400000000000D+00  5.4743815284445D-01  7.4099464735653D-01
126  1.2500000000000D+00  5.2005463735030D-01  7.8611408856449D-01
127  1.2600000000000D+00  4.9254397953290D-01  8.3125983602848D-01
128  1.2700000000000D+00  4.6495454649962D-01  8.7628836720850D-01
129  1.2800000000000D+00  4.3733519194095D-01  9.2105446969545D-01
130  1.2900000000000D+00  4.0973509550180D-01  9.6541185262291D-01
131  1.3000000000000D+00  3.8220359959421D-01  1.0092137677304D+00
132  1.3100000000000D+00  3.5479004435476D-01  1.0523136371755D+00
133  1.3200000000000D+00  3.2754360147720D-01  1.0945656850791D+00
134  1.3300000000000D+00  3.0051310765288D-01  1.1358255697876D+00
135  1.3400000000000D+00  2.7374689835426D-01  1.1759510138221D+00
136  1.3500000000000D+00  2.4729264270930D-01  1.2148024284386D+00
137  1.3600000000000D+00  2.2119718019357D-01  1.2522435298177D+00
138  1.3700000000000D+00  1.9550635988925D-01  1.2881419438035D+00
139  1.3800000000000D+00  1.7026488302130D-01  1.3223697962900D+00
140  1.3900000000000D+00  1.4551614948358D-01  1.3548042863390D+00
141  1.4000000000000D+00  1.2130210906929D-01  1.3853282391102D+00
142  1.4100000000000D+00  9.7663118038727D-02  1.4138306360404D+00
143  1.4200000000000D+00  7.4637801730814D-02  1.4402071193877D+00
144  1.4300000000000D+00  5.2262923799758D-02  1.4643604688024D+00
145  1.4400000000000D+00  3.0573262680464D-02  1.4862010474878D+00
146  1.4500000000000D+00  9.6014958908238D-03  1.5056472154982D+00
147  1.4600000000000D+00 -1.0621907404022D-02  1.5226257085061D+00
148  1.4700000000000D+00 -3.0068784933966D-02  1.5370719794860D+00
149  1.4800000000000D+00 -4.8713370668644D-02  1.5489305021683D+00
150  1.4900000000000D+00 -6.6532374457270D-02  1.5581550342424D+00
151  1.5000000000000D+00 -8.3505051636722D-02  1.5647088390650D+00
152  1.5100000000000D+00 -9.9613262346400D-02  1.5685648649036D+00
153  1.5200000000000D+00 -1.1484152014398D-01  1.5697058801348D+00
154  1.5300000000000D+00 -1.2917702994214D-01  1.5681245646273D+00
155  1.5400000000000D+00 -1.4260971480081D-01  1.5638235554745D+00
156  1.5500000000000D+00 -1.5513223179266D-01  1.5568154481475D+00
157  1.5600000000000D+00 -1.6673997658381D-01  1.5471227516900D+00
158  1.5700000000000D+00 -1.7743107696984D-01  1.5347777991179D+00
159  1.5800000000000D+00 -1.8720637524453D-01  1.5198226126440D+00
160  1.5900000000000D+00 -1.9606939960017D-01  1.5023087247146D+00
161  1.6000000000000D+00 -2.0402632469685D-01  1.4822969555743D+00
162  1.6100000000000D+00 -2.1108592155056D-01  1.4598571481402D+00
163  1.6200000000000D+00 -2.1725949712813D-01  1.4350678619542D+00
164  1.6300000000000D+00 -2.2256082376184D-01  1.4080160268395D+00
165  1.6400000000000D+00 -2.2700605899340D-01  1.3787965589539D+00
166  1.6500000000000D+00 -2.3061365594708D-01  1.3475119398178D+00
167  1.6600000000000D+00 -2.3340426502100D-01  1.3142717617459D+00
168  1.6700000000000D+00 -2.3540062701488D-01  1.2791922403479D+00
169  1.6800000000000D+00 -2.3662745861022D-01  1.2423956980377D+00
170  1.6900000000000D+00 -2.3711133037586D-01  1.2040100194574D+00
171  1.7000000000000D+00 -2.3688053828338D-01  1.1641680830148D+00
172  1.7100000000000D+00 -2.3596496899654D-01  1.1230071698363D+00
173  1.7200000000000D+00 -2.3439595992819D-01  1.0806683543389D+00
174  1.7300000000000D+00 -2.3220615445235D-01  1.0372958782514D+00
175  1.7400000000000D+00 -2.2942935321902D-01  9.9303651206541D-01
176  1.7500000000000D+00 -2.2610036210427D-01  9.4803890635624D-01
177  1.7600000000000D+00 -2.2225483765582D-01  9.0245293656060D-01
178  1.7700000000000D+00 -2.1792913071284D-01  8.5642904425620D-01
179  1.7800000000000D+00 -2.1316012895540D-01  8.1011757807626D-01
180  1.7900000000000D+00 -2.0798509917813D-01  7.6366813775859D-01
181  1.8000000000000D+00 -2.0244152995955D-01  7.1722892411900D-01
182  1.8100000000000D+00 -1.9656697556040D-01  6.7094609855004D-01
183  1.8200000000000D+00 -1.9039890171344D-01  6.2496315483524D-01
184  1.8300000000000D+00 -1.8397453403974D-01  5.7942030637039D-01
185  1.8400000000000D+00 -1.7733070988365D-01  5.3445389220132D-01
186  1.8500000000000D+00 -1.7050373400314D-01  4.9019580357763D-01
187  1.8600000000000D+00 -1.6352923923627D-01  4.4677293592758D-01
188  1.8700000000000D+00 -1.5644205204742D-01  4.0430666553764D-01
189  1.8800000000000D+00 -1.4927606453453D-01  3.6291235789871D-01
190  1.8900000000000D+00 -1.4206411232507D-01  3.2269890488740D-01
191  1.9000000000000D+00 -1.3483786003287D-01  2.8376829810328D-01
192  1.9100000000000D+00 -1.2762769377211D-01  2.4621523588802D-01
193  1.9200000000000D+00 -1.2046262187417D-01  2.1012676894404D-01
194  1.9300000000000D+00 -1.1337018394042D-01  1.7558198495203D-01
195  1.9400000000000D+00 -1.0637636830525D-01  1.4265173231719D-01
196  1.9500000000000D+00 -9.9505539159886D-02  1.1139838840569D-01
197  1.9600000000000D+00 -9.2780371957630D-02  8.1875665974164D-02
198  1.9700000000000D+00 -8.6221799460978D-02  5.4128468035299D-02
199  1.9800000000000D+00 -7.9848966377352D-02  2.8192781918801D-02
200  1.9900000000000D+00 -7.3679194430713D-02  4.0956204743748D-03
201  2.0000000000000D+00 -6.7727956999782D-02 -1.8144993583955D-02
202  2.0100000000000D+00 -6.2008863237616D-02 -3.8520000751617D-02
203  2.0200000000000D+00 -5.6533652747106D-02 -5.7029230704564D-02
204  2.0300000000000D+00 -5.1312198668960D-02 -7.3681290715860D-02
205  2.0400000000000D+00 -4.6352521527980D-02 -8.8493406473695D-02
206  2.0500000000000D+00 -4.1660811367646D-02 -1.0149122624069D-01
207  2.0600000000000D+00 -3.7241459241337D-02 -1.1270858390046D-01
208  2.0700000000000D+00 -3.3097097723895D-02 -1.2218722254236D-01
209  2.0800000000000D+00 -2.9228648816884D-02 -1.2997648581383D-01
210  2.0900000000000D+00 -2.5635381030848D-02 -1.3613296954416D-01
211  2.1000000000000D+00 -2.2314972902879D-02 -1.4072014564634D-01
212  2.1100000000000D+00 -1.9263584081503D-02 -1.4380795364554D-01
213  2.1200000000000D+00 -1.6475933013076D-02 -1.4547236418563D-01
214  2.1300000000000D+00 -1.3945379943700D-02 -1.4579492020830D-01
215  2.1400000000000D+00 -1.1664015466099D-02 -1.4486225615066D-01
216  2.1500000000000D+00 -9.6227563149909D-03 -1.4276558237355D-01
217  2.1600000000000D+00 -7.8114416739730D-03 -1.3960017413163D-01
218  2.1700000000000D+00 -6.2189229113129D-03 -1.3546490286844D-01
219  2.1800000000000D+00 -4.8332071145316D-03 -1.3046147429056D-01
220  2.1900000000000D+00 -3.6415268351334D-03 -1.2469407494691D-01
221  2.2000000000000D+00 -2.6304260950910D-03 -1.1826894590051D-01
222  2.2100000000000D+00 -1.7858748219940D-03 -1.1129379410574D-01
223  2.2200000000000D+00 -1.0934820315503D-03 -1.0387664202865D-01
224  2.2300000000000D+00 -5.3864713864831D-04 -9.6125007608704D-02
225  2.2400000000000D+00 -1.0673680525723D-04 -8.8145011695673D-02
226  2.2500000000000D+00  2.1674707113564D-04 -8.0040524702308D-02
227  2.2600000000000D+00  4.4593460983781D-04 -7.1911945915984D-02
228  2.2700000000000D+00  5.9454690853791D-04 -6.3856078745398D-02
229  2.2800000000000D+00  6.7578067723690D-04 -5.5965592180881D-02
230  2.2900000000000D+00  7.0220979813245D-04 -4.8328569442061D-02
231  2.3000000000000D+00  6.8566465065719D-04 -4.1027911015826D-02
232  2.3100000000000D+00  6.3714690594055D-04 -3.4140949110256D-02
233  2.3200000000000D+00  5.6673958487200D-04 -2.7739022819493D-02
234  2.3300000000000D+00  4.8374338924691D-04 -2.1893535827493D-02
235  2.3400000000000D+00  3.9572944668044D-04 -1.6649778406955D-02
236  2.3500000000000D+00  3.0916135010692D-04 -1.2050048121005D-02
237  2.3600000000000D+00  2.2935687492590D-04 -8.1329900503292D-03
238  2.3700000000000D+00  1.6377636660572D-04 -5.0010395778519D-03
239  2.3800000000000D+00  1.1769655666808D-04 -2.7168086914423D-03
240  2.3900000000000D+00  9.0356860672966D-05 -1.2507719379669D-03
241  2.4000000000000D+00  7.1747278843832D-05 -4.2867260028605D-04
242  2.4100000000000D+00  5.1192212046724D-05 -5.4418438454814D-05
243  2.4200000000000D+00  2.7028224297423D-05  4.9931388361503D-05
244  2.4300000000000D+00  5.8663959446563D-06  2.0643301904745D-05
245  2.4400000000000D+00 -4.5416937611613D-06 -2.0028036676110D-05
246  2.4500000000000D+00 -5.1824654962905D-06 -2.7720389745548D-05
247  2.4600000000000D+00 -1.2942141180701D-06 -7.8308242476558D-06
248  2.4700000000000D+00  1.0409594438308D-06  3.0169867169410D-06
249  2.4800000000000D+00  1.2347833386559D-06  3.9953665849835D-06
250  2.4900000000000D+00  2.8710745340403D-07  1.0105355055511D-06
251  2.5000000000000D+00 -1.4088202719838D-07  4.7050810576548D-07
252  2.5100000000000D+00 -1.6899493285055D-07  5.6439765469526D-07
253  2.5200000000000D+00 -3.9268610753361D-08  1.3114660563189D-07
254  2.5300000000000D+00  0.0000000000000D+00  0.0000000000000D+00
255  2.5400000000000D+00  0.0000000000000D+00  0.0000000000000D+00
256  2.5500000000000D+00  0.0000000000000D+00  0.0000000000000D+00
257  2.5600000000000D+00  0.0000000000000D+00  0.0000000000000D+00
258  2.5700000000000D+00  0.0000000000000D+00  0.0000000000000D+00
259  2.5800000000000D+00  0.0000000000000D+00  0.0000000000000D+00
260  2.5900000000000D+00  0.0000000000000D+00  0.0000000000000D+00
261  2.6000000000000D+00  0.0000000000000D+00  0.0000000000000D+00
262  2.6100000000000D+00  0.0000000000000D+00  0.0000000000000D+00
263  2.6200000000000D+00  0.0000000000000D+00  0.0000000000000D+00
264  2.6300000000000D+00  0.0000000000000D+00  0.0000000000000D+00
265  2.6400000000000D+00  0.0000000000000D+00  0.0000000000000D+00
266  2.6500000000000D+00  0.0000000000000D+00  0.0000000000000D+00
267  2.6600000000000D+00  0.0000000000000D+00  0.0000000000000D+00
268  2.6700000000000D+00  0.0000000000000D+00  0.0000000000000D+00
269  2.6800000000000D+00  0.0000000000000D+00  0.0000000000000D+00
270  2.6900000000000D+00  0.0000000000000D+00  0.0000000000000D+00
271  2.7000000000000D+00  0.0000000000000D+00  0.0000000000000D+00
272  2.7100000000000D+00  0.0000000000000D+00  0.0000000000000D+00
273  2.7200000000000D+00  0.0000000000000D+00  0.0000000000000D+00
274  2.7300000000000D+00  0.0000000000000D+00  0.0000000000000D+00
275  2.7400000000000D+00  0.0000000000000D+00  0.0000000000000D+00
276  2.7500000000000D+00  0.0000000000000D+00  0.0000000000000D+00
277  2.7600000000000D+00  0.0000000000000D+00  0.0000000000000D+00
278  2.7700000000000D+00  0.0000000000000D+00  0.0000000000000D+00
279  2.7800000000000D+00  0.0000000000000D+00  0.0000000000000D+00
280  2.7900000000000D+00  0.0000000000000D+00  0.0000000000000D+00
281  2.8000000000000D+00  0.0000000000000D+00  0.0000000000000D+00
282  2.8100000000000D+00  0.0000000000000D+00  0.0000000000000D+00
283  2.8200000000000D+00  0.0000000000000D+00  0.0000000000000D+00
284  2.8300000000000D+00  0.0000000000000D+00  0.0000000000000D+00
285  2.8400000000000D+00  0.0000000000000D+00  0.0000000000000D+00
286  2.8500000000000D+00  0.0000000000000D+00  0.0000000000000D+00
287  2.8600000000000D+00  0.0000000000000D+00  0.0000000000000D+00
288  2.8700000000000D+00  0.0000000000000D+00  0.0000000000000D+00
289  2.8800000000000D+00  0.0000000000000D+00  0.0000000000000D+00
290  2.8900000000000D+00  0.0000000000000D+00  0.0000000000000D+00
291  2.9000000000000D+00  0.0000000000000D+00  0.0000000000000D+00
292  2.9100000000000D+00  0.0000000000000D+00  0.0000000000000D+00
293  2.9200000000000D+00  0.0000000000000D+00  0.0000000000000D+00
294  2.9300000000000D+00  0.0000000000000D+00  0.0000000000000D+00
295  2.9400000000000D+00  0.0000000000000D+00  0.0000000000000D+00
296  2.9500000000000D+00  0.0000000000000D+00  0.0000000000000D+00
297  2.9600000000000D+00  0.0000000000000D+00  0.0000000000000D+00
298  2.9700000000000D+00  0.0000000000000D+00  0.0000000000000D+00
299  2.9800000000000D+00  0.0000000000000D+00  0.0000000000000D+00
300  2.9900000000000D+00  0.0000000000000D+00  0.0000000000000D+00
301  3.0000000000000D+00  0.0000000000000D+00  0.0000000000000D+00
302  3.0100000000000D+00  0.0000000000000D+00  0.0000000000000D+00
303  3.0200000000000D+00  0.0000000000000D+00  0.0000000000000D+00
304  3.0300000000000D+00  0.0000000000000D+00  0.0000000000000D+00
305  3.0400000000000D+00  0.0000000000000D+00  0.0000000000000D+00
306  3.0500000000000D+00  0.0000000000000D+00  0.0000000000000D+00
307  3.0600000000000D+00  0.0000000000000D+00  0.0000000000000D+00
308  3.0700000000000D+00  0.0000000000000D+00  0.0000000000000D+00
309  3.0800000000000D+00  0.0000000000000D+00  0.0000000000000D+00
310  3.0900000000000D+00  0.0000000000000D+00  0.0000000000000D+00
311  3.1000000000000D+00  0.0000000000000D+00  0.0000000000000D+00
312  3.1100000000000D+00  0.0000000000000D+00  0.0000000000000D+00
313  3.1200000000000D+00  0.0000000000000D+00  0.0000000000000D+00
314  3.1300000000000D+00  0.0000000000000D+00  0.0000000000000D+00
315  3.1400000000000D+00  0.0000000000000D+00  0.0000000000000D+00
316  3.1500000000000D+00  0.0000000000000D+00  0.0000000000000D+00
317  3.1600000000000D+00  0.0000000000000D+00  0.0000000000000D+00
318  3.1700000000000D+00  0.0000000000000D+00  0.0000000000000D+00
319  3.1800000000000D+00  0.0000000000000D+00  0.0000000000000D+00
320  3.1900000000000D+00  0.0000000000000D+00  0.0000000000000D+00
321  3.2000000000000D+00  0.0000000000000D+00  0.0000000000000D+00
322  3.2100000000000D+00  0.0000000000000D+00  0.0000000000000D+00
323  3.2200000000000D+00  0.0000000000000D+00  0.0000000000000D+00
324  3.2300000000000D+00  0.0000000000000D+00  0.0000000000000D+00
325  3.2400000000000D+00  0.0000000000000D+00  0.0000000000000D+00
326  3.2500000000000D+00  0.0000000000000D+00  0.0000000000000D+00
327  3.2600000000000D+00  0.0000000000000D+00  0.0000000000000D+00
328  3.2700000000000D+00  0.0000000000000D+00  0.0000000000000D+00
329  3.2800000000000D+00  0.0000000000000D+00  0.0000000000000D+00
330  3.2900000000000D+00  0.0000000000000D+00  0.0000000000000D+00
331  3.3000000000000D+00  0.0000000000000D+00  0.0000000000000D+00
332  3.3100000000000D+00  0.0000000000000D+00  0.0000000000000D+00
333  3.3200000000000D+00  0.0000000000000D+00  0.0000000000000D+00
334  3.3300000000000D+00  0.0000000000000D+00  0.0000000000000D+00
335  3.3400000000000D+00  0.0000000000000D+00  0.0000000000000D+00
336  3.3500000000000D+00  0.0000000000000D+00  0.0000000000000D+00
337  3.3600000000000D+00  0.0000000000000D+00  0.0000000000000D+00
338  3.3700000000000D+00  0.0000000000000D+00  0.0000000000000D+00
339  3.3800000000000D+00  0.0000000000000D+00  0.0000000000000D+00
340  3.3900000000000D+00  0.0000000000000D+00  0.0000000000000D+00
341  3.4000000000000D+00  0.0000000000000D+00  0.0000000000000D+00
342  3.4100000000000D+00  0.0000000000000D+00  0.0000000000000D+00
343  3.4200000000000D+00  0.0000000000000D+00  0.0000000000000D+00
344  3.4300000000000D+00  0.0000000000000D+00  0.0000000000000D+00
345  3.4400000000000D+00  0.0000000000000D+00  0.0000000000000D+00
346  3.4500000000000D+00  0.0000000000000D+00  0.0000000000000D+00
347  3.4600000000000D+00  0.0000000000000D+00  0.0000000000000D+00
348  3.4700000000000D+00  0.0000000000000D+00  0.0000000000000D+00
349  3.4800000000000D+00  0.0000000000000D+00  0.0000000000000D+00
350  3.4900000000000D+00  0.0000000000000D+00  0.0000000000000D+00
351  3.5000000000000D+00  0.0000000000000D+00  0.0000000000000D+00
352  3.5100000000000D+00  0.0000000000000D+00  0.0000000000000D+00
353  3.5200000000000D+00  0.0000000000000D+00  0.0000000000000D+00
354  3.5300000000000D+00  0.0000000000000D+00  0.0000000000000D+00
355  3.5400000000000D+00  0.0000000000000D+00  0.0000000000000D+00
356  3.5500000000000D+00  0.0000000000000D+00  0.0000000000000D+00
357  3.5600000000000D+00  0.0000000000000D+00  0.0000000000000D+00
358  3.5700000000000D+00  0.0000000000000D+00  0.0000000000000D+00
359  3.5800000000000D+00  0.0000000000000D+00  0.0000000000000D+00
360  3.5900000000000D+00  0.0000000000000D+00  0.0000000000000D+00
361  3.6000000000000D+00  0.0000000000000D+00  0.0000000000000D+00
362  3.6100000000000D+00  0.0000000000000D+00  0.0000000000000D+00
363  3.6200000000000D+00  0.0000000000000D+00  0.0000000000000D+00
364  3.6300000000000D+00  0.0000000000000D+00  0.0000000000000D+00
365  3.6400000000000D+00  0.0000000000000D+00  0.0000000000000D+00
366  3.6500000000000D+00  0.0000000000000D+00  0.0000000000000D+00
367  3.6600000000000D+00  0.0000000000000D+00  0.0000000000000D+00
368  3.6700000000000D+00  0.0000000000000D+00  0.0000000000000D+00
369  3.6800000000000D+00  0.0000000000000D+00  0.0000000000000D+00
370  3.6900000000000D+00  0.0000000000000D+00  0.0000000000000D+00
371  3.7000000000000D+00  0.0000000000000D+00  0.0000000000000D+00
372  3.7100000000000D+00  0.0000000000000D+00  0.0000000000000D+00
373  3.7200000000000D+00  0.0000000000000D+00  0.0000000000000D+00
374  3.7300000000000D+00  0.0000000000000D+00  0.0000000000000D+00
375  3.7400000000000D+00  0.0000000000000D+00  0.0000000000000D+00
376  3.7500000000000D+00  0.0000000000000D+00  0.0000000000000D+00
377  3.7600000000000D+00  0.0000000000000D+00  0.0000000000000D+00
378  3.7700000000000D+00  0.0000000000000D+00  0.0000000000000D+00
379  3.7800000000000D+00  0.0000000000000D+00  0.0000000000000D+00
380  3.7900000000000D+00  0.0000000000000D+00  0.0000000000000D+00
381  3.8000000000000D+00  0.0000000000000D+00  0.0000000000000D+00
382  3.8100000000000D+00  0.0000000000000D+00  0.0000000000000D+00
383  3.8200000000000D+00  0.0000000000000D+00  0.0000000000000D+00
384  3.8300000000000D+00  0.0000000000000D+00  0.0000000000000D+00
385  3.8400000000000D+00  0.0000000000000D+00  0.0000000000000D+00
386  3.8500000000000D+00  0.0000000000000D+00  0.0000000000000D+00
387  3.8600000000000D+00  0.0000000000000D+00  0.0000000000000D+00
388  3.8700000000000D+00  0.0000000000000D+00  0.0000000000000D+00
389  3.8800000000000D+00  0.0000000000000D+00  0.0000000000000D+00
390  3.8900000000000D+00  0.0000000000000D+00  0.0000000000000D+00
391  3.9000000000000D+00  0.0000000000000D+00  0.0000000000000D+00
392  3.9100000000000D+00  0.0000000000000D+00  0.0000000000000D+00
393  3.9200000000000D+00  0.0000000000000D+00  0.0000000000000D+00
394  3.9300000000000D+00  0.0000000000000D+00  0.0000000000000D+00
395  3.9400000000000D+00  0.0000000000000D+00  0.0000000000000D+00
396  3.9500000000000D+00  0.0000000000000D+00  0.0000000000000D+00
397  3.9600000000000D+00  0.0000000000000D+00  0.0000000000000D+00
398  3.9700000000000D+00  0.0000000000000D+00  0.0000000000000D+00
399  3.9800000000000D+00  0.0000000000000D+00  0.0000000000000D+00
400  3.9900000000000D+00  0.0000000000000D+00  0.0000000000000D+00
401  4.0000000000000D+00  0.0000000000000D+00  0.0000000000000D+00
402  4.0100000000000D+00  0.0000000000000D+00  0.0000000000000D+00
403  4.0200000000000D+00  0.0000000000000D+00  0.0000000000000D+00
404  4.0300000000000D+00  0.0000000000000D+00  0.0000000000000D+00
405  4.0400000000000D+00  0.0000000000000D+00  0.0000000000000D+00
406  4.0500000000000D+00  0.0000000000000D+00  0.0000000000000D+00
407  4.0600000000000D+00  0.0000000000000D+00  0.0000000000000D+00
408  4.0700000000000D+00  0.0000000000000D+00  0.0000000000000D+00
409  4.0800000000000D+00  0.0000000000000D+00  0.0000000000000D+00
410  4.0900000000000D+00  0.0000000000000D+00  0.0000000000000D+00
411  4.1000000000000D+00  0.0000000000000D+00  0.0000000000000D+00
412  4.1100000000000D+00  0.0000000000000D+00  0.0000000000000D+00
413  4.1200000000000D+00  0.0000000000000D+00  0.0000000000000D+00
414  4.1300000000000D+00  0.0000000000000D+00  0.0000000000000D+00
415  4.1400000000000D+00  0.0000000000000D+00  0.0000000000000D+00
416  4.1500000000000D+00  0.0000000000000D+00  0.0000000000000D+00
417  4.1600000000000D+00  0.0000000000000D+00  0.0000000000000D+00
418  4.1700000000000D+00  0.0000000000000D+00  0.0000000000000D+00
419  4.1800000000000D+00  0.0000000000000D+00  0.0000000000000D+00
420  4.1900000000000D+00  0.0000000000000D+00  0.0000000000000D+00
421  4.2000000000000D+00  0.0000000000000D+00  0.0000000000000D+00
422  4.2100000000000D+00  0.0000000000000D+00  0.0000000000000D+00
423  4.2200000000000D+00  0.0000000000000D+00  0.0000000000000D+00
424  4.2300000000000D+00  0.0000000000000D+00  0.0000000000000D+00
425  4.2400000000000D+00  0.0000000000000D+00  0.0000000000000D+00
426  4.2500000000000D+00  0.0000000000000D+00  0.0000000000000D+00
427  4.2600000000000D+00  0.0000000000000D+00  0.0000000000000D+00
428  4.2700000000000D+00  0.0000000000000D+00  0.0000000000000D+00
429  4.2800000000000D+00  0.0000000000000D+00  0.0000000000000D+00
430  4.2900000000000D+00  0.0000000000000D+00  0.0000000000000D+00
431  4.3000000000000D+00  0.0000000000000D+00  0.0000000000000D+00
432  4.3100000000000D+00  0.0000000000000D+00  0.0000000000000D+00
433  4.3200000000000D+00  0.0000000000000D+00  0.0000000000000D+00
434  4.3300000000000D+00  0.0000000000000D+00  0.0000000000000D+00
435  4.3400000000000D+00  0.0000000000000D+00  0.0000000000000D+00
436  4.3500000000000D+00  0.0000000000000D+00  0.0000000000000D+00
437  4.3600000000000D+00  0.0000000000000D+00  0.0000000000000D+00
438  4.3700000000000D+00  0.0000000000000D+00  0.0000000000000D+00
439  4.3800000000000D+00  0.0000000000000D+00  0.0000000000000D+00
440  4.3900000000000D+00  0.0000000000000D+00  0.0000000000000D+00
441  4.4000000000000D+00  0.0000000000000D+00  0.0000000000000D+00
442  4.4100000000000D+00  0.0000000000000D+00  0.0000000000000D+00
443  4.4200000000000D+00  0.0000000000000D+00  0.0000000000000D+00