Hg    ONCVPSP  r_core=  1.56  1.60  1.46
80.0000     20.0000      140907    zatom,zion,pspd
8    11     2     4   601     0    pspcod,pspxc,lmax,lloc,mmax,r2well
6.00000000  0.35000000  0.00000000    rchrg fchrg qchrg
2     2     2     0     0    nproj
0                 extension_switch
0                         1.4861433122584D+01  2.0682854376496D+00
1  0.0000000000000D+00 -0.0000000000000D+00 -0.0000000000000D+00
2  1.0000000000000D-02 -6.5194240441934D-02 -1.1388753477663D-02
3  2.0000000000000D-02 -1.3035895117094D-01 -2.2614860764317D-02
4  3.0000000000000D-02 -1.9546259363927D-01 -3.3519675040376D-02
5  4.0000000000000D-02 -2.6046965343500D-01 -4.3952472617464D-02
6  5.0000000000000D-02 -3.2533875611572D-01 -5.3774226820734D-02
7  6.0000000000000D-02 -3.9002090547849D-01 -6.2861160399074D-02
8  7.0000000000000D-02 -4.5445788164944D-01 -7.1108008808510D-02
9  8.0000000000000D-02 -5.1858083350424D-01 -7.8430931883555D-02
10  9.0000000000000D-02 -5.8230909646412D-01 -8.4770017643404D-02
11  1.0000000000000D-01 -6.4554926262173D-01 -9.0091329350779D-02
12  1.1000000000000D-01 -7.0819452567549D-01 -9.4388454974320D-02
13  1.2000000000000D-01 -7.7012431813964D-01 -9.7683527238381D-02
14  1.3000000000000D-01 -8.3120425305883D-01 -1.0002769183242D-01
15  1.4000000000000D-01 -8.9128637690185D-01 -1.0150101143966D-01
16  1.5000000000000D-01 -9.5020973471505D-01 -1.0221180307155D-01
17  1.6000000000000D-01 -1.0078012429811D+00 -1.0229541671909D-01
18  1.7000000000000D-01 -1.0638768595143D+00 -1.0191247371223D-01
19  1.8000000000000D-01 -1.1182430352062D+00 -1.0124659209462D-01
20  1.9000000000000D-01 -1.1706984266987D+00 -1.0050163595425D-01
21  2.0000000000000D-01 -1.2210358432388D+00 -9.9898536165018D-02
22  2.1000000000000D-01 -1.2690443984396D+00 -9.9671735028779D-02
23  2.2000000000000D-01 -1.3145118319729D+00 -1.0006531694290D-01
24  2.3000000000000D-01 -1.3572269655599D+00 -1.0132888897284D-01
25  2.4000000000000D-01 -1.3969822504079D+00 -1.0371328732201D-01
26  2.5000000000000D-01 -1.4335763606155D+00 -1.0746619059020D-01
27  2.6000000000000D-01 -1.4668168083041D+00 -1.1282768523431D-01
28  2.7000000000000D-01 -1.4965225023319D+00 -1.2002591851125D-01
29  2.8000000000000D-01 -1.5225262370711D+00 -1.2927286660316D-01
30  2.9000000000000D-01 -1.5446770579103D+00 -1.4076031150190D-01
31  3.0000000000000D-01 -1.5628424609342D+00 -1.5465610219728D-01
32  3.1000000000000D-01 -1.5769103902314D+00 -1.7110076528014D-01
33  3.2000000000000D-01 -1.5867909962544D+00 -1.9020452968574D-01
34  3.3000000000000D-01 -1.5924181042461D+00 -2.1204485404423D-01
35  3.4000000000000D-01 -1.5937504598241D+00 -2.3666434573447D-01
36  3.5000000000000D-01 -1.5907725330517D+00 -2.6406944136713D-01
37  3.6000000000000D-01 -1.5834951274836D+00 -2.9422943493854D-01
38  3.7000000000000D-01 -1.5719555053926D+00 -3.2707633873979D-01
39  3.8000000000000D-01 -1.5562172847402D+00 -3.6250514880074D-01
40  3.9000000000000D-01 -1.5363699011553D+00 -4.0037485918312D-01
41  4.0000000000000D-01 -1.5125277528979D+00 -4.4051002572561D-01
42  4.1000000000000D-01 -1.4848290199703D+00 -4.8270289204314D-01
43  4.2000000000000D-01 -1.4534341638307D+00 -5.2671606328882D-01
44  4.3000000000000D-01 -1.4185241366719D+00 -5.7228567531521D-01
45  4.4000000000000D-01 -1.3802983292029D+00 -6.1912500630417D-01
46  4.5000000000000D-01 -1.3389722899279D+00 -6.6692847065664D-01
47  4.6000000000000D-01 -1.2947752528912D+00 -7.1537592783251D-01
48  4.7000000000000D-01 -1.2479475150051D+00 -7.6413723148861D-01
49  4.8000000000000D-01 -1.1987377085091D+00 -8.1287693653197D-01
50  4.9000000000000D-01 -1.1474000869283D+00 -8.6125895497496D-01
51  5.0000000000000D-01 -1.0941915380425D+00 -9.0895165942174D-01
52  5.1000000000000D-01 -1.0393689284042D+00 -9.5563236924847D-01
53  5.2000000000000D-01 -9.8318653778964D-01 -1.0009916528158D+00
54  5.3000000000000D-01 -9.2589317163643D-01 -1.0447381435253D+00
55  5.4000000000000D-01 -8.6772994187365D-01 -1.0866021547813D+00
56  5.5000000000000D-01 -8.0892822317663D-01 -1.1263389619865D+00
57  5.6000000000000D-01 -7.4970711162534D-01 -1.1637328596713D+00
58  5.7000000000000D-01 -6.9027260805274D-01 -1.1985982643578D+00
59  5.8000000000000D-01 -6.3081513567212D-01 -1.2307835290653D+00
60  5.9000000000000D-01 -5.7150956999566D-01 -1.2601705281567D+00
61  6.0000000000000D-01 -5.1251351118288D-01 -1.2866770462062D+00
62  6.1000000000000D-01 -4.5396751142078D-01 -1.3102559074413D+00
63  6.2000000000000D-01 -3.9599490289109D-01 -1.3308946792535D+00
64  6.3000000000000D-01 -3.3870163655700D-01 -1.3486152135228D+00
65  6.4000000000000D-01 -2.8217757287325D-01 -1.3634709014758D+00
66  6.5000000000000D-01 -2.2649694274941D-01 -1.3755450554132D+00
67  6.6000000000000D-01 -1.7171956634440D-01 -1.3849480107778D+00
68  6.7000000000000D-01 -1.1789259731704D-01 -1.3918134606707D+00
69  6.8000000000000D-01 -6.5052133861859D-02 -1.3962949368469D+00
70  6.9000000000000D-01 -1.3224954273853D-02 -1.3985616853591D+00
71  7.0000000000000D-01  3.7569184600367D-02 -1.3987941519759D+00
72  7.1000000000000D-01  8.7315460305647D-02 -1.3971794874937D+00
73  7.2000000000000D-01  1.3600177158145D-01 -1.3939069043669D+00
74  7.3000000000000D-01  1.8361656885936D-01 -1.3891631813459D+00
75  7.4000000000000D-01  2.3014636525012D-01 -1.3831272617176D+00
76  7.5000000000000D-01  2.7557385300275D-01 -1.3759665432183D+00
77  7.6000000000000D-01  3.1987584664584D-01 -1.3678324734207D+00
78  7.7000000000000D-01  3.6302146679513D-01 -1.3588566976557D+00
79  7.8000000000000D-01  4.0497054438069D-01 -1.3491476289914D+00
80  7.9000000000000D-01  4.4567228488623D-01 -1.3387875142628D+00
81  8.0000000000000D-01  4.8506422740483D-01 -1.3278300613562D+00
82  8.1000000000000D-01  5.2307152782375D-01 -1.3162986828782D+00
83  8.2000000000000D-01  5.5960658937290D-01 -1.3041854001921D+00
84  8.3000000000000D-01  5.9456905723493D-01 -1.2914504398310D+00
85  8.4000000000000D-01  6.2784618704220D-01 -1.2780225417023D+00
86  8.5000000000000D-01  6.5931358999868D-01 -1.2637999855154D+00
87  8.6000000000000D-01  6.8883635017359D-01 -1.2486523286927D+00
88  8.7000000000000D-01  7.1627050231754D-01 -1.2324228358343D+00
89  8.8000000000000D-01  7.4146485144333D-01 -1.2149315667757D+00
90  8.9000000000000D-01  7.6426310847291D-01 -1.1959790775416D+00
91  9.0000000000000D-01  7.8450630956482D-01 -1.1753506762096D+00
92  9.1000000000000D-01  8.0203548039083D-01 -1.1528211640195D+00
93  9.2000000000000D-01  8.1669450073683D-01 -1.1281599811773D+00
94  9.3000000000000D-01  8.2833311949812D-01 -1.1011366669691D+00
95  9.4000000000000D-01  8.3681006559939D-01 -1.0715265353163D+00
96  9.5000000000000D-01  8.4199619681463D-01 -1.0391164601821D+00
97  9.6000000000000D-01  8.4377762615413D-01 -1.0037106607317D+00
98  9.7000000000000D-01  8.4205876471953D-01 -9.6513637441058D-01
99  9.8000000000000D-01  8.3676421469265D-01 -9.2324764451981D-01
100  9.9000000000000D-01  8.2784433576253D-01 -8.7793511962457D-01
101  1.0000000000000D+00  8.1527529338392D-01 -8.2912693426588D-01
102  1.0100000000000D+00  7.9906185157299D-01 -7.7679391581423D-01
103  1.0200000000000D+00  7.7923917569162D-01 -7.2095318358521D-01
104  1.0300000000000D+00  7.5587420709680D-01 -6.6167100430631D-01
105  1.0400000000000D+00  7.2906514373143D-01 -5.9906229643698D-01
106  1.0500000000000D+00  6.9894640074893D-01 -5.3329978461637D-01
107  1.0600000000000D+00  6.6568510987679D-01 -4.6460838912895D-01
108  1.0700000000000D+00  6.2948082985543D-01 -3.9326510157410D-01
109  1.0800000000000D+00  5.9056485018680D-01 -3.1959817161994D-01
110  1.0900000000000D+00  5.4919747921962D-01 -2.4398251604659D-01
111  1.1000000000000D+00  5.0567100919540D-01 -1.6684593870040D-01
112  1.1100000000000D+00  4.6030168456968D-01 -8.8654931175311D-02
113  1.1200000000000D+00  4.1342834562040D-01 -9.9127196063850D-03
114  1.1300000000000D+00  3.6540963165746D-01  6.8845657713826D-02
115  1.1400000000000D+00  3.1662100723719D-01  1.4705735728567D-01
116  1.1500000000000D+00  2.6744835129344D-01  2.2414324776103D-01
117  1.1600000000000D+00  2.1828462735020D-01  2.9951359676671D-01
118  1.1700000000000D+00  1.6952936487580D-01  3.7256926926742D-01
119  1.1800000000000D+00  1.2157476223960D-01  4.4272393350755D-01
120  1.1900000000000D+00  7.4807248657213D-02  5.0940293684112D-01
121  1.2000000000000D+00  2.9605719074834D-02  5.7204617225896D-01
122  1.2100000000000D+00 -1.3669443272751D-02  6.3012619049479D-01
123  1.2200000000000D+00 -5.4683962693681D-02  6.8316135240304D-01
124  1.2300000000000D+00 -9.3122651360866D-02  7.3070454819133D-01
125  1.2400000000000D+00 -1.2869632912223D-01  7.7235466877946D-01
126  1.2500000000000D+00 -1.6116307748676D-01  8.0779223929653D-01
127  1.2600000000000D+00 -1.9030719310991D-01  8.3674464246331D-01
128  1.2700000000000D+00 -2.1594582376017D-01  8.5899714507055D-01
129  1.2800000000000D+00 -2.3795835181046D-01  8.7444197589745D-01
130  1.2900000000000D+00 -2.5625206892949D-01  8.8302109784943D-01
131  1.3000000000000D+00 -2.7077595178972D-01  8.8474920635930D-01
132  1.3100000000000D+00 -2.8154383981948D-01  8.7975202187511D-01
133  1.3200000000000D+00 -2.8859471913378D-01  8.6820015159214D-01
134  1.3300000000000D+00 -2.9201998255580D-01  8.5035429861092D-01
135  1.3400000000000D+00 -2.9196318188581D-01  8.2656391389959D-01
136  1.3500000000000D+00 -2.8858950436732D-01  7.9721727795868D-01
137  1.3600000000000D+00 -2.8212316196090D-01  7.6280178356750D-01
138  1.3700000000000D+00 -2.7281541844502D-01  7.2385075670744D-01
139  1.3800000000000D+00 -2.6094415808190D-01  6.8094401968200D-01
140  1.3900000000000D+00 -2.4682943797798D-01  6.3472870317488D-01
141  1.4000000000000D+00 -2.3080235277649D-01  5.8587217653837D-01
142  1.4100000000000D+00 -2.1322146979960D-01  5.3508485621971D-01
143  1.4200000000000D+00 -1.9445364524545D-01  4.8308767464954D-01
144  1.4300000000000D+00 -1.7488175202554D-01  4.3062965350330D-01
145  1.4400000000000D+00 -1.5488250370035D-01  3.7843940503173D-01
146  1.4500000000000D+00 -1.3484212775550D-01  3.2726368433300D-01
147  1.4600000000000D+00 -1.1513203984716D-01  2.7781488420697D-01
148  1.4700000000000D+00 -9.6108253003019D-02  2.3077482684684D-01
149  1.4800000000000D+00 -7.8120386336298D-02  1.8681046981590D-01
150  1.4900000000000D+00 -6.1455298082111D-02  1.4646808270434D-01
151  1.5000000000000D+00 -4.6421184484248D-02  1.1033338235085D-01
152  1.5100000000000D+00 -3.3219727599013D-02  7.8789852979174D-02
153  1.5200000000000D+00 -2.2077984611825D-02  5.2268466356553D-02
154  1.5300000000000D+00 -1.3126392937331D-02  3.1018077105053D-02
155  1.5400000000000D+00 -6.4855356121021D-03  1.5268915888789D-02
156  1.5500000000000D+00 -2.3896513519421D-03  5.5529441147627D-03
157  1.5600000000000D+00 -4.7811391834579D-04  1.0157305684343D-03
158  1.5700000000000D+00  1.4383725504948D-04 -4.1532271085063D-04
159  1.5800000000000D+00  5.1475913131414D-05 -1.3207236308479D-04
160  1.5900000000000D+00  1.2890398151055D-05 -2.2904937805491D-05
161  1.6000000000000D+00  1.4106585716275D-06 -2.5065980483517D-06
162  1.6100000000000D+00  0.0000000000000D+00  0.0000000000000D+00
163  1.6200000000000D+00  0.0000000000000D+00  0.0000000000000D+00
164  1.6300000000000D+00  0.0000000000000D+00  0.0000000000000D+00
165  1.6400000000000D+00  0.0000000000000D+00  0.0000000000000D+00
166  1.6500000000000D+00  0.0000000000000D+00  0.0000000000000D+00
167  1.6600000000000D+00  0.0000000000000D+00  0.0000000000000D+00
168  1.6700000000000D+00  0.0000000000000D+00  0.0000000000000D+00
169  1.6800000000000D+00  0.0000000000000D+00  0.0000000000000D+00
170  1.6900000000000D+00  0.0000000000000D+00  0.0000000000000D+00
171  1.7000000000000D+00  0.0000000000000D+00  0.0000000000000D+00
172  1.7100000000000D+00  0.0000000000000D+00  0.0000000000000D+00
173  1.7200000000000D+00  0.0000000000000D+00  0.0000000000000D+00
174  1.7300000000000D+00  0.0000000000000D+00  0.0000000000000D+00
175  1.7400000000000D+00  0.0000000000000D+00  0.0000000000000D+00
176  1.7500000000000D+00  0.0000000000000D+00  0.0000000000000D+00
177  1.7600000000000D+00  0.0000000000000D+00  0.0000000000000D+00
178  1.7700000000000D+00  0.0000000000000D+00  0.0000000000000D+00
179  1.7800000000000D+00  0.0000000000000D+00  0.0000000000000D+00
180  1.7900000000000D+00  0.0000000000000D+00  0.0000000000000D+00
181  1.8000000000000D+00  0.0000000000000D+00  0.0000000000000D+00
182  1.8100000000000D+00  0.0000000000000D+00  0.0000000000000D+00
183  1.8200000000000D+00  0.0000000000000D+00  0.0000000000000D+00
184  1.8300000000000D+00  0.0000000000000D+00  0.0000000000000D+00
185  1.8400000000000D+00  0.0000000000000D+00  0.0000000000000D+00
186  1.8500000000000D+00  0.0000000000000D+00  0.0000000000000D+00
187  1.8600000000000D+00  0.0000000000000D+00  0.0000000000000D+00
188  1.8700000000000D+00  0.0000000000000D+00  0.0000000000000D+00
189  1.8800000000000D+00  0.0000000000000D+00  0.0000000000000D+00
190  1.8900000000000D+00  0.0000000000000D+00  0.0000000000000D+00
191  1.9000000000000D+00  0.0000000000000D+00  0.0000000000000D+00
192  1.9100000000000D+00  0.0000000000000D+00  0.0000000000000D+00
193  1.9200000000000D+00  0.0000000000000D+00  0.0000000000000D+00
194  1.9300000000000D+00  0.0000000000000D+00  0.0000000000000D+00
195  1.9400000000000D+00  0.0000000000000D+00  0.0000000000000D+00
196  1.9500000000000D+00  0.0000000000000D+00  0.0000000000000D+00
197  1.9600000000000D+00  0.0000000000000D+00  0.0000000000000D+00
198  1.9700000000000D+00  0.0000000000000D+00  0.0000000000000D+00
199  1.9800000000000D+00  0.0000000000000D+00  0.0000000000000D+00
200  1.9900000000000D+00  0.0000000000000D+00  0.0000000000000D+00
201  2.0000000000000D+00  0.0000000000000D+00  0.0000000000000D+00
202  2.0100000000000D+00  0.0000000000000D+00  0.0000000000000D+00
203  2.0200000000000D+00  0.0000000000000D+00  0.0000000000000D+00
204  2.0300000000000D+00  0.0000000000000D+00  0.0000000000000D+00
205  2.0400000000000D+00  0.0000000000000D+00  0.0000000000000D+00
206  2.0500000000000D+00  0.0000000000000D+00  0.0000000000000D+00
207  2.0600000000000D+00  0.0000000000000D+00  0.0000000000000D+00
208  2.0700000000000D+00  0.0000000000000D+00  0.0000000000000D+00
209  2.0800000000000D+00  0.0000000000000D+00  0.0000000000000D+00
210  2.0900000000000D+00  0.0000000000000D+00  0.0000000000000D+00
211  2.1000000000000D+00  0.0000000000000D+00  0.0000000000000D+00
212  2.1100000000000D+00  0.0000000000000D+00  0.0000000000000D+00
213  2.1200000000000D+00  0.0000000000000D+00  0.0000000000000D+00
214  2.1300000000000D+00  0.0000000000000D+00  0.0000000000000D+00
215  2.1400000000000D+00  0.0000000000000D+00  0.0000000000000D+00
216  2.1500000000000D+00  0.0000000000000D+00  0.0000000000000D+00
217  2.1600000000000D+00  0.0000000000000D+00  0.0000000000000D+00
218  2.1700000000000D+00  0.0000000000000D+00  0.0000000000000D+00
219  2.1800000000000D+00  0.0000000000000D+00  0.0000000000000D+00
220  2.1900000000000D+00  0.0000000000000D+00  0.0000000000000D+00
221  2.2000000000000D+00  0.0000000000000D+00  0.0000000000000D+00
222  2.2100000000000D+00  0.0000000000000D+00  0.0000000000000D+00
223  2.2200000000000D+00  0.0000000000000D+00  0.0000000000000D+00
224  2.2300000000000D+00  0.0000000000000D+00  0.0000000000000D+00
225  2.2400000000000D+00  0.0000000000000D+00  0.0000000000000D+00
226  2.2500000000000D+00  0.0000000000000D+00  0.0000000000000D+00
227  2.2600000000000D+00  0.0000000000000D+00  0.0000000000000D+00
228  2.2700000000000D+00  0.0000000000000D+00  0.0000000000000D+00
229  2.2800000000000D+00  0.0000000000000D+00  0.0000000000000D+00
230  2.2900000000000D+00  0.0000000000000D+00  0.0000000000000D+00
231  2.3000000000000D+00  0.0000000000000D+00  0.0000000000000D+00
232  2.3100000000000D+00  0.0000000000000D+00  0.0000000000000D+00
233  2.3200000000000D+00  0.0000000000000D+00  0.0000000000000D+00
234  2.3300000000000D+00  0.0000000000000D+00  0.0000000000000D+00
235  2.3400000000000D+00  0.0000000000000D+00  0.0000000000000D+00
236  2.3500000000000D+00  0.0000000000000D+00  0.0000000000000D+00
237  2.3600000000000D+00  0.0000000000000D+00  0.0000000000000D+00
238  2.3700000000000D+00  0.0000000000000D+00  0.0000000000000D+00
239  2.3800000000000D+00  0.0000000000000D+00  0.0000000000000D+00
240  2.3900000000000D+00  0.0000000000000D+00  0.0000000000000D+00
241  2.4000000000000D+00  0.0000000000000D+00  0.0000000000000D+00
242  2.4100000000000D+00  0.0000000000000D+00  0.0000000000000D+00
243  2.4200000000000D+00  0.0000000000000D+00  0.0000000000000D+00
244  2.4300000000000D+00  0.0000000000000D+00  0.0000000000000D+00
245  2.4400000000000D+00  0.0000000000000D+00  0.0000000000000D+00
246  2.4500000000000D+00  0.0000000000000D+00  0.0000000000000D+00
247  2.4600000000000D+00  0.0000000000000D+00  0.0000000000000D+00
248  2.4700000000000D+00  0.0000000000000D+00  0.0000000000000D+00
249  2.4800000000000D+00  0.0000000000000D+00  0.0000000000000D+00
250  2.4900000000000D+00  0.0000000000000D+00  0.0000000000000D+00
251  2.5000000000000D+00  0.0000000000000D+00  0.0000000000000D+00
252  2.5100000000000D+00  0.0000000000000D+00  0.0000000000000D+00
253  2.5200000000000D+00  0.0000000000000D+00  0.0000000000000D+00
254  2.5300000000000D+00  0.0000000000000D+00  0.0000000000000D+00
255  2.5400000000000D+00  0.0000000000000D+00  0.0000000000000D+00
256  2.5500000000000D+00  0.0000000000000D+00  0.0000000000000D+00
257  2.5600000000000D+00  0.0000000000000D+00  0.0000000000000D+00
258  2.5700000000000D+00  0.0000000000000D+00  0.0000000000000D+00
259  2.5800000000000D+00  0.0000000000000D+00  0.0000000000000D+00
260  2.5900000000000D+00  0.0000000000000D+00  0.0000000000000D+00
261  2.6000000000000D+00  0.0000000000000D+00  0.0000000000000D+00
262  2.6100000000000D+00  0.0000000000000D+00  0.0000000000000D+00
263  2.6200000000000D+00  0.0000000000000D+00  0.0000000000000D+00
264  2.6300000000000D+00  0.0000000000000D+00  0.0000000000000D+00
265  2.6400000000000D+00  0.0000000000000D+00  0.0000000000000D+00
266  2.6500000000000D+00  0.0000000000000D+00  0.0000000000000D+00
267  2.6600000000000D+00  0.0000000000000D+00  0.0000000000000D+00
268  2.6700000000000D+00  0.0000000000000D+00  0.0000000000000D+00
269  2.6800000000000D+00  0.0000000000000D+00  0.0000000000000D+00
270  2.6900000000000D+00  0.0000000000000D+00  0.0000000000000D+00
271  2.7000000000000D+00  0.0000000000000D+00  0.0000000000000D+00
272  2.7100000000000D+00  0.0000000000000D+00  0.0000000000000D+00
273  2.7200000000000D+00  0.0000000000000D+00  0.0000000000000D+00
274  2.7300000000000D+00  0.0000000000000D+00  0.0000000000000D+00
275  2.7400000000000D+00  0.0000000000000D+00  0.0000000000000D+00
276  2.7500000000000D+00  0.0000000000000D+00  0.0000000000000D+00
277  2.7600000000000D+00  0.0000000000000D+00  0.0000000000000D+00
278  2.7700000000000D+00  0.0000000000000D+00  0.0000000000000D+00
279  2.7800000000000D+00  0.0000000000000D+00  0.0000000000000D+00
280  2.7900000000000D+00  0.0000000000000D+00  0.0000000000000D+00
281  2.8000000000000D+00  0.0000000000000D+00  0.0000000000000D+00
282  2.8100000000000D+00  0.0000000000000D+00  0.0000000000000D+00
283  2.8200000000000D+00  0.0000000000000D+00  0.0000000000000D+00
284  2.8300000000000D+00  0.0000000000000D+00  0.0000000000000D+00
285  2.8400000000000D+00  0.0000000000000D+00  0.0000000000000D+00
286  2.8500000000000D+00  0.0000000000000D+00  0.0000000000000D+00
287  2.8600000000000D+00  0.0000000000000D+00  0.0000000000000D+00
288  2.8700000000000D+00  0.0000000000000D+00  0.0000000000000D+00
289  2.8800000000000D+00  0.0000000000000D+00  0.0000000000000D+00
290  2.8900000000000D+00  0.0000000000000D+00  0.0000000000000D+00
291  2.9000000000000D+00  0.0000000000000D+00  0.0000000000000D+00
292  2.9100000000000D+00  0.0000000000000D+00  0.0000000000000D+00
293  2.9200000000000D+00  0.0000000000000D+00  0.0000000000000D+00
294  2.9300000000000D+00  0.0000000000000D+00  0.0000000000000D+00
295  2.9400000000000D+00  0.0000000000000D+00  0.0000000000000D+00
296  2.9500000000000D+00  0.0000000000000D+00  0.0000000000000D+00
297  2.9600000000000D+00  0.0000000000000D+00  0.0000000000000D+00
298  2.9700000000000D+00  0.0000000000000D+00  0.0000000000000D+00
299  2.9800000000000D+00  0.0000000000000D+00  0.0000000000000D+00
300  2.9900000000000D+00  0.0000000000000D+00  0.0000000000000D+00
301  3.0000000000000D+00  0.0000000000000D+00  0.0000000000000D+00
302  3.0100000000000D+00  0.0000000000000D+00  0.0000000000000D+00
303  3.0200000000000D+00  0.0000000000000D+00  0.0000000000000D+00
304  3.0300000000000D+00  0.0000000000000D+00  0.0000000000000D+00
305  3.0400000000000D+00  0.0000000000000D+00  0.0000000000000D+00
306  3.0500000000000D+00  0.0000000000000D+00  0.0000000000000D+00
307  3.0600000000000D+00  0.0000000000000D+00  0.0000000000000D+00
308  3.0700000000000D+00  0.0000000000000D+00  0.0000000000000D+00
309  3.0800000000000D+00  0.0000000000000D+00  0.0000000000000D+00
310  3.0900000000000D+00  0.0000000000000D+00  0.0000000000000D+00
311  3.1000000000000D+00  0.0000000000000D+00  0.0000000000000D+00
312  3.1100000000000D+00  0.0000000000000D+00  0.0000000000000D+00
313  3.1200000000000D+00  0.0000000000000D+00  0.0000000000000D+00
314  3.1300000000000D+00  0.0000000000000D+00  0.0000000000000D+00
315  3.1400000000000D+00  0.0000000000000D+00  0.0000000000000D+00
316  3.1500000000000D+00  0.0000000000000D+00  0.0000000000000D+00
317  3.1600000000000D+00  0.0000000000000D+00  0.0000000000000D+00
318  3.1700000000000D+00  0.0000000000000D+00  0.0000000000000D+00
319  3.1800000000000D+00  0.0000000000000D+00  0.0000000000000D+00
320  3.1900000000000D+00  0.0000000000000D+00  0.0000000000000D+00
321  3.2000000000000D+00  0.0000000000000D+00  0.0000000000000D+00
322  3.2100000000000D+00  0.0000000000000D+00  0.0000000000000D+00
323  3.2200000000000D+00  0.0000000000000D+00  0.0000000000000D+00
324  3.2300000000000D+00  0.0000000000000D+00  0.0000000000000D+00
325  3.2400000000000D+00  0.0000000000000D+00  0.0000000000000D+00
326  3.2500000000000D+00  0.0000000000000D+00  0.0000000000000D+00
327  3.2600000000000D+00  0.0000000000000D+00  0.0000000000000D+00
328  3.2700000000000D+00  0.0000000000000D+00  0.0000000000000D+00
329  3.2800000000000D+00  0.0000000000000D+00  0.0000000000000D+00
330  3.2900000000000D+00  0.0000000000000D+00  0.0000000000000D+00
331  3.3000000000000D+00  0.0000000000000D+00  0.0000000000000D+00
332  3.3100000000000D+00  0.0000000000000D+00  0.0000000000000D+00
333  3.3200000000000D+00  0.0000000000000D+00  0.0000000000000D+00
334  3.3300000000000D+00  0.0000000000000D+00  0.0000000000000D+00
335  3.3400000000000D+00  0.0000000000000D+00  0.0000000000000D+00
336  3.3500000000000D+00  0.0000000000000D+00  0.0000000000000D+00
337  3.3600000000000D+00  0.0000000000000D+00  0.0000000000000D+00
338  3.3700000000000D+00  0.0000000000000D+00  0.0000000000000D+00
339  3.3800000000000D+00  0.0000000000000D+00  0.0000000000000D+00
340  3.3900000000000D+00  0.0000000000000D+00  0.0000000000000D+00
341  3.4000000000000D+00  0.0000000000000D+00  0.0000000000000D+00
342  3.4100000000000D+00  0.0000000000000D+00  0.0000000000000D+00
343  3.4200000000000D+00  0.0000000000000D+00  0.0000000000000D+00
344  3.4300000000000D+00  0.0000000000000D+00  0.0000000000000D+00
345  3.4400000000000D+00  0.0000000000000D+00  0.0000000000000D+00
346  3.4500000000000D+00  0.0000000000000D+00  0.0000000000000D+00
347  3.4600000000000D+00  0.0000000000000D+00  0.0000000000000D+00
348  3.4700000000000D+00  0.0000000000000D+00  0.0000000000000D+00
349  3.4800000000000D+00  0.0000000000000D+00  0.0000000000000D+00
350  3.4900000000000D+00  0.0000000000000D+00  0.0000000000000D+00
351  3.5000000000000D+00  0.0000000000000D+00  0.0000000000000D+00
352  3.5100000000000D+00  0.0000000000000D+00  0.0000000000000D+00
353  3.5200000000000D+00  0.0000000000000D+00  0.0000000000000D+00
354  3.5300000000000D+00  0.0000000000000D+00  0.0000000000000D+00
355  3.5400000000000D+00  0.0000000000000D+00  0.0000000000000D+00
356  3.5500000000000D+00  0.0000000000000D+00  0.0000000000000D+00
357  3.5600000000000D+00  0.0000000000000D+00  0.0000000000000D+00
358  3.5700000000000D+00  0.0000000000000D+00  0.0000000000000D+00
359  3.5800000000000D+00  0.0000000000000D+00  0.0000000000000D+00
360  3.5900000000000D+00  0.0000000000000D+00  0.0000000000000D+00
361  3.6000000000000D+00  0.0000000000000D+00  0.0000000000000D+00
362  3.6100000000000D+00  0.0000000000000D+00  0.0000000000000D+00
363  3.6200000000000D+00  0.0000000000000D+00  0.0000000000000D+00
364  3.6300000000000D+00  0.0000000000000D+00  0.0000000000000D+00
365  3.6400000000000D+00  0.0000000000000D+00  0.0000000000000D+00
366  3.6500000000000D+00  0.0000000000000D+00  0.0000000000000D+00
367  3.6600000000000D+00  0.0000000000000D+00  0.0000000000000D+00
368  3.6700000000000D+00  0.0000000000000D+00  0.0000000000000D+00
369  3.6800000000000D+00  0.0000000000000D+00  0.0000000000000D+00
370  3.6900000000000D+00  0.0000000000000D+00  0.0000000000000D+00
371  3.7000000000000D+00  0.0000000000000D+00  0.0000000000000D+00
372  3.7100000000000D+00  0.0000000000000D+00  0.0000000000000D+00
373  3.7200000000000D+00  0.0000000000000D+00  0.0000000000000D+00
374  3.7300000000000D+00  0.0000000000000D+00  0.0000000000000D+00
375  3.7400000000000D+00  0.0000000000000D+00  0.0000000000000D+00
376  3.7500000000000D+00  0.0000000000000D+00  0.0000000000000D+00
377  3.7600000000000D+00  0.0000000000000D+00  0.0000000000000D+00
378  3.7700000000000D+00  0.0000000000000D+00  0.0000000000000D+00
379  3.7800000000000D+00  0.0000000000000D+00  0.0000000000000D+00
380  3.7900000000000D+00  0.0000000000000D+00  0.0000000000000D+00
381  3.8000000000000D+00  0.0000000000000D+00  0.0000000000000D+00
382  3.8100000000000D+00  0.0000000000000D+00  0.0000000000000D+00
383  3.8200000000000D+00  0.0000000000000D+00  0.0000000000000D+00
384  3.8300000000000D+00  0.0000000000000D+00  0.0000000000000D+00
385  3.8400000000000D+00  0.0000000000000D+00  0.0000000000000D+00
386  3.8500000000000D+00  0.0000000000000D+00  0.0000000000000D+00
387  3.8600000000000D+00  0.0000000000000D+00  0.0000000000000D+00
388  3.8700000000000D+00  0.0000000000000D+00  0.0000000000000D+00
389  3.8800000000000D+00  0.0000000000000D+00  0.0000000000000D+00
390  3.8900000000000D+00  0.0000000000000D+00  0.0000000000000D+00
391  3.9000000000000D+00  0.0000000000000D+00  0.0000000000000D+00
392  3.9100000000000D+00  0.0000000000000D+00  0.0000000000000D+00
393  3.9200000000000D+00  0.0000000000000D+00  0.0000000000000D+00
394  3.9300000000000D+00  0.0000000000000D+00  0.0000000000000D+00
395  3.9400000000000D+00  0.0000000000000D+00  0.0000000000000D+00
396  3.9500000000000D+00  0.0000000000000D+00  0.0000000000000D+00
397  3.9600000000000D+00  0.0000000000000D+00  0.0000000000000D+00
398  3.9700000000000D+00  0.0000000000000D+00  0.0000000000000D+00
399  3.9800000000000D+00  0.0000000000000D+00  0.0000000000000D+00
400  3.9900000000000D+00  0.0000000000000D+00  0.0000000000000D+00
401  4.0000000000000D+00  0.0000000000000D+00  0.0000000000000D+00
402  4.0100000000000D+00  0.0000000000000D+00  0.0000000000000D+00
403  4.0200000000000D+00  0.0000000000000D+00  0.0000000000000D+00
404  4.0300000000000D+00  0.0000000000000D+00  0.0000000000000D+00
405  4.0400000000000D+00  0.0000000000000D+00  0.0000000000000D+00
406  4.0500000000000D+00  0.0000000000000D+00  0.0000000000000D+00
407  4.0600000000000D+00  0.0000000000000D+00  0.0000000000000D+00
408  4.0700000000000D+00  0.0000000000000D+00  0.0000000000000D+00
409  4.0800000000000D+00  0.0000000000000D+00  0.0000000000000D+00
410  4.0900000000000D+00  0.0000000000000D+00  0.0000000000000D+00
411  4.1000000000000D+00  0.0000000000000D+00  0.0000000000000D+00
412  4.1100000000000D+00  0.0000000000000D+00  0.0000000000000D+00
413  4.1200000000000D+00  0.0000000000000D+00  0.0000000000000D+00
414  4.1300000000000D+00  0.0000000000000D+00  0.0000000000000D+00
415  4.1400000000000D+00  0.0000000000000D+00  0.0000000000000D+00
416  4.1500000000000D+00  0.0000000000000D+00  0.0000000000000D+00
417  4.1600000000000D+00  0.0000000000000D+00  0.0000000000000D+00
418  4.1700000000000D+00  0.0000000000000D+00  0.0000000000000D+00
419  4.1800000000000D+00  0.0000000000000D+00  0.0000000000000D+00
420  4.1900000000000D+00  0.0000000000000D+00  0.0000000000000D+00
421  4.2000000000000D+00  0.0000000000000D+00  0.0000000000000D+00
422  4.2100000000000D+00  0.0000000000000D+00  0.0000000000000D+00
423  4.2200000000000D+00  0.0000000000000D+00  0.0000000000000D+00
424  4.2300000000000D+00  0.0000000000000D+00  0.0000000000000D+00
425  4.2400000000000D+00  0.0000000000000D+00  0.0000000000000D+00
426  4.2500000000000D+00  0.0000000000000D+00  0.0000000000000D+00
427  4.2600000000000D+00  0.0000000000000D+00  0.0000000000000D+00
428  4.2700000000000D+00  0.0000000000000D+00  0.0000000000000D+00
429  4.2800000000000D+00  0.0000000000000D+00  0.0000000000000D+00
430  4.2900000000000D+00  0.0000000000000D+00  0.0000000000000D+00
431  4.3000000000000D+00  0.0000000000000D+00  0.0000000000000D+00
432  4.3100000000000D+00  0.0000000000000D+00  0.0000000000000D+00
433  4.3200000000000D+00  0.0000000000000D+00  0.0000000000000D+00
434  4.3300000000000D+00  0.0000000000000D+00  0.0000000000000D+00
435  4.3400000000000D+00  0.0000000000000D+00  0.0000000000000D+00
436  4.3500000000000D+00  0.0000000000000D+00  0.0000000000000D+00
437  4.3600000000000D+00  0.0000000000000D+00  0.0000000000000D+00
438  4.3700000000000D+00  0.0000000000000D+00  0.0000000000000D+00
439  4.3800000000000D+00  0.0000000000000D+00  0.0000000000000D+00
440  4.3900000000000D+00  0.0000000000000D+00  0.0000000000000D+00
441  4.4000000000000D+00  0.0000000000000D+00  0.0000000000000D+00
442  4.4100000000000D+00  0.0000000000000D+00  0.0000000000000D+00
443  4.4200000000000D+00  0.0000000000000D+00  0.0000000000000D+00
444  4.4300000000000D+00  0.0000000000000D+00  0.0000000000000D+00