Hg    ONCVPSP  r_core=  3.01  2.32  2.01  3.01
80.0000     12.0000      140903    zatom,zion,pspd
8    11     3     4   601     0    pspcod,pspxc,lmax,lloc,mmax,r2well
6.00000000  0.50000000  0.00000000    rchrg fchrg qchrg
2     2     2     2     0    nproj
0                 extension_switch
0                         4.3528582838062D+00  4.2958472528021D-01
1  0.0000000000000D+00 -0.0000000000000D+00 -0.0000000000000D+00
2  1.0000000000000D-02 -1.0645360443950D-02 -4.7348148486325D-03
3  2.0000000000000D-02 -2.1301280013922D-02 -9.4448504372948D-03
4  3.0000000000000D-02 -3.1978285098236D-02 -1.4105397449730D-02
5  4.0000000000000D-02 -4.2686836679735D-02 -1.8691886300187D-02
6  5.0000000000000D-02 -5.3437297807729D-02 -2.3179956606672D-02
7  6.0000000000000D-02 -6.4239901279172D-02 -2.7545526194642D-02
8  7.0000000000000D-02 -7.5104717598250D-02 -3.1764859475966D-02
9  8.0000000000000D-02 -8.6041623282856D-02 -3.5814635049410D-02
10  9.0000000000000D-02 -9.7060269586261D-02 -3.9672012369508D-02
11  1.0000000000000D-01 -1.0817005170041D-01 -4.3314697334631D-02
12  1.1000000000000D-01 -1.1938007850797D-01 -4.6721006643843D-02
13  1.2000000000000D-01 -1.3069914294752D-01 -4.9869930777856D-02
14  1.3000000000000D-01 -1.4213569305800D-01 -5.2741195456461D-02
15  1.4000000000000D-01 -1.5369780375880D-01 -5.5315321444581D-02
16  1.5000000000000D-01 -1.6539314943945D-01 -5.7573682543484D-02
17  1.6000000000000D-01 -1.7722897739927D-01 -5.9498561673643D-02
18  1.7000000000000D-01 -1.8921208222387D-01 -6.1073204858601D-02
19  1.8000000000000D-01 -2.0134878112080D-01 -6.2281873055540D-02
20  1.9000000000000D-01 -2.1364489028726D-01 -6.3109891671538D-02
21  2.0000000000000D-01 -2.2610570237490D-01 -6.3543697621725D-02
22  2.1000000000000D-01 -2.3873596507657D-01 -6.3570883870781D-02
23  2.2000000000000D-01 -2.5153986090244D-01 -6.3180241309552D-02
24  2.3000000000000D-01 -2.6452098816699D-01 -6.2361797915235D-02
25  2.4000000000000D-01 -2.7768234326545D-01 -6.1106855025061D-02
26  2.5000000000000D-01 -2.9102630429535D-01 -5.9408020603238D-02
27  2.6000000000000D-01 -3.0455461590429D-01 -5.7259239739330D-02
28  2.7000000000000D-01 -3.1826837569419D-01 -5.4655821691707D-02
29  2.8000000000000D-01 -3.3216802194601D-01 -5.1594463959069D-02
30  2.9000000000000D-01 -3.4625332280098D-01 -4.8073273093705D-02
31  3.0000000000000D-01 -3.6052336693376D-01 -4.4091782180474D-02
32  3.1000000000000D-01 -3.7497655572744D-01 -3.9650964958051D-02
33  3.2000000000000D-01 -3.8961059697991D-01 -3.4753246519533D-02
34  3.3000000000000D-01 -4.0442250025657D-01 -2.9402510375020D-02
35  3.4000000000000D-01 -4.1940857342266D-01 -2.3604102753841D-02
36  3.5000000000000D-01 -4.3456442138471D-01 -1.7364832197737D-02
37  3.6000000000000D-01 -4.4988494570636D-01 -1.0692966945255D-02
38  3.7000000000000D-01 -4.6536434647550D-01 -3.5982275878879D-03
39  3.8000000000000D-01 -4.8099612519205D-01  3.9082228228835D-03
40  3.9000000000000D-01 -4.9677308962979D-01  1.1813792862206D-02
41  4.0000000000000D-01 -5.1268736015399D-01  2.0104480096860D-02
42  4.1000000000000D-01 -5.2873037760080D-01  2.8764891937479D-02
43  4.2000000000000D-01 -5.4489291275319D-01  3.7778270009463D-02
44  4.3000000000000D-01 -5.6116507737735D-01  4.7126517970482D-02
45  4.4000000000000D-01 -5.7753633680239D-01  5.6790232731811D-02
46  4.5000000000000D-01 -5.9399552402613D-01  6.6748739039342D-02
47  4.6000000000000D-01 -6.1053085532617D-01  7.6980127361543D-02
48  4.7000000000000D-01 -6.2712994734841D-01  8.7461295013179D-02
49  4.8000000000000D-01 -6.4377983562954D-01  9.8167990407308D-02
50  4.9000000000000D-01 -6.6046699397472D-01  1.0907485899542D-01
51  5.0000000000000D-01 -6.7717735708101D-01  1.2015549691240D-01
52  5.1000000000000D-01 -6.9389634236767D-01  1.3138250205732D-01
53  5.2000000000000D-01 -7.1060887283943D-01  1.4272752750100D-01
54  5.3000000000000D-01 -7.2729940470896D-01  1.5416134612784D-01
55  5.4000000000000D-01 -7.4395195242277D-01  1.6565390845743D-01
56  5.5000000000000D-01 -7.6055011447707D-01  1.7717440224528D-01
57  5.6000000000000D-01 -7.7707710762714D-01  1.8869133173223D-01
58  5.7000000000000D-01 -7.9351578771789D-01  2.0017256473519D-01
59  5.8000000000000D-01 -8.0984869192558D-01  2.1158543024184D-01
60  5.9000000000000D-01 -8.2605805765532D-01  2.2289676052005D-01
61  6.0000000000000D-01 -8.4212586714923D-01  2.3407299347892D-01
62  6.1000000000000D-01 -8.5803387248919D-01  2.4508022870258D-01
63  6.2000000000000D-01 -8.7376363041882D-01  2.5588430626213D-01
64  6.3000000000000D-01 -8.8929654581028D-01  2.6645090517763D-01
65  6.4000000000000D-01 -9.0461389319896D-01  2.7674559082690D-01
66  6.5000000000000D-01 -9.1969686203661D-01  2.8673391694225D-01
67  6.6000000000000D-01 -9.3452659583440D-01  2.9638151301769D-01
68  6.7000000000000D-01 -9.4908422018190D-01  3.0565414596843D-01
69  6.8000000000000D-01 -9.6335087692711D-01  3.1451779580984D-01
70  6.9000000000000D-01 -9.7730778130545D-01  3.2293878302246D-01
71  7.0000000000000D-01 -9.9093624146382D-01  3.3088381004654D-01
72  7.1000000000000D-01 -1.0042177003034D+00  3.3832005328226D-01
73  7.2000000000000D-01 -1.0171337729511D+00  3.4521524477830D-01
74  7.3000000000000D-01 -1.0296662806216D+00  3.5153774549202D-01
75  7.4000000000000D-01 -1.0417973047402D+00  3.5725666342304D-01
76  7.5000000000000D-01 -1.0535092061389D+00  3.6234189315459D-01
77  7.6000000000000D-01 -1.0647846677723D+00  3.6676420772845D-01
78  7.7000000000000D-01 -1.0756067312827D+00  3.7049533628138D-01
79  7.8000000000000D-01 -1.0859588330866D+00  3.7350804017201D-01
80  7.9000000000000D-01 -1.0958248399071D+00  3.7577618741329D-01
81  8.0000000000000D-01 -1.1051890836767D+00  3.7727482523032D-01
82  8.1000000000000D-01 -1.1140363957356D+00  3.7798025056688D-01
83  8.2000000000000D-01 -1.1223521402540D+00  3.7787007836891D-01
84  8.3000000000000D-01 -1.1301222468083D+00  3.7692330747649D-01
85  8.4000000000000D-01 -1.1373332420410D+00  3.7512038396010D-01
86  8.5000000000000D-01 -1.1439722803369D+00  3.7244326173939D-01
87  8.6000000000000D-01 -1.1500271734488D+00  3.6887546032645D-01
88  8.7000000000000D-01 -1.1554864190053D+00  3.6440211953751D-01
89  8.8000000000000D-01 -1.1603392278371D+00  3.5901005101931D-01
90  8.9000000000000D-01 -1.1645755500537D+00  3.5268778643874D-01
91  9.0000000000000D-01 -1.1681860998091D+00  3.4542562218652D-01
92  9.1000000000000D-01 -1.1711623786897D+00  3.3721566044839D-01
93  9.2000000000000D-01 -1.1734966976619D+00  3.2805184650144D-01
94  9.3000000000000D-01 -1.1751821975169D+00  3.1793000209807D-01
95  9.4000000000000D-01 -1.1762128677530D+00  3.0684785480818D-01
96  9.5000000000000D-01 -1.1765835638377D+00  2.9480506320053D-01
97  9.6000000000000D-01 -1.1762900227965D+00  2.8180323775896D-01
98  9.7000000000000D-01 -1.1753288770831D+00  2.6784595744931D-01
99  9.8000000000000D-01 -1.1736976463604D+00  2.5293874342061D-01
100  9.9000000000000D-01 -1.1713948092612D+00  2.3708918434612D-01
101  1.0000000000000D+00 -1.1684197547801D+00  2.2030682868571D-01
102  1.0100000000000D+00 -1.1647728057199D+00  2.0260321589620D-01
103  1.0200000000000D+00 -1.1604552240447D+00  1.8399187131443D-01
104  1.0300000000000D+00 -1.1554692138189D+00  1.6448829546931D-01
105  1.0400000000000D+00 -1.1498178987664D+00  1.4410991003241D-01
106  1.0500000000000D+00 -1.1435053922015D+00  1.2287615890383D-01
107  1.0600000000000D+00 -1.1365367377329D+00  1.0080838278515D-01
108  1.0700000000000D+00 -1.1289179097469D+00  7.7929800511890D-02
109  1.0800000000000D+00 -1.1206558123586D+00  5.4265485062361D-02
110  1.0900000000000D+00 -1.1117582429001D+00  2.9842291197016D-02
111  1.1000000000000D+00 -1.1022339787952D+00  4.6889441227235D-03
112  1.1100000000000D+00 -1.0920926694910D+00 -2.1164147235316D-02
113  1.1200000000000D+00 -1.0813448489949D+00 -4.7684900357247D-02
114  1.1300000000000D+00 -1.0700019028735D+00 -7.4839619062916D-02
115  1.1400000000000D+00 -1.0580761185767D+00 -1.0259299791534D-01
116  1.1500000000000D+00 -1.0455806076156D+00 -1.3090825403390D-01
117  1.1600000000000D+00 -1.0325292878710D+00 -1.5974717972062D-01
118  1.1700000000000D+00 -1.0189368591793D+00 -1.8907016513778D-01
119  1.1800000000000D+00 -1.0048188331297D+00 -2.1883634919539D-01
120  1.1900000000000D+00 -9.9019143894064D-01 -2.4900366769930D-01
121  1.2000000000000D+00 -9.7507162376533D-01 -2.7952887687788D-01
122  1.2100000000000D+00 -9.5947703811112D-01 -3.1036770473182D-01
123  1.2200000000000D+00 -9.4342597854753D-01 -3.4147500418639D-01
124  1.2300000000000D+00 -9.2693737283614D-01 -3.7280468192396D-01
125  1.2400000000000D+00 -9.1003076576318D-01 -4.0430980108760D-01
126  1.2500000000000D+00 -8.9272621948709D-01 -4.3594298915202D-01
127  1.2600000000000D+00 -8.7504434438026D-01 -4.6765614215487D-01
128  1.2700000000000D+00 -8.5700628503701D-01 -4.9940052216767D-01
129  1.2800000000000D+00 -8.3863353851283D-01 -5.3112743954059D-01
130  1.2900000000000D+00 -8.1994808038964D-01 -5.6278764304820D-01
131  1.3000000000000D+00 -8.0097230644584D-01 -5.9433157970054D-01
132  1.3100000000000D+00 -7.8172879854560D-01 -6.2571017482647D-01
133  1.3200000000000D+00 -7.6224057299475D-01 -6.5687388635024D-01
134  1.3300000000000D+00 -7.4253086825335D-01 -6.8777346451218D-01
135  1.3400000000000D+00 -7.2262299594395D-01 -7.1836036385542D-01
136  1.3500000000000D+00 -7.0254069093337D-01 -7.4858558021973D-01
137  1.3600000000000D+00 -6.8230756155767D-01 -7.7840141918777D-01
138  1.3700000000000D+00 -6.6194734275959D-01 -8.0776060552581D-01
139  1.3800000000000D+00 -6.4148406456927D-01 -8.3661579579534D-01
140  1.3900000000000D+00 -6.2094128117131D-01 -8.6492187900461D-01
141  1.4000000000000D+00 -6.0034293033349D-01 -8.9263334590967D-01
142  1.4100000000000D+00 -5.7971262532048D-01 -9.1970641387734D-01
143  1.4200000000000D+00 -5.5907374997753D-01 -9.4609866259105D-01
144  1.4300000000000D+00 -5.3844997354918D-01 -9.7176758153207D-01
145  1.4400000000000D+00 -5.1786401313054D-01 -9.9667404290500D-01
146  1.4500000000000D+00 -4.9733903903677D-01 -1.0207783114738D+00
147  1.4600000000000D+00 -4.7689739257064D-01 -1.0440436297509D+00
148  1.4700000000000D+00 -4.5656125627579D-01 -1.0664342913927D+00
149  1.4800000000000D+00 -4.3635262746562D-01 -1.0879157571769D+00
150  1.4900000000000D+00 -4.1629245771130D-01 -1.1084568807072D+00
151  1.5000000000000D+00 -3.9640225639630D-01 -1.1280256764009D+00
152  1.5100000000000D+00 -3.7670175120799D-01 -1.1465954163755D+00
153  1.5200000000000D+00 -3.5721133210055D-01 -1.1641382427636D+00
154  1.5300000000000D+00 -3.3794986729184D-01 -1.1806307964044D+00
155  1.5400000000000D+00 -3.1893624739793D-01 -1.1960502089943D+00
156  1.5500000000000D+00 -3.0018842768984D-01 -1.2103765553033D+00
157  1.5600000000000D+00 -2.8172364160133D-01 -1.2235922132618D+00
158  1.5700000000000D+00 -2.6355880678141D-01 -1.2356809317456D+00
159  1.5800000000000D+00 -2.4570939879646D-01 -1.2466304314300D+00
160  1.5900000000000D+00 -2.2819116274294D-01 -1.2564283873484D+00
161  1.6000000000000D+00 -2.1101774870700D-01 -1.2650678651027D+00
162  1.6100000000000D+00 -1.9420359311799D-01 -1.2725407039996D+00
163  1.6200000000000D+00 -1.7776048012267D-01 -1.2788452394165D+00
164  1.6300000000000D+00 -1.6170140752273D-01 -1.2839776790047D+00
165  1.6400000000000D+00 -1.4603633492105D-01 -1.2879413645355D+00
166  1.6500000000000D+00 -1.3077652632925D-01 -1.2907373956321D+00
167  1.6600000000000D+00 -1.1593027288498D-01 -1.2923736120072D+00
168  1.6700000000000D+00 -1.0150701329501D-01 -1.2928560493992D+00
169  1.6800000000000D+00 -8.7513296563229D-02 -1.2921970241206D+00
170  1.6900000000000D+00 -7.3956749185099D-02 -1.2904073133376D+00
171  1.7000000000000D+00 -6.0842118834653D-02 -1.2875036209454D+00
172  1.7100000000000D+00 -4.8175252473151D-02 -1.2835012284861D+00
173  1.7200000000000D+00 -3.5959059050077D-02 -1.2784210495356D+00
174  1.7300000000000D+00 -2.4197652207600D-02 -1.2722826089921D+00
175  1.7400000000000D+00 -1.2892112866449D-02 -1.2651107179906D+00
176  1.7500000000000D+00 -2.0448170937636D-03 -1.2569289544421D+00
177  1.7600000000000D+00  8.3448377850914D-03 -1.2477654861892D+00
178  1.7700000000000D+00  1.8276356235084D-02 -1.2376478654169D+00
179  1.7800000000000D+00  2.7751771345000D-02 -1.2266069690576D+00
180  1.7900000000000D+00  3.6772493908705D-02 -1.2146739617909D+00
181  1.8000000000000D+00  4.5341862582660D-02 -1.2018820158703D+00
182  1.8100000000000D+00  5.3463133803314D-02 -1.1882653069868D+00
183  1.8200000000000D+00  6.1140835716560D-02 -1.1738589584082D+00
184  1.8300000000000D+00  6.8379953391145D-02 -1.1586993452905D+00
185  1.8400000000000D+00  7.5186112354568D-02 -1.1428233061727D+00
186  1.8500000000000D+00  8.1565838345619D-02 -1.1262683634413D+00
187  1.8600000000000D+00  8.7525800543215D-02 -1.1090729686577D+00
188  1.8700000000000D+00  9.3073795185519D-02 -1.0912744920489D+00
189  1.8800000000000D+00  9.8217528361596D-02 -1.0729130206203D+00
190  1.8900000000000D+00  1.0296570368248D-01 -1.0540247282344D+00
191  1.9000000000000D+00  1.0732712692293D-01 -1.0346500307363D+00
192  1.9100000000000D+00  1.1131105531115D-01 -1.0148242901290D+00
193  1.9200000000000D+00  1.1492716916470D-01 -9.9458597871979D-01
194  1.9300000000000D+00  1.1818525050864D-01 -9.7397041497702D-01
195  1.9400000000000D+00  1.2109536894309D-01 -9.5301174354310D-01
196  1.9500000000000D+00  1.2366794973254D-01 -9.3174583399026D-01
197  1.9600000000000D+00  1.2591292140342D-01 -9.1020087917948D-01
198  1.9700000000000D+00  1.2784124337462D-01 -8.8841116829055D-01
199  1.9800000000000D+00  1.2946283522817D-01 -8.6640341645560D-01
200  1.9900000000000D+00  1.3078852505321D-01 -8.4420766365860D-01
201  2.0000000000000D+00  1.3182879177693D-01 -8.2185259223164D-01
202  2.0100000000000D+00  1.3259414471912D-01 -7.9936656088687D-01
203  2.0200000000000D+00  1.3309567858705D-01 -7.7677933470102D-01
204  2.0300000000000D+00  1.3334352882905D-01 -7.5411768734261D-01
205  2.0400000000000D+00  1.3334903022924D-01 -7.3141145763631D-01
206  2.0500000000000D+00  1.3312242658766D-01 -7.0868713219107D-01
207  2.0600000000000D+00  1.3267454136443D-01 -6.8597252240714D-01
208  2.0700000000000D+00  1.3201628744327D-01 -6.6329539598890D-01
209  2.0800000000000D+00  1.3115767698073D-01 -6.4068071031744D-01
210  2.0900000000000D+00  1.3011009464002D-01 -6.1815695566705D-01
211  2.1000000000000D+00  1.2888324946670D-01 -5.9574766538509D-01
212  2.1100000000000D+00  1.2748779075339D-01 -5.7347869436151D-01
213  2.1200000000000D+00  1.2593421571611D-01 -5.5137518727287D-01
214  2.1300000000000D+00  1.2423198934304D-01 -5.2945913686687D-01
215  2.1400000000000D+00  1.2239209084578D-01 -5.0775643537428D-01
216  2.1500000000000D+00  1.2042355992976D-01 -4.8628733526182D-01
217  2.1600000000000D+00  1.1833629525804D-01 -4.6507416822777D-01
218  2.1700000000000D+00  1.1614032059903D-01 -4.4413932801698D-01
219  2.1800000000000D+00  1.1384411577745D-01 -4.2350068731573D-01
220  2.1900000000000D+00  1.1145777748017D-01 -4.0318025946480D-01
221  2.2000000000000D+00  1.0898972568395D-01 -3.8319520640557D-01
222  2.2100000000000D+00  1.0644846771506D-01 -3.6356264584322D-01
223  2.2200000000000D+00  1.0384363818972D-01 -3.4430247510866D-01
224  2.2300000000000D+00  1.0118233428191D-01 -3.2542745206570D-01
225  2.2400000000000D+00  9.8473267454866D-02 -3.0695441096087D-01
226  2.2500000000000D+00  9.5724456339910D-02 -2.8889805753870D-01
227  2.2600000000000D+00  9.2942691797332D-02 -2.7126953590966D-01
228  2.2700000000000D+00  9.0136435031912D-02 -2.5408416563720D-01
229  2.2800000000000D+00  8.7312035112517D-02 -2.3735140410961D-01
230  2.2900000000000D+00  8.4476033385420D-02 -2.2108094760277D-01
231  2.3000000000000D+00  8.1636312629599D-02 -2.0528574305850D-01
232  2.3100000000000D+00  7.8797780451099D-02 -1.8997070247125D-01
233  2.3200000000000D+00  7.5966890321529D-02 -1.7514449478343D-01
234  2.3300000000000D+00  7.3149994171833D-02 -1.6081526847935D-01
235  2.3400000000000D+00  7.0351484222553D-02 -1.4698587971285D-01
236  2.3500000000000D+00  6.7577326619313D-02 -1.3366293247478D-01
237  2.3600000000000D+00  6.4832381655588D-02 -1.2084999415006D-01
238  2.3700000000000D+00  6.2120518394778D-02 -1.0854788378913D-01
239  2.3800000000000D+00  5.9447117826763D-02 -9.6760912692973D-02
240  2.3900000000000D+00  5.6815652563303D-02 -8.5488465032607D-02
241  2.4000000000000D+00  5.4229439841570D-02 -7.4729292997960D-02
242  2.4100000000000D+00  5.1693190275685D-02 -6.4485233585078D-02
243  2.4200000000000D+00  4.9209133694625D-02 -5.4751996673412D-02
244  2.4300000000000D+00  4.6779998669637D-02 -4.5526226727222D-02
245  2.4400000000000D+00  4.4409759305161D-02 -3.6807168744765D-02
246  2.4500000000000D+00  4.2099570150350D-02 -2.8587424370666D-02
247  2.4600000000000D+00  3.9851600777500D-02 -2.0861646429442D-02
248  2.4700000000000D+00  3.7668851580221D-02 -1.3626028649609D-02
249  2.4800000000000D+00  3.5551771821042D-02 -6.8710612057414D-03
250  2.4900000000000D+00  3.3501863830420D-02 -5.8922849204242D-04
251  2.5000000000000D+00  3.1521189910973D-02  5.2261216370680D-03
252  2.5100000000000D+00  2.9609613705343D-02  1.0586217890382D-02
253  2.5200000000000D+00  2.7767936339601D-02  1.5500706463542D-02
254  2.5300000000000D+00  2.5997413174365D-02  1.9978684025920D-02
255  2.5400000000000D+00  2.4297360787234D-02  2.4032867855399D-02
256  2.5500000000000D+00  2.2667899580547D-02  2.7674841973993D-02
257  2.5600000000000D+00  2.1109598611181D-02  3.0915801857056D-02
258  2.5700000000000D+00  1.9621283124348D-02  3.3769660071773D-02
259  2.5800000000000D+00  1.8202439317844D-02  3.6249652544261D-02
260  2.5900000000000D+00  1.6853048999306D-02  3.8368817110685D-02
261  2.6000000000000D+00  1.5571522295888D-02  4.0141898212409D-02
262  2.6100000000000D+00  1.4356815699122D-02  4.1583395438213D-02
263  2.6200000000000D+00  1.3208303052090D-02  4.2708054374540D-02
264  2.6300000000000D+00  1.2124166494864D-02  4.3531010931824D-02
265  2.6400000000000D+00  1.1102915132301D-02  4.4067655125522D-02
266  2.6500000000000D+00  1.0143323933814D-02  4.4334087330192D-02
267  2.6600000000000D+00  9.2434883700953D-03  4.4345679815609D-02
268  2.6700000000000D+00  8.4015561460278D-03  4.4118228473472D-02
269  2.6800000000000D+00  7.6158180729045D-03  4.3668652749141D-02
270  2.6900000000000D+00  6.8842972729921D-03  4.3012669360912D-02
271  2.7000000000000D+00  6.2049182367995D-03  4.2165885172866D-02
272  2.7100000000000D+00  5.5756345644097D-03  4.1145383390341D-02
273  2.7200000000000D+00  4.9943559129642D-03  3.9967531360246D-02
274  2.7300000000000D+00  4.4589441874121D-03  3.8647087860435D-02
275  2.7400000000000D+00  3.9671944639679D-03  3.7200534479715D-02
276  2.7500000000000D+00  3.5168106265743D-03  3.5645358732338D-02
277  2.7600000000000D+00  3.1057655532159D-03  3.3994792841848D-02
278  2.7700000000000D+00  2.7318643426506D-03  3.2264193657498D-02
279  2.7800000000000D+00  2.3925846052487D-03  3.0471763262800D-02
280  2.7900000000000D+00  2.0860754145029D-03  2.8629528546739D-02
281  2.8000000000000D+00  1.8102548546894D-03  2.6751490255031D-02
282  2.8100000000000D+00  1.5626845884197D-03  2.4854247585874D-02
283  2.8200000000000D+00  1.3413992483687D-03  2.2950920940317D-02
284  2.8300000000000D+00  1.1446673728588D-03  2.1052885747058D-02
285  2.8400000000000D+00  9.7037379970816D-04  1.9174133748038D-02
286  2.8500000000000D+00  8.1621710683399D-04  1.7329826931956D-02
287  2.8600000000000D+00  6.8100167661723D-04  1.5528031050887D-02
288  2.8700000000000D+00  5.6301100365833D-04  1.3780123015430D-02
289  2.8800000000000D+00  4.5989378601918D-04  1.2101224568789D-02
290  2.8900000000000D+00  3.7064951853645D-04  1.0498462509992D-02
291  2.9000000000000D+00  2.9405210375279D-04  8.9802890595738D-03
292  2.9100000000000D+00  2.2837839936849D-04  7.5579922393598D-03
293  2.9200000000000D+00  1.7211331603208D-04  6.2416894314134D-03
294  2.9300000000000D+00  1.2482622299735D-04  5.0354050772380D-03
295  2.9400000000000D+00  8.5512499443783D-05  3.9463852950400D-03
296  2.9500000000000D+00  5.2349254713949D-05  2.9863249698048D-03
297  2.9600000000000D+00  2.5381160152622D-05  2.1567673452165D-03
298  2.9700000000000D+00  4.1729407538710D-06  1.4618652767736D-03
299  2.9800000000000D+00 -1.2281375756922D-05  9.2513853711909D-04
300  2.9900000000000D+00 -2.4754780076856D-05  5.5979164399564D-04
301  3.0000000000000D+00 -3.2397967182035D-05  3.0909445700855D-04
302  3.0100000000000D+00 -3.5180136356146D-05  1.5112381709474D-04
303  3.0200000000000D+00 -2.9785181780579D-05  5.1634936013473D-05
304  3.0300000000000D+00 -1.9977522454737D-05  1.9675845770689D-06
305  3.0400000000000D+00 -8.8690265250459D-06 -9.2325328176467D-06
306  3.0500000000000D+00  4.7476095706049D-07 -1.6933383522543D-06
307  3.0600000000000D+00  2.2169099919469D-06 -7.9070923104177D-06
308  3.0700000000000D+00  2.0941712994948D-06 -7.4693180323439D-06
309  3.0800000000000D+00  8.3507196700410D-07 -2.9784660418914D-06
310  3.0900000000000D+00  0.0000000000000D+00  0.0000000000000D+00
311  3.1000000000000D+00  0.0000000000000D+00  0.0000000000000D+00
312  3.1100000000000D+00  0.0000000000000D+00  0.0000000000000D+00
313  3.1200000000000D+00  0.0000000000000D+00  0.0000000000000D+00
314  3.1300000000000D+00  0.0000000000000D+00  0.0000000000000D+00
315  3.1400000000000D+00  0.0000000000000D+00  0.0000000000000D+00
316  3.1500000000000D+00  0.0000000000000D+00  0.0000000000000D+00
317  3.1600000000000D+00  0.0000000000000D+00  0.0000000000000D+00
318  3.1700000000000D+00  0.0000000000000D+00  0.0000000000000D+00
319  3.1800000000000D+00  0.0000000000000D+00  0.0000000000000D+00
320  3.1900000000000D+00  0.0000000000000D+00  0.0000000000000D+00
321  3.2000000000000D+00  0.0000000000000D+00  0.0000000000000D+00
322  3.2100000000000D+00  0.0000000000000D+00  0.0000000000000D+00
323  3.2200000000000D+00  0.0000000000000D+00  0.0000000000000D+00
324  3.2300000000000D+00  0.0000000000000D+00  0.0000000000000D+00
325  3.2400000000000D+00  0.0000000000000D+00  0.0000000000000D+00
326  3.2500000000000D+00  0.0000000000000D+00  0.0000000000000D+00
327  3.2600000000000D+00  0.0000000000000D+00  0.0000000000000D+00
328  3.2700000000000D+00  0.0000000000000D+00  0.0000000000000D+00
329  3.2800000000000D+00  0.0000000000000D+00  0.0000000000000D+00
330  3.2900000000000D+00  0.0000000000000D+00  0.0000000000000D+00
331  3.3000000000000D+00  0.0000000000000D+00  0.0000000000000D+00
332  3.3100000000000D+00  0.0000000000000D+00  0.0000000000000D+00
333  3.3200000000000D+00  0.0000000000000D+00  0.0000000000000D+00
334  3.3300000000000D+00  0.0000000000000D+00  0.0000000000000D+00
335  3.3400000000000D+00  0.0000000000000D+00  0.0000000000000D+00
336  3.3500000000000D+00  0.0000000000000D+00  0.0000000000000D+00
337  3.3600000000000D+00  0.0000000000000D+00  0.0000000000000D+00
338  3.3700000000000D+00  0.0000000000000D+00  0.0000000000000D+00
339  3.3800000000000D+00  0.0000000000000D+00  0.0000000000000D+00
340  3.3900000000000D+00  0.0000000000000D+00  0.0000000000000D+00
341  3.4000000000000D+00  0.0000000000000D+00  0.0000000000000D+00
342  3.4100000000000D+00  0.0000000000000D+00  0.0000000000000D+00
343  3.4200000000000D+00  0.0000000000000D+00  0.0000000000000D+00
344  3.4300000000000D+00  0.0000000000000D+00  0.0000000000000D+00
345  3.4400000000000D+00  0.0000000000000D+00  0.0000000000000D+00
346  3.4500000000000D+00  0.0000000000000D+00  0.0000000000000D+00
347  3.4600000000000D+00  0.0000000000000D+00  0.0000000000000D+00
348  3.4700000000000D+00  0.0000000000000D+00  0.0000000000000D+00
349  3.4800000000000D+00  0.0000000000000D+00  0.0000000000000D+00
350  3.4900000000000D+00  0.0000000000000D+00  0.0000000000000D+00
351  3.5000000000000D+00  0.0000000000000D+00  0.0000000000000D+00
352  3.5100000000000D+00  0.0000000000000D+00  0.0000000000000D+00
353  3.5200000000000D+00  0.0000000000000D+00  0.0000000000000D+00
354  3.5300000000000D+00  0.0000000000000D+00  0.0000000000000D+00
355  3.5400000000000D+00  0.0000000000000D+00  0.0000000000000D+00
356  3.5500000000000D+00  0.0000000000000D+00  0.0000000000000D+00
357  3.5600000000000D+00  0.0000000000000D+00  0.0000000000000D+00
358  3.5700000000000D+00  0.0000000000000D+00  0.0000000000000D+00
359  3.5800000000000D+00  0.0000000000000D+00  0.0000000000000D+00
360  3.5900000000000D+00  0.0000000000000D+00  0.0000000000000D+00
361  3.6000000000000D+00  0.0000000000000D+00  0.0000000000000D+00
362  3.6100000000000D+00  0.0000000000000D+00  0.0000000000000D+00
363  3.6200000000000D+00  0.0000000000000D+00  0.0000000000000D+00
364  3.6300000000000D+00  0.0000000000000D+00  0.0000000000000D+00
365  3.6400000000000D+00  0.0000000000000D+00  0.0000000000000D+00
366  3.6500000000000D+00  0.0000000000000D+00  0.0000000000000D+00
367  3.6600000000000D+00  0.0000000000000D+00  0.0000000000000D+00
368  3.6700000000000D+00  0.0000000000000D+00  0.0000000000000D+00
369  3.6800000000000D+00  0.0000000000000D+00  0.0000000000000D+00
370  3.6900000000000D+00  0.0000000000000D+00  0.0000000000000D+00
371  3.7000000000000D+00  0.0000000000000D+00  0.0000000000000D+00
372  3.7100000000000D+00  0.0000000000000D+00  0.0000000000000D+00
373  3.7200000000000D+00  0.0000000000000D+00  0.0000000000000D+00
374  3.7300000000000D+00  0.0000000000000D+00  0.0000000000000D+00
375  3.7400000000000D+00  0.0000000000000D+00  0.0000000000000D+00
376  3.7500000000000D+00  0.0000000000000D+00  0.0000000000000D+00
377  3.7600000000000D+00  0.0000000000000D+00  0.0000000000000D+00
378  3.7700000000000D+00  0.0000000000000D+00  0.0000000000000D+00
379  3.7800000000000D+00  0.0000000000000D+00  0.0000000000000D+00
380  3.7900000000000D+00  0.0000000000000D+00  0.0000000000000D+00
381  3.8000000000000D+00  0.0000000000000D+00  0.0000000000000D+00
382  3.8100000000000D+00  0.0000000000000D+00  0.0000000000000D+00
383  3.8200000000000D+00  0.0000000000000D+00  0.0000000000000D+00
384  3.8300000000000D+00  0.0000000000000D+00  0.0000000000000D+00
385  3.8400000000000D+00  0.0000000000000D+00  0.0000000000000D+00
386  3.8500000000000D+00  0.0000000000000D+00  0.0000000000000D+00
387  3.8600000000000D+00  0.0000000000000D+00  0.0000000000000D+00
388  3.8700000000000D+00  0.0000000000000D+00  0.0000000000000D+00
389  3.8800000000000D+00  0.0000000000000D+00  0.0000000000000D+00
390  3.8900000000000D+00  0.0000000000000D+00  0.0000000000000D+00
391  3.9000000000000D+00  0.0000000000000D+00  0.0000000000000D+00
392  3.9100000000000D+00  0.0000000000000D+00  0.0000000000000D+00
393  3.9200000000000D+00  0.0000000000000D+00  0.0000000000000D+00
394  3.9300000000000D+00  0.0000000000000D+00  0.0000000000000D+00
395  3.9400000000000D+00  0.0000000000000D+00  0.0000000000000D+00
396  3.9500000000000D+00  0.0000000000000D+00  0.0000000000000D+00
397  3.9600000000000D+00  0.0000000000000D+00  0.0000000000000D+00
398  3.9700000000000D+00  0.0000000000000D+00  0.0000000000000D+00
399  3.9800000000000D+00  0.0000000000000D+00  0.0000000000000D+00
400  3.9900000000000D+00  0.0000000000000D+00  0.0000000000000D+00
401  4.0000000000000D+00  0.0000000000000D+00  0.0000000000000D+00
402  4.0100000000000D+00  0.0000000000000D+00  0.0000000000000D+00
403  4.0200000000000D+00  0.0000000000000D+00  0.0000000000000D+00
404  4.0300000000000D+00  0.0000000000000D+00  0.0000000000000D+00
405  4.0400000000000D+00  0.0000000000000D+00  0.0000000000000D+00
406  4.0500000000000D+00  0.0000000000000D+00  0.0000000000000D+00
407  4.0600000000000D+00  0.0000000000000D+00  0.0000000000000D+00
408  4.0700000000000D+00  0.0000000000000D+00  0.0000000000000D+00
409  4.0800000000000D+00  0.0000000000000D+00  0.0000000000000D+00
410  4.0900000000000D+00  0.0000000000000D+00  0.0000000000000D+00
411  4.1000000000000D+00  0.0000000000000D+00  0.0000000000000D+00
412  4.1100000000000D+00  0.0000000000000D+00  0.0000000000000D+00
413  4.1200000000000D+00  0.0000000000000D+00  0.0000000000000D+00
414  4.1300000000000D+00  0.0000000000000D+00  0.0000000000000D+00
415  4.1400000000000D+00  0.0000000000000D+00  0.0000000000000D+00
416  4.1500000000000D+00  0.0000000000000D+00  0.0000000000000D+00
417  4.1600000000000D+00  0.0000000000000D+00  0.0000000000000D+00
418  4.1700000000000D+00  0.0000000000000D+00  0.0000000000000D+00
419  4.1800000000000D+00  0.0000000000000D+00  0.0000000000000D+00
420  4.1900000000000D+00  0.0000000000000D+00  0.0000000000000D+00
421  4.2000000000000D+00  0.0000000000000D+00  0.0000000000000D+00
422  4.2100000000000D+00  0.0000000000000D+00  0.0000000000000D+00
423  4.2200000000000D+00  0.0000000000000D+00  0.0000000000000D+00
424  4.2300000000000D+00  0.0000000000000D+00  0.0000000000000D+00
425  4.2400000000000D+00  0.0000000000000D+00  0.0000000000000D+00
426  4.2500000000000D+00  0.0000000000000D+00  0.0000000000000D+00
427  4.2600000000000D+00  0.0000000000000D+00  0.0000000000000D+00
428  4.2700000000000D+00  0.0000000000000D+00  0.0000000000000D+00
429  4.2800000000000D+00  0.0000000000000D+00  0.0000000000000D+00
430  4.2900000000000D+00  0.0000000000000D+00  0.0000000000000D+00
431  4.3000000000000D+00  0.0000000000000D+00  0.0000000000000D+00
432  4.3100000000000D+00  0.0000000000000D+00  0.0000000000000D+00
433  4.3200000000000D+00  0.0000000000000D+00  0.0000000000000D+00
434  4.3300000000000D+00  0.0000000000000D+00  0.0000000000000D+00
435  4.3400000000000D+00  0.0000000000000D+00  0.0000000000000D+00
436  4.3500000000000D+00  0.0000000000000D+00  0.0000000000000D+00
437  4.3600000000000D+00  0.0000000000000D+00  0.0000000000000D+00
438  4.3700000000000D+00  0.0000000000000D+00  0.0000000000000D+00
439  4.3800000000000D+00  0.0000000000000D+00  0.0000000000000D+00
440  4.3900000000000D+00  0.0000000000000D+00  0.0000000000000D+00
441  4.4000000000000D+00  0.0000000000000D+00  0.0000000000000D+00
442  4.4100000000000D+00  0.0000000000000D+00  0.0000000000000D+00
443  4.4200000000000D+00  0.0000000000000D+00  0.0000000000000D+00