Hg    ONCVPSP  r_core=  3.24  3.01  2.52  3.01
80.0000     12.0000      140903    zatom,zion,pspd
8    11     3     4   701     0    pspcod,pspxc,lmax,lloc,mmax,r2well
7.00000000  0.30000000  0.00000000    rchrg fchrg qchrg
2     2     2     2     0    nproj
0                 extension_switch
0                         3.1261732057070D+00  3.0756853515091D-01
1  0.0000000000000D+00 -0.0000000000000D+00  0.0000000000000D+00
2  1.0000000000000D-02 -2.1778143589049D-02  9.0225169310084D-03
3  2.0000000000000D-02 -4.3547015113245D-02  1.8036896265821D-02
4  3.0000000000000D-02 -6.5297349208021D-02  2.7035006791473D-02
5  4.0000000000000D-02 -8.7019893880851D-02  3.6008729974430D-02
6  5.0000000000000D-02 -1.0870541713657D-01  4.4949966143952D-02
7  6.0000000000000D-02 -1.3034471354128D-01  5.3850640551243D-02
8  7.0000000000000D-02 -1.5192861071045D-01  6.2702709293785D-02
9  8.0000000000000D-02 -1.7344797570742D-01  7.1498165094895D-02
10  9.0000000000000D-02 -1.9489372133916D-01  8.0229042929124D-02
11  1.0000000000000D-01 -2.1625681233689D-01  8.8887425484993D-02
12  1.1000000000000D-01 -2.3752827140964D-01  9.7465448456986D-02
13  1.2000000000000D-01 -2.5869918515984D-01  1.0595530565981D-01
14  1.3000000000000D-01 -2.7976070985018D-01  1.1434925395826D-01
15  1.4000000000000D-01 -3.0070407701337D-01  1.2263961800812D-01
16  1.5000000000000D-01 -3.2152059889351D-01  1.3081879480147D-01
17  1.6000000000000D-01 -3.4220167371489D-01  1.3887925801562D-01
18  1.7000000000000D-01 -3.6273879076518D-01  1.4681356215809D-01
19  1.8000000000000D-01 -3.8312353529334D-01  1.5461434651116D-01
20  1.9000000000000D-01 -4.0334759321289D-01  1.6227433887164D-01
21  2.0000000000000D-01 -4.2340275560319D-01  1.6978635908374D-01
22  2.1000000000000D-01 -4.4328092300970D-01  1.7714332236960D-01
23  2.2000000000000D-01 -4.6297410953608D-01  1.8433824245596D-01
24  2.3000000000000D-01 -4.8247444673056D-01  1.9136423450316D-01
25  2.4000000000000D-01 -5.0177418725781D-01  1.9821451783403D-01
26  2.5000000000000D-01 -5.2086570835219D-01  2.0488241846469D-01
27  2.6000000000000D-01 -5.3974151508458D-01  2.1136137146646D-01
28  2.7000000000000D-01 -5.5839424338285D-01  2.1764492311869D-01
29  2.8000000000000D-01 -5.7681666286240D-01  2.2372673290092D-01
30  2.9000000000000D-01 -5.9500167944719D-01  2.2960057531505D-01
31  3.0000000000000D-01 -6.1294233778237D-01  2.3526034154417D-01
32  3.1000000000000D-01 -6.3063182344486D-01  2.4070004095908D-01
33  3.2000000000000D-01 -6.4806346495428D-01  2.4591380248034D-01
34  3.3000000000000D-01 -6.6523073556227D-01  2.5089587578709D-01
35  3.4000000000000D-01 -6.8212725495095D-01  2.5564063247220D-01
36  3.5000000000000D-01 -6.9874679058227D-01  2.6014256696638D-01
37  3.6000000000000D-01 -7.1508325906237D-01  2.6439629749794D-01
38  3.7000000000000D-01 -7.3113072713986D-01  2.6839656682317D-01
39  3.8000000000000D-01 -7.4688341272300D-01  2.7213824300914D-01
40  3.9000000000000D-01 -7.6233568561693D-01  2.7561632006240D-01
41  4.0000000000000D-01 -7.7748206814839D-01  2.7882591853002D-01
42  4.1000000000000D-01 -7.9231723566388D-01  2.8176228606980D-01
43  4.2000000000000D-01 -8.0683601688779D-01  2.8442079798717D-01
44  4.3000000000000D-01 -8.2103339415776D-01  2.8679695775740D-01
45  4.4000000000000D-01 -8.3490450354688D-01  2.8888639754695D-01
46  4.5000000000000D-01 -8.4844463488218D-01  2.9068487874686D-01
47  4.6000000000000D-01 -8.6164923166869D-01  2.9218829253137D-01
48  4.7000000000000D-01 -8.7451389092829D-01  2.9339266045416D-01
49  4.8000000000000D-01 -8.8703436296285D-01  2.9429413509414D-01
50  4.9000000000000D-01 -8.9920655103517D-01  2.9488900072582D-01
51  5.0000000000000D-01 -9.1102651107131D-01  2.9517367420547D-01
52  5.1000000000000D-01 -9.2249045120251D-01  2.9514470576621D-01
53  5.2000000000000D-01 -9.3359473132602D-01  2.9479877993092D-01
54  5.3000000000000D-01 -9.4433586268723D-01  2.9413271674149D-01
55  5.4000000000000D-01 -9.5471050735735D-01  2.9314347286306D-01
56  5.5000000000000D-01 -9.6471547775604D-01  2.9182814281846D-01
57  5.6000000000000D-01 -9.7434773617155D-01  2.9018396076306D-01
58  5.7000000000000D-01 -9.8360439427920D-01  2.8820830159610D-01
59  5.8000000000000D-01 -9.9248271267060D-01  2.8589868337731D-01
60  5.9000000000000D-01 -1.0009801004545D+00  2.8325276853027D-01
61  6.0000000000000D-01 -1.0090941148172D+00  2.8026836663424D-01
62  6.1000000000000D-01 -1.0168224607052D+00  2.7694343621110D-01
63  6.2000000000000D-01 -1.0241629905216D+00  2.7327608720731D-01
64  6.3000000000000D-01 -1.0311137038292D+00  2.6926458417441D-01
65  6.4000000000000D-01 -1.0376727472451D+00  2.6490734820889D-01
66  6.5000000000000D-01 -1.0438384142720D+00  2.6020296054677D-01
67  6.6000000000000D-01 -1.0496091452478D+00  2.5515016597140D-01
68  6.7000000000000D-01 -1.0549835274285D+00  2.4974787559413D-01
69  6.8000000000000D-01 -1.0599602951015D+00  2.4399517015203D-01
70  6.9000000000000D-01 -1.0645383297424D+00  2.3789130527446D-01
71  7.0000000000000D-01 -1.0687166603715D+00  2.3143571407798D-01
72  7.1000000000000D-01 -1.0724944639277D+00  2.2462801158709D-01
73  7.2000000000000D-01 -1.0758710657490D+00  2.1746799900003D-01
74  7.3000000000000D-01 -1.0788459401342D+00  2.0995566779214D-01
75  7.4000000000000D-01 -1.0814187110830D+00  2.0209120585965D-01
76  7.5000000000000D-01 -1.0835891530276D+00  1.9387500069015D-01
77  7.6000000000000D-01 -1.0853571917166D+00  1.8530764478336D-01
78  7.7000000000000D-01 -1.0867229051852D+00  1.7638994070144D-01
79  7.8000000000000D-01 -1.0876865248198D+00  1.6712290623991D-01
80  7.9000000000000D-01 -1.0882484365147D+00  1.5750777970657D-01
81  8.0000000000000D-01 -1.0884091819188D+00  1.4754602529511D-01
82  8.1000000000000D-01 -1.0881694597671D+00  1.3723933853945D-01
83  8.2000000000000D-01 -1.0875301272947D+00  1.2658965183360D-01
84  8.3000000000000D-01 -1.0864922017271D+00  1.1559914000154D-01
85  8.4000000000000D-01 -1.0850568618425D+00  1.0427022590050D-01
86  8.5000000000000D-01 -1.0832254496001D+00  9.2605586040479D-02
87  8.6000000000000D-01 -1.0809994718273D+00  8.0608156201791D-02
88  8.7000000000000D-01 -1.0783806019609D+00  6.8281137032079D-02
89  8.8000000000000D-01 -1.0753706818325D+00  5.5627999602805D-02
90  8.9000000000000D-01 -1.0719717234921D+00  4.2652490904862D-02
91  9.0000000000000D-01 -1.0681859110613D+00  2.9358639261777D-02
92  9.1000000000000D-01 -1.0640156026049D+00  1.5750759638099D-02
93  9.2000000000000D-01 -1.0594633320150D+00  1.8334588196639D-03
94  9.3000000000000D-01 -1.0545318108939D+00 -1.2388359558505D-02
95  9.4000000000000D-01 -1.0492239304267D+00 -2.6909490161678D-02
96  9.5000000000000D-01 -1.0435427632323D+00 -4.1724421307959D-02
97  9.6000000000000D-01 -1.0374915651801D+00 -5.6827330549866D-02
98  9.7000000000000D-01 -1.0310737771609D+00 -7.2212080510881D-02
99  9.8000000000000D-01 -1.0242930257220D+00 -8.7872218633127D-02
100  9.9000000000000D-01 -1.0171531278515D+00 -1.0380096279803D-01
101  1.0000000000000D+00 -1.0096580897575D+00 -1.1999120789445D-01
102  1.0100000000000D+00 -1.0018121091428D+00 -1.3643552004949D-01
103  1.0200000000000D+00 -9.9361957660605D-01 -1.5312613398803D-01
104  1.0300000000000D+00 -9.8508507689456D-01 -1.7005495088736D-01
105  1.0400000000000D+00 -9.7621338843349D-01 -1.8721354135020D-01
106  1.0500000000000D+00 -9.6700948893180D-01 -2.0459313018428D-01
107  1.0600000000000D+00 -9.5747855275963D-01 -2.2218460637052D-01
108  1.0700000000000D+00 -9.4762595184753D-01 -2.3997852185563D-01
109  1.0800000000000D+00 -9.3745725652289D-01 -2.5796509064529D-01
110  1.0900000000000D+00 -9.2697823349807D-01 -2.7613419555298D-01
111  1.1000000000000D+00 -9.1619485370408D-01 -2.9447536861348D-01
112  1.1100000000000D+00 -9.0511328490244D-01 -3.1297781301447D-01
113  1.1200000000000D+00 -8.9373989328550D-01 -3.3163039997666D-01
114  1.1300000000000D+00 -8.8208124121350D-01 -3.5042167553630D-01
115  1.1400000000000D+00 -8.7014409266465D-01 -3.6933984891132D-01
116  1.1500000000000D+00 -8.5793540720794D-01 -3.8837280953084D-01
117  1.1600000000000D+00 -8.4546233878399D-01 -4.0750813119468D-01
118  1.1700000000000D+00 -8.3273223355861D-01 -4.2673307742024D-01
119  1.1800000000000D+00 -8.1975263434670D-01 -4.4603459605480D-01
120  1.1900000000000D+00 -8.0653127119715D-01 -4.6539934101083D-01
121  1.2000000000000D+00 -7.9307606149934D-01 -4.8481367264837D-01
122  1.2100000000000D+00 -7.7939510937028D-01 -5.0426366318297D-01
123  1.2200000000000D+00 -7.6549669994763D-01 -5.2373511297529D-01
124  1.2300000000000D+00 -7.5138929709768D-01 -5.4321355348097D-01
125  1.2400000000000D+00 -7.3708154236230D-01 -5.6268425224019D-01
126  1.2500000000000D+00 -7.2258224448831D-01 -5.8213224577067D-01
127  1.2600000000000D+00 -7.0790038118123D-01 -6.0154232789497D-01
128  1.2700000000000D+00 -6.9304509806813D-01 -6.2089905456296D-01
129  1.2800000000000D+00 -6.7802568747818D-01 -6.4018680624479D-01
130  1.2900000000000D+00 -6.6285160110845D-01 -6.5938974504272D-01
131  1.3000000000000D+00 -6.4753244389650D-01 -6.7849183446994D-01
132  1.3100000000000D+00 -6.3207794349187D-01 -6.9747692329584D-01
133  1.3200000000000D+00 -6.1649797969935D-01 -7.1632865911601D-01
134  1.3300000000000D+00 -6.0080255793307D-01 -7.3503056357838D-01
135  1.3400000000000D+00 -5.8500178592739D-01 -7.5356609083053D-01
136  1.3500000000000D+00 -5.6910592099292D-01 -7.7191849922640D-01
137  1.3600000000000D+00 -5.5312529295163D-01 -7.9007105667529D-01
138  1.3700000000000D+00 -5.3707033521419D-01 -8.0800695241330D-01
139  1.3800000000000D+00 -5.2095161192645D-01 -8.2570922884131D-01
140  1.3900000000000D+00 -5.0477969781198D-01 -8.4316108760058D-01
141  1.4000000000000D+00 -4.8856530729013D-01 -8.6034555574977D-01
142  1.4100000000000D+00 -4.7231918467854D-01 -8.7724576612990D-01
143  1.4200000000000D+00 -4.5605211131372D-01 -8.9384493201516D-01
144  1.4300000000000D+00 -4.3977499450474D-01 -9.1012612849555D-01
145  1.4400000000000D+00 -4.2349865117540D-01 -9.2607282226860D-01
146  1.4500000000000D+00 -4.0723404839047D-01 -9.4166827853451D-01
147  1.4600000000000D+00 -3.9099207715679D-01 -9.5689611339361D-01
148  1.4700000000000D+00 -3.7478366339654D-01 -9.7174001740111D-01
149  1.4800000000000D+00 -3.5861976931429D-01 -9.8618375670517D-01
150  1.4900000000000D+00 -3.4251121553886D-01 -1.0002115880908D+00
151  1.5000000000000D+00 -3.2646900027568D-01 -1.0138075064656D+00
152  1.5100000000000D+00 -3.1050382100280D-01 -1.0269563645623D+00
153  1.5200000000000D+00 -2.9462657110702D-01 -1.0396427084442D+00
154  1.5300000000000D+00 -2.7884788247043D-01 -1.0518518416330D+00
155  1.5400000000000D+00 -2.6317844359381D-01 -1.0635690819199D+00
156  1.5500000000000D+00 -2.4762879638517D-01 -1.0747802325320D+00
157  1.5600000000000D+00 -2.3220936378545D-01 -1.0854715078306D+00
158  1.5700000000000D+00 -2.1693055635835D-01 -1.0956292980193D+00
159  1.5800000000000D+00 -2.0180247911800D-01 -1.1052408174984D+00
160  1.5900000000000D+00 -1.8683536457168D-01 -1.1142931413032D+00
161  1.6000000000000D+00 -1.7203895155892D-01 -1.1227745761629D+00
162  1.6100000000000D+00 -1.5742324386144D-01 -1.1306729868492D+00
163  1.6200000000000D+00 -1.4299756932450D-01 -1.1379778553976D+00
164  1.6300000000000D+00 -1.2877164963843D-01 -1.1446779451607D+00
165  1.6400000000000D+00 -1.1475437790138D-01 -1.1507639496767D+00
166  1.6500000000000D+00 -1.0095508433050D-01 -1.1562257574248D+00
167  1.6600000000000D+00 -8.7382237282657D-02 -1.1610552366987D+00
168  1.6700000000000D+00 -7.4044717100676D-02 -1.1652435138473D+00
169  1.6800000000000D+00 -6.0950508611594D-02 -1.1687837428771D+00
170  1.6900000000000D+00 -4.8108011641945D-02 -1.1716683394729D+00
171  1.7000000000000D+00 -3.5524665590240D-02 -1.1738918576404D+00
172  1.7100000000000D+00 -2.3208364880638D-02 -1.1754480412942D+00
173  1.7200000000000D+00 -1.1165939726915D-02 -1.1763329588329D+00
174  1.7300000000000D+00  5.9524056671343D-04 -1.1765417104974D+00
175  1.7400000000000D+00  1.2069010292978D-02 -1.1760719723271D+00
176  1.7500000000000D+00  2.3248567342212D-02 -1.1749202737734D+00
177  1.7600000000000D+00  3.4128413755088D-02 -1.1730858844411D+00
178  1.7700000000000D+00  4.4702434883235D-02 -1.1705669877479D+00
179  1.7800000000000D+00  5.4965745272765D-02 -1.1673643178615D+00
180  1.7900000000000D+00  6.4913008772245D-02 -1.1634778707516D+00
181  1.8000000000000D+00  7.4539943042363D-02 -1.1589098113239D+00
182  1.8100000000000D+00  8.3842065191875D-02 -1.1536620663730D+00
183  1.8200000000000D+00  9.2815678804141D-02 -1.1477381854537D+00
184  1.8300000000000D+00  1.0145722787177D-01 -1.1411421335252D+00
185  1.8400000000000D+00  1.0976358068235D-01 -1.1338787952620D+00
186  1.8500000000000D+00  1.1773217504133D-01 -1.1259542581188D+00
187  1.8600000000000D+00  1.2536042488626D-01 -1.1173747018480D+00
188  1.8700000000000D+00  1.3264681407044D-01 -1.1081483818918D+00
189  1.8800000000000D+00  1.3958929395469D-01 -1.0982827588465D+00
190  1.8900000000000D+00  1.4618732808017D-01 -1.0877880869164D+00
191  1.9000000000000D+00  1.5243969942284D-01 -1.0766736096738D+00
192  1.9100000000000D+00  1.5834651918086D-01 -1.0649509674220D+00
193  1.9200000000000D+00  1.6390766704072D-01 -1.0526315922778D+00
194  1.9300000000000D+00  1.6912373446607D-01 -1.0397282258342D+00
195  1.9400000000000D+00  1.7399578298738D-01 -1.0262545488912D+00
196  1.9500000000000D+00  1.7852485674058D-01 -1.0122243790310D+00
197  1.9600000000000D+00  1.8271316595303D-01 -9.9765349128974D-01
198  1.9700000000000D+00  1.8656232670663D-01 -9.8255698448396D-01
199  1.9800000000000D+00  1.9007540619053D-01 -9.6695220739143D-01
200  1.9900000000000D+00  1.9325508588998D-01 -9.5085620182971D-01
201  2.0000000000000D+00  1.9610481291841D-01 -9.3428720416640D-01
202  2.0100000000000D+00  1.9862847712198D-01 -9.1726425527082D-01
203  2.0200000000000D+00  2.0082990012879D-01 -8.9980654321699D-01
204  2.0300000000000D+00  2.0271401885360D-01 -8.8193472884933D-01
205  2.0400000000000D+00  2.0428535555523D-01 -8.6366935230337D-01
206  2.0500000000000D+00  2.0554943453559D-01 -8.4503209526589D-01
207  2.0600000000000D+00  2.0651183215273D-01 -8.2604503489935D-01
208  2.0700000000000D+00  2.0717838636551D-01 -8.0673071593364D-01
209  2.0800000000000D+00  2.0755566628636D-01 -7.8711239454501D-01
210  2.0900000000000D+00  2.0765001936455D-01 -7.6721374806625D-01
211  2.1000000000000D+00  2.0746863843380D-01 -7.4705880709889D-01
212  2.1100000000000D+00  2.0701873467129D-01 -7.2667220835877D-01
213  2.1200000000000D+00  2.0630780278648D-01 -7.0607891097923D-01
214  2.1300000000000D+00  2.0534382247389D-01 -6.8530394075512D-01
215  2.1400000000000D+00  2.0413479288325D-01 -6.6437339506380D-01
216  2.1500000000000D+00  2.0268915377290D-01 -6.4331260205059D-01
217  2.1600000000000D+00  2.0101552629706D-01 -6.2214780038285D-01
218  2.1700000000000D+00  1.9912273123610D-01 -6.0090558320280D-01
219  2.1800000000000D+00  1.9701979695782D-01 -5.7961155564702D-01
220  2.1900000000000D+00  1.9471605519803D-01 -5.5829313871769D-01
221  2.2000000000000D+00  1.9222083943139D-01 -5.3697616897350D-01
222  2.2100000000000D+00  1.8954369899281D-01 -5.1568684500448D-01
223  2.2200000000000D+00  1.8669457764092D-01 -4.9445300145932D-01
224  2.2300000000000D+00  1.8368301664967D-01 -4.7329921399757D-01
225  2.2400000000000D+00  1.8051916065722D-01 -4.5225259671507D-01
226  2.2500000000000D+00  1.7721307108805D-01 -4.3133926632723D-01
227  2.2600000000000D+00  1.7377454141348D-01 -4.1058345945041D-01
228  2.2700000000000D+00  1.7021420963997D-01 -3.9001259420864D-01
229  2.2800000000000D+00  1.6654185761126D-01 -3.6965004166273D-01
230  2.2900000000000D+00  1.6276750475438D-01 -3.4951967418384D-01
231  2.3000000000000D+00  1.5890206818994D-01 -3.2964842487340D-01
232  2.3100000000000D+00  1.5495477988156D-01 -3.1005641130268D-01
233  2.3200000000000D+00  1.5093599225964D-01 -2.9076753656273D-01
234  2.3300000000000D+00  1.4685608912266D-01 -2.7180545456216D-01
235  2.3400000000000D+00  1.4272407562365D-01 -2.5318855185420D-01
236  2.3500000000000D+00  1.3855036980437D-01 -2.3493977737203D-01
237  2.3600000000000D+00  1.3434445725469D-01 -2.1707859335709D-01
238  2.3700000000000D+00  1.3011499757846D-01 -1.9962133565188D-01
239  2.3800000000000D+00  1.2587231449223D-01 -1.8258951612238D-01
240  2.3900000000000D+00  1.2162466878701D-01 -1.6599762439210D-01
241  2.4000000000000D+00  1.1738022886744D-01 -1.4985953850080D-01
242  2.4100000000000D+00  1.1314903446055D-01 -1.3419477989813D-01
243  2.4200000000000D+00  1.0893783990961D-01 -1.1901221767542D-01
244  2.4300000000000D+00  1.0475414576182D-01 -1.0432277560430D-01
245  2.4400000000000D+00  1.0060749374429D-01 -9.0143377917815D-02
246  2.4500000000000D+00  9.6502897612045D-02 -7.6476754379985D-02
247  2.4600000000000D+00  9.2447107855361D-02 -6.3330672460657D-02
248  2.4700000000000D+00  8.8448554875050D-02 -5.0717670543771D-02
249  2.4800000000000D+00  8.4510706742709D-02 -3.8635089301933D-02
250  2.4900000000000D+00  8.0639200124275D-02 -2.7086481933157D-02
251  2.5000000000000D+00  7.6841036553621D-02 -1.6079101020247D-02
252  2.5100000000000D+00  7.3118124025317D-02 -5.6050895547786D-03
253  2.5200000000000D+00  6.9474597099716D-02  4.3373427308624D-03
254  2.5300000000000D+00  6.5915615858053D-02  1.3747865152319D-02
255  2.5400000000000D+00  6.2442241431981D-02  2.2635877434496D-02
256  2.5500000000000D+00  5.9057273351250D-02  3.1007157215318D-02
257  2.5600000000000D+00  5.5764312491185D-02  3.8866755599894D-02
258  2.5700000000000D+00  5.2564069295276D-02  4.6223394286586D-02
259  2.5800000000000D+00  4.9458416716596D-02  5.3084650709571D-02
260  2.5900000000000D+00  4.6450183145902D-02  5.9457445332606D-02
261  2.6000000000000D+00  4.3539372544444D-02  6.5351535495569D-02
262  2.6100000000000D+00  4.0727037111589D-02  7.0775935789651D-02
263  2.6200000000000D+00  3.8015198084147D-02  7.5739132626530D-02
264  2.6300000000000D+00  3.5403340044937D-02  8.0251816122857D-02
265  2.6400000000000D+00  3.2891719686098D-02  8.4324301676191D-02
266  2.6500000000000D+00  3.0481417723103D-02  8.7966639802349D-02
267  2.6600000000000D+00  2.8171653934111D-02  9.1190200577990D-02
268  2.6700000000000D+00  2.5961881111989D-02  9.4006447764239D-02
269  2.6800000000000D+00  2.3852268975421D-02  9.6426804230922D-02
270  2.6900000000000D+00  2.1841853402166D-02  9.8463286890220D-02
271  2.7000000000000D+00  1.9929352565890D-02  1.0012824969671D-01
272  2.7100000000000D+00  1.8114085362468D-02  1.0143422204527D-01
273  2.7200000000000D+00  1.6394936233884D-02  1.0239394611161D-01
274  2.7300000000000D+00  1.4769992305704D-02  1.0302034543882D-01
275  2.7400000000000D+00  1.3237820124890D-02  1.0332670647158D-01
276  2.7500000000000D+00  1.1797124748958D-02  1.0332669448185D-01
277  2.7600000000000D+00  1.0445500535687D-02  1.0303342932874D-01
278  2.7700000000000D+00  9.1809459748589D-03  1.0246060622116D-01
279  2.7800000000000D+00  8.0017668448411D-03  1.0162286045741D-01
280  2.7900000000000D+00  6.9053603090811D-03  1.0053335986812D-01
281  2.8000000000000D+00  5.8893133627783D-03  9.9205979802167D-02
282  2.8100000000000D+00  4.9513411090688D-03  9.7655611796514D-02
283  2.8200000000000D+00  4.0888731404582D-03  9.5896146975767D-02
284  2.8300000000000D+00  3.2991652126993D-03  9.3941057542569D-02
285  2.8400000000000D+00  2.5795336631102D-03  9.1804910075419D-02
286  2.8500000000000D+00  1.9272567047547D-03  8.9502886606389D-02
287  2.8600000000000D+00  1.3394772926914D-03  8.7047538309927D-02
288  2.8700000000000D+00  8.1332541410343D-04  8.4452872566466D-02
289  2.8800000000000D+00  3.4577120565590D-04  8.1734711761423D-02
290  2.8900000000000D+00 -6.6016617510242D-05  7.8905467354049D-02
291  2.9000000000000D+00 -4.2495532334689D-04  7.5978288814012D-02
292  2.9100000000000D+00 -7.3415917551219D-04  7.2967828740985D-02
293  2.9200000000000D+00 -9.9670564990924D-04  6.9888300064270D-02
294  2.9300000000000D+00 -1.2153071315936D-03  6.6751030401054D-02
295  2.9400000000000D+00 -1.3929321725502D-03  6.3569090017537D-02
296  2.9500000000000D+00 -1.5330309282869D-03  6.0358139107548D-02
297  2.9600000000000D+00 -1.6380812473147D-03  5.7128379172071D-02
298  2.9700000000000D+00 -1.7108594383787D-03  5.3891587787213D-02
299  2.9800000000000D+00 -1.7544948193309D-03  5.0661209458659D-02
300  2.9900000000000D+00 -1.7720262244569D-03  4.7450229102996D-02
301  3.0000000000000D+00 -1.7656325714907D-03  4.4267588458855D-02
302  3.0100000000000D+00 -1.7379846308029D-03  4.1124481872373D-02
303  3.0200000000000D+00 -1.6924426182689D-03  3.8034953623294D-02
304  3.0300000000000D+00 -1.6310030506610D-03  3.5007354427838D-02
305  3.0400000000000D+00 -1.5558304245143D-03  3.2050715024829D-02
306  3.0500000000000D+00 -1.4694849181016D-03  2.9175644515249D-02
307  3.0600000000000D+00 -1.3750114757618D-03  2.6394609559204D-02
308  3.0700000000000D+00 -1.2735789053677D-03  2.3712845730584D-02
309  3.0800000000000D+00 -1.1672089184625D-03  2.1138863362852D-02
310  3.0900000000000D+00 -1.0585172417942D-03  1.8683333951125D-02
311  3.1000000000000D+00 -9.4934738873279D-04  1.6354112516525D-02
312  3.1100000000000D+00 -8.4070392498080D-04  1.4155994470456D-02
313  3.1200000000000D+00 -7.3418764576857D-04  1.2095944453506D-02
314  3.1300000000000D+00 -6.3237986302318D-04  1.0184363417574D-02
315  3.1400000000000D+00 -5.3580391781935D-04  8.4244392952463D-03
316  3.1500000000000D+00 -4.4530513512198D-04  6.8204882960844D-03
317  3.1600000000000D+00 -3.6206409404809D-04  5.3779959831262D-03
318  3.1700000000000D+00 -2.8832118382173D-04  4.1060683188995D-03
319  3.1800000000000D+00 -2.2348211866939D-04  3.0041313897659D-03
320  3.1900000000000D+00 -1.6813593285974D-04  2.0756534873203D-03
321  3.2000000000000D+00 -1.2459763204461D-04  1.3414399039528D-03
322  3.2100000000000D+00 -9.5961059268433D-05  8.3009680366095D-04
323  3.2200000000000D+00 -7.5167973327096D-05  4.6797426922566D-04
324  3.2300000000000D+00 -5.9973745609830D-05  2.2984700831947D-04
325  3.2400000000000D+00 -4.5334875085074D-05  8.2509912698490D-05
326  3.2500000000000D+00 -2.8966952337267D-05  1.2652366440166D-07
327  3.2600000000000D+00 -1.5068446424698D-05 -2.5487631520159D-05
328  3.2700000000000D+00 -4.0414128509343D-06 -1.3251577872729D-05
329  3.2800000000000D+00  2.0013486055516D-06 -5.2358467662781D-06
330  3.2900000000000D+00  3.5151493327758D-06 -9.1961906166399D-06
331  3.3000000000000D+00  2.8600737704322D-06 -7.4824085922337D-06
332  3.3100000000000D+00  9.2243209850459D-07 -2.4132293128089D-06
333  3.3200000000000D+00  0.0000000000000D+00  0.0000000000000D+00
334  3.3300000000000D+00  0.0000000000000D+00  0.0000000000000D+00
335  3.3400000000000D+00  0.0000000000000D+00  0.0000000000000D+00
336  3.3500000000000D+00  0.0000000000000D+00  0.0000000000000D+00
337  3.3600000000000D+00  0.0000000000000D+00  0.0000000000000D+00
338  3.3700000000000D+00  0.0000000000000D+00  0.0000000000000D+00
339  3.3800000000000D+00  0.0000000000000D+00  0.0000000000000D+00
340  3.3900000000000D+00  0.0000000000000D+00  0.0000000000000D+00
341  3.4000000000000D+00  0.0000000000000D+00  0.0000000000000D+00
342  3.4100000000000D+00  0.0000000000000D+00  0.0000000000000D+00
343  3.4200000000000D+00  0.0000000000000D+00  0.0000000000000D+00
344  3.4300000000000D+00  0.0000000000000D+00  0.0000000000000D+00
345  3.4400000000000D+00  0.0000000000000D+00  0.0000000000000D+00
346  3.4500000000000D+00  0.0000000000000D+00  0.0000000000000D+00
347  3.4600000000000D+00  0.0000000000000D+00  0.0000000000000D+00
348  3.4700000000000D+00  0.0000000000000D+00  0.0000000000000D+00
349  3.4800000000000D+00  0.0000000000000D+00  0.0000000000000D+00
350  3.4900000000000D+00  0.0000000000000D+00  0.0000000000000D+00
351  3.5000000000000D+00  0.0000000000000D+00  0.0000000000000D+00
352  3.5100000000000D+00  0.0000000000000D+00  0.0000000000000D+00
353  3.5200000000000D+00  0.0000000000000D+00  0.0000000000000D+00
354  3.5300000000000D+00  0.0000000000000D+00  0.0000000000000D+00
355  3.5400000000000D+00  0.0000000000000D+00  0.0000000000000D+00
356  3.5500000000000D+00  0.0000000000000D+00  0.0000000000000D+00
357  3.5600000000000D+00  0.0000000000000D+00  0.0000000000000D+00
358  3.5700000000000D+00  0.0000000000000D+00  0.0000000000000D+00
359  3.5800000000000D+00  0.0000000000000D+00  0.0000000000000D+00
360  3.5900000000000D+00  0.0000000000000D+00  0.0000000000000D+00
361  3.6000000000000D+00  0.0000000000000D+00  0.0000000000000D+00
362  3.6100000000000D+00  0.0000000000000D+00  0.0000000000000D+00
363  3.6200000000000D+00  0.0000000000000D+00  0.0000000000000D+00
364  3.6300000000000D+00  0.0000000000000D+00  0.0000000000000D+00
365  3.6400000000000D+00  0.0000000000000D+00  0.0000000000000D+00
366  3.6500000000000D+00  0.0000000000000D+00  0.0000000000000D+00
367  3.6600000000000D+00  0.0000000000000D+00  0.0000000000000D+00
368  3.6700000000000D+00  0.0000000000000D+00  0.0000000000000D+00
369  3.6800000000000D+00  0.0000000000000D+00  0.0000000000000D+00
370  3.6900000000000D+00  0.0000000000000D+00  0.0000000000000D+00
371  3.7000000000000D+00  0.0000000000000D+00  0.0000000000000D+00
372  3.7100000000000D+00  0.0000000000000D+00  0.0000000000000D+00
373  3.7200000000000D+00  0.0000000000000D+00  0.0000000000000D+00
374  3.7300000000000D+00  0.0000000000000D+00  0.0000000000000D+00
375  3.7400000000000D+00  0.0000000000000D+00  0.0000000000000D+00
376  3.7500000000000D+00  0.0000000000000D+00  0.0000000000000D+00
377  3.7600000000000D+00  0.0000000000000D+00  0.0000000000000D+00
378  3.7700000000000D+00  0.0000000000000D+00  0.0000000000000D+00
379  3.7800000000000D+00  0.0000000000000D+00  0.0000000000000D+00
380  3.7900000000000D+00  0.0000000000000D+00  0.0000000000000D+00
381  3.8000000000000D+00  0.0000000000000D+00  0.0000000000000D+00
382  3.8100000000000D+00  0.0000000000000D+00  0.0000000000000D+00
383  3.8200000000000D+00  0.0000000000000D+00  0.0000000000000D+00
384  3.8300000000000D+00  0.0000000000000D+00  0.0000000000000D+00
385  3.8400000000000D+00  0.0000000000000D+00  0.0000000000000D+00
386  3.8500000000000D+00  0.0000000000000D+00  0.0000000000000D+00
387  3.8600000000000D+00  0.0000000000000D+00  0.0000000000000D+00
388  3.8700000000000D+00  0.0000000000000D+00  0.0000000000000D+00
389  3.8800000000000D+00  0.0000000000000D+00  0.0000000000000D+00
390  3.8900000000000D+00  0.0000000000000D+00  0.0000000000000D+00
391  3.9000000000000D+00  0.0000000000000D+00  0.0000000000000D+00
392  3.9100000000000D+00  0.0000000000000D+00  0.0000000000000D+00
393  3.9200000000000D+00  0.0000000000000D+00  0.0000000000000D+00
394  3.9300000000000D+00  0.0000000000000D+00  0.0000000000000D+00
395  3.9400000000000D+00  0.0000000000000D+00  0.0000000000000D+00
396  3.9500000000000D+00  0.0000000000000D+00  0.0000000000000D+00
397  3.9600000000000D+00  0.0000000000000D+00  0.0000000000000D+00
398  3.9700000000000D+00  0.0000000000000D+00  0.0000000000000D+00
399  3.9800000000000D+00  0.0000000000000D+00  0.0000000000000D+00
400  3.9900000000000D+00  0.0000000000000D+00  0.0000000000000D+00
401  4.0000000000000D+00  0.0000000000000D+00  0.0000000000000D+00
402  4.0100000000000D+00  0.0000000000000D+00  0.0000000000000D+00
403  4.0200000000000D+00  0.0000000000000D+00  0.0000000000000D+00
404  4.0300000000000D+00  0.0000000000000D+00  0.0000000000000D+00
405  4.0400000000000D+00  0.0000000000000D+00  0.0000000000000D+00
406  4.0500000000000D+00  0.0000000000000D+00  0.0000000000000D+00
407  4.0600000000000D+00  0.0000000000000D+00  0.0000000000000D+00
408  4.0700000000000D+00  0.0000000000000D+00  0.0000000000000D+00
409  4.0800000000000D+00  0.0000000000000D+00  0.0000000000000D+00
410  4.0900000000000D+00  0.0000000000000D+00  0.0000000000000D+00
411  4.1000000000000D+00  0.0000000000000D+00  0.0000000000000D+00
412  4.1100000000000D+00  0.0000000000000D+00  0.0000000000000D+00
413  4.1200000000000D+00  0.0000000000000D+00  0.0000000000000D+00
414  4.1300000000000D+00  0.0000000000000D+00  0.0000000000000D+00
415  4.1400000000000D+00  0.0000000000000D+00  0.0000000000000D+00
416  4.1500000000000D+00  0.0000000000000D+00  0.0000000000000D+00
417  4.1600000000000D+00  0.0000000000000D+00  0.0000000000000D+00
418  4.1700000000000D+00  0.0000000000000D+00  0.0000000000000D+00
419  4.1800000000000D+00  0.0000000000000D+00  0.0000000000000D+00
420  4.1900000000000D+00  0.0000000000000D+00  0.0000000000000D+00
421  4.2000000000000D+00  0.0000000000000D+00  0.0000000000000D+00
422  4.2100000000000D+00  0.0000000000000D+00  0.0000000000000D+00
423  4.2200000000000D+00  0.0000000000000D+00  0.0000000000000D+00
424  4.2300000000000D+00  0.0000000000000D+00  0.0000000000000D+00
425  4.2400000000000D+00  0.0000000000000D+00  0.0000000000000D+00
426  4.2500000000000D+00  0.0000000000000D+00  0.0000000000000D+00
427  4.2600000000000D+00  0.0000000000000D+00  0.0000000000000D+00
428  4.2700000000000D+00  0.0000000000000D+00  0.0000000000000D+00
429  4.2800000000000D+00  0.0000000000000D+00  0.0000000000000D+00
430  4.2900000000000D+00  0.0000000000000D+00  0.0000000000000D+00
431  4.3000000000000D+00  0.0000000000000D+00  0.0000000000000D+00
432  4.3100000000000D+00  0.0000000000000D+00  0.0000000000000D+00
433  4.3200000000000D+00  0.0000000000000D+00  0.0000000000000D+00
434  4.3300000000000D+00  0.0000000000000D+00  0.0000000000000D+00
435  4.3400000000000D+00  0.0000000000000D+00  0.0000000000000D+00
436  4.3500000000000D+00  0.0000000000000D+00  0.0000000000000D+00
437  4.3600000000000D+00  0.0000000000000D+00  0.0000000000000D+00
438  4.3700000000000D+00  0.0000000000000D+00  0.0000000000000D+00
439  4.3800000000000D+00  0.0000000000000D+00  0.0000000000000D+00
440  4.3900000000000D+00  0.0000000000000D+00  0.0000000000000D+00
441  4.4000000000000D+00  0.0000000000000D+00  0.0000000000000D+00
442  4.4100000000000D+00  0.0000000000000D+00  0.0000000000000D+00
443  4.4200000000000D+00  0.0000000000000D+00  0.0000000000000D+00