V     ONCVPSP-3.3.0  r_core=   1.31479   1.31479   1.66904
23.0000     13.0000      171102    zatom,zion,pspd
8   -1012   2     4   600     0    pspcod,pspxc,lmax,lloc,mmax,r2well
5.99000000  5.00000000  0.00000000    rchrg fchrg qchrg
2     2     2     0     0    nproj
1     1           extension_switch
0                         1.1788804663059D+01  1.3866539821785D+00
1  0.0000000000000D+00 -1.6783854306368D-09  5.5560167577795D-09
2  1.0000000000000D-02  9.1447164142966D-02 -4.4483165047793D-02
3  2.0000000000000D-02  1.8259054359094D-01 -8.8518249198054D-02
4  3.0000000000000D-02  2.7312837404914D-01 -1.3166243798558D-01
5  4.0000000000000D-02  3.6276290592427D-01 -1.7348336629924D-01
6  5.0000000000000D-02  4.5120234686659D-01 -2.1356413573394D-01
7  6.0000000000000D-02  5.3816272776144D-01 -2.5150808719088D-01
8  7.0000000000000D-02  6.2336966866440D-01 -2.8694325379800D-01
9  8.0000000000000D-02  7.0656002285217D-01 -3.1952642477842D-01
10  9.0000000000000D-02  7.8748337920417D-01 -3.4894675765679D-01
11  1.0000000000000D-01  8.6590340550090D-01 -3.7492888404390D-01
12  1.1000000000000D-01  9.4159901788329D-01 -3.9723546304203D-01
13  1.2000000000000D-01  1.0143653646168D+00 -4.1566914591470D-01
14  1.3000000000000D-01  1.0840146153929D+00 -4.3007392589590D-01
15  1.4000000000000D-01  1.1503765506271D+00 -4.4033585769877D-01
16  1.5000000000000D-01  1.2132989485158D+00 -4.4638314223218D-01
17  1.6000000000000D-01  1.2726477709431D+00 -4.4818558305697D-01
18  1.7000000000000D-01  1.3283071526163D+00 -4.4575343201448D-01
19  1.8000000000000D-01  1.3801792010039D+00 -4.3913565204826D-01
20  1.9000000000000D-01  1.4281836176927D+00 -4.2841763532698D-01
21  2.0000000000000D-01  1.4722571546168D+00 -4.1371842418309D-01
22  2.1000000000000D-01  1.5123529211931D+00 -3.9518749093947D-01
23  2.2000000000000D-01  1.5484395606747D+00 -3.7300114025150D-01
24  2.3000000000000D-01  1.5805003159681D+00 -3.4735860400652D-01
25  2.4000000000000D-01  1.6085320067177D+00 -3.1847790398023D-01
26  2.5000000000000D-01  1.6325439406065D+00 -2.8659156125269D-01
27  2.6000000000000D-01  1.6525567825445D+00 -2.5194223376247D-01
28  2.7000000000000D-01  1.6686014056905D+00 -2.1477836427954D-01
29  2.8000000000000D-01  1.6807177480838D+00 -1.7534992048116D-01
30  2.9000000000000D-01  1.6889536980417D+00 -1.3390430672556D-01
31  3.0000000000000D-01  1.6933640304241D+00 -9.0682523566292D-02
32  3.1000000000000D-01  1.6940094143916D+00 -4.5915646090876D-02
33  3.2000000000000D-01  1.6909555114145D+00  1.7831411590860D-04
34  3.3000000000000D-01  1.6842721800626D+00  4.7397106085860D-02
35  3.4000000000000D-01  1.6740328015532D+00  9.5556446952970D-02
36  3.5000000000000D-01  1.6603137372091D+00  1.4449170063962D-01
37  3.6000000000000D-01  1.6431939259292D+00  1.9405899888125D-01
38  3.7000000000000D-01  1.6227546265493D+00  2.4413578662989D-01
39  3.8000000000000D-01  1.5990793066473D+00  2.9462078517786D-01
40  3.9000000000000D-01  1.5722536759611D+00  3.4543337784056D-01
41  4.0000000000000D-01  1.5423658592277D+00  3.9651243452267D-01
42  4.1000000000000D-01  1.5095066999647D+00  4.4781460275450D-01
43  4.2000000000000D-01  1.4737701835698D+00  4.9931210361921D-01
44  4.3000000000000D-01  1.4352539651718D+00  5.5099008119092D-01
45  4.4000000000000D-01  1.3940599849807D+00  6.0284356347983D-01
46  4.5000000000000D-01  1.3502951515188D+00  6.5487410124720D-01
47  4.6000000000000D-01  1.3040720711026D+00  7.0708615825388D-01
48  4.7000000000000D-01  1.2555098003475D+00  7.5948333238702D-01
49  4.8000000000000D-01  1.2047345973030D+00  8.1206449155624D-01
50  4.9000000000000D-01  1.1518806461383D+00  8.6481991115788D-01
51  5.0000000000000D-01  1.0970907300937D+00  9.1772750120643D-01
52  5.1000000000000D-01  1.0405168277166D+00  9.7074921087838D-01
53  5.2000000000000D-01  9.8232060820150D-01  1.0238276961933D+00
54  5.3000000000000D-01  9.2267380295813D-01  1.0768833328873D+00
55  5.4000000000000D-01  8.6175843231223D-01  1.1298116512497D+00
56  5.5000000000000D-01  7.9976686848562D-01  1.1824812628858D+00
57  5.6000000000000D-01  7.3690171866196D-01  1.2347323411312D+00
58  5.7000000000000D-01  6.7337551499491D-01  1.2863757072884D+00
59  5.8000000000000D-01  6.0941020178310D-01  1.3371925642044D+00
60  5.9000000000000D-01  5.4523641370224D-01  1.3869349070166D+00
61  6.0000000000000D-01  4.8109254283604D-01  1.4353266285330D+00
62  6.1000000000000D-01  4.1722359627753D-01  1.4820653236925D+00
63  6.2000000000000D-01  3.5387985014991D-01  1.5268247843048D+00
64  6.3000000000000D-01  2.9131530999446D-01  1.5692581618690D+00
65  6.4000000000000D-01  2.2978599150055D-01  1.6090017630284D+00
66  6.5000000000000D-01  1.6954803941167D-01  1.6456794294419D+00
67  6.6000000000000D-01  1.1085570611548D-01  1.6789074415959D+00
68  6.7000000000000D-01  5.3959214782982D-02  1.7082998747791D+00
69  6.8000000000000D-01 -8.9746507380910D-04  1.7334743252118D+00
70  6.9000000000000D-01 -5.3478899153989D-02  1.7540579153259D+00
71  7.0000000000000D-01 -1.0356049444645D-01  1.7696934797175D+00
72  7.1000000000000D-01 -1.5093079565124D-01  1.7800458274258D+00
73  7.2000000000000D-01 -1.9539373672089D-01  1.7848079720829D+00
74  7.3000000000000D-01 -2.3677081184491D-01  1.7837072192246D+00
75  7.4000000000000D-01 -2.7490313035940D-01  1.7765109997376D+00
76  7.5000000000000D-01 -3.0965332083705D-01  1.7630323400703D+00
77  7.6000000000000D-01 -3.4090725100044D-01  1.7431348634478D+00
78  7.7000000000000D-01 -3.6857553209701D-01  1.7167372218979D+00
79  7.8000000000000D-01 -3.9259477894085D-01  1.6838168663089D+00
80  7.9000000000000D-01 -4.1292859994334D-01  1.6444130709329D+00
81  8.0000000000000D-01 -4.2956829507807D-01  1.5986291395925D+00
82  8.1000000000000D-01 -4.4253324378373D-01  1.5466337331230D+00
83  8.2000000000000D-01 -4.5187096926130D-01  1.4886612711536D+00
84  8.3000000000000D-01 -4.5765687038535D-01  1.4250113759545D+00
85  8.4000000000000D-01 -4.5999361745112D-01  1.3560473415006D+00
86  8.5000000000000D-01 -4.5901021313630D-01  1.2821936268940D+00
87  8.6000000000000D-01 -4.5486072528310D-01  1.2039323895485D+00
88  8.7000000000000D-01 -4.4772270331373D-01  1.1217990898065D+00
89  8.8000000000000D-01 -4.3779529519124D-01  1.0363772146420D+00
90  8.9000000000000D-01 -4.2529708673861D-01  9.4829218351552D-01
91  9.0000000000000D-01 -4.1046368974613D-01  8.5820451401894D-01
92  9.1000000000000D-01 -3.9354510954641D-01  7.6680233840730D-01
93  9.2000000000000D-01 -3.7480292654089D-01  6.7479337421710D-01
94  9.3000000000000D-01 -3.5450732945028D-01  5.8289646268221D-01
95  9.4000000000000D-01 -3.3293404077359D-01  4.9183279739071D-01
96  9.5000000000000D-01 -3.1036117701125D-01  4.0231697236187D-01
97  9.6000000000000D-01 -2.8706608761226D-01  3.1504798338022D-01
98  9.7000000000000D-01 -2.6332221730668D-01  2.3070031888858D-01
99  9.8000000000000D-01 -2.3939603643683D-01  1.4991527685118D-01
100  9.9000000000000D-01 -2.1554408313640D-01  7.3292641860643D-02
101  1.0000000000000D+00 -1.9201015970150D-01  1.3828522944275D-03
102  1.0100000000000D+00 -1.6902272329641D-01 -6.5320219340641D-02
103  1.0200000000000D+00 -1.4679250815114D-01 -1.2638575887288D-01
104  1.0300000000000D+00 -1.2551041301728D-01 -1.8145167217204D-01
105  1.0400000000000D+00 -1.0534568340442D-01 -2.3022932564729D-01
106  1.0500000000000D+00 -8.6444413449348D-02 -2.7250728957121D-01
107  1.0600000000000D+00 -6.8928387239377D-02 -3.0815402389904D-01
108  1.0700000000000D+00 -5.2894273838992D-02 -3.3711946360542D-01
109  1.0800000000000D+00 -3.8413184483835D-02 -3.5943547860321D-01
110  1.0900000000000D+00 -2.5530594855919D-02 -3.7521520063642D-01
111  1.1000000000000D+00 -1.4266628623579D-02 -3.8465123057681D-01
112  1.1100000000000D+00 -4.6166930340455D-03 -3.8801275643377D-01
113  1.1200000000000D+00  3.4475491642913D-03 -3.8564163276600D-01
114  1.1300000000000D+00  9.9768918779914D-03 -3.7794748685476D-01
115  1.1400000000000D+00  1.5043008853990D-02 -3.6540193749434D-01
116  1.1500000000000D+00  1.8736619110585D-02 -3.4853202562042D-01
117  1.1600000000000D+00  2.1165430730394D-02 -3.2791297134353D-01
118  1.1700000000000D+00  2.2451903744875D-02 -3.0416038737951D-01
119  1.1800000000000D+00  2.2730865523864D-02 -2.7792204856011D-01
120  1.1900000000000D+00  2.2147068686433D-02 -2.4986952691187D-01
121  1.2000000000000D+00  2.0852519168144D-02 -2.2068902768484D-01
122  1.2100000000000D+00  1.9004458836343D-02 -1.9107468895927D-01
123  1.2200000000000D+00  1.6761758502358D-02 -1.6171592840456D-01
124  1.2300000000000D+00  1.4279718583159D-02 -1.3327885554889D-01
125  1.2400000000000D+00  1.1704647413806D-02 -1.0638734925116D-01
126  1.2500000000000D+00  9.1702512928779D-03 -8.1611014113273D-02
127  1.2600000000000D+00  6.7955444243810D-03 -5.9458859107430D-02
128  1.2700000000000D+00  4.6828080625124D-03 -4.0374531850567D-02
129  1.2800000000000D+00  2.9148676315964D-03 -2.4723919004771D-02
130  1.2900000000000D+00  1.5427535716288D-03 -1.2710838900222D-02
131  1.3000000000000D+00  6.4116247671268D-04 -4.7880076684517D-03
132  1.3100000000000D+00  2.2412049567379D-04 -1.0406926101804D-03
133  1.3200000000000D+00  6.5596976298088D-05  2.5413869760239D-05
134  1.3300000000000D+00  1.8196603268870D-06  9.1485838150866D-06
135  1.3400000000000D+00 -4.6061218597842D-06 -4.0952274903457D-05
136  1.3500000000000D+00  1.1901990114815D-06  4.2499304108828D-06
137  1.3600000000000D+00  6.9990207369064D-07  3.2000779904469D-06
138  1.3700000000000D+00 -3.7836094853526D-07  8.8893489162341D-07
139  1.3800000000000D+00  0.0000000000000D+00  0.0000000000000D+00
140  1.3900000000000D+00  0.0000000000000D+00  0.0000000000000D+00
141  1.4000000000000D+00  0.0000000000000D+00  0.0000000000000D+00
142  1.4100000000000D+00  0.0000000000000D+00  0.0000000000000D+00
143  1.4200000000000D+00  0.0000000000000D+00  0.0000000000000D+00
144  1.4300000000000D+00  0.0000000000000D+00  0.0000000000000D+00
145  1.4400000000000D+00  0.0000000000000D+00  0.0000000000000D+00
146  1.4500000000000D+00  0.0000000000000D+00  0.0000000000000D+00
147  1.4600000000000D+00  0.0000000000000D+00  0.0000000000000D+00
148  1.4700000000000D+00  0.0000000000000D+00  0.0000000000000D+00
149  1.4800000000000D+00  0.0000000000000D+00  0.0000000000000D+00
150  1.4900000000000D+00  0.0000000000000D+00  0.0000000000000D+00
151  1.5000000000000D+00  0.0000000000000D+00  0.0000000000000D+00
152  1.5100000000000D+00  0.0000000000000D+00  0.0000000000000D+00
153  1.5200000000000D+00  0.0000000000000D+00  0.0000000000000D+00
154  1.5300000000000D+00  0.0000000000000D+00  0.0000000000000D+00
155  1.5400000000000D+00  0.0000000000000D+00  0.0000000000000D+00
156  1.5500000000000D+00  0.0000000000000D+00  0.0000000000000D+00
157  1.5600000000000D+00  0.0000000000000D+00  0.0000000000000D+00
158  1.5700000000000D+00  0.0000000000000D+00  0.0000000000000D+00
159  1.5800000000000D+00  0.0000000000000D+00  0.0000000000000D+00
160  1.5900000000000D+00  0.0000000000000D+00  0.0000000000000D+00
161  1.6000000000000D+00  0.0000000000000D+00  0.0000000000000D+00
162  1.6100000000000D+00  0.0000000000000D+00  0.0000000000000D+00
163  1.6200000000000D+00  0.0000000000000D+00  0.0000000000000D+00
164  1.6300000000000D+00  0.0000000000000D+00  0.0000000000000D+00
165  1.6400000000000D+00  0.0000000000000D+00  0.0000000000000D+00
166  1.6500000000000D+00  0.0000000000000D+00  0.0000000000000D+00
167  1.6600000000000D+00  0.0000000000000D+00  0.0000000000000D+00
168  1.6700000000000D+00  0.0000000000000D+00  0.0000000000000D+00
169  1.6800000000000D+00  0.0000000000000D+00  0.0000000000000D+00
170  1.6900000000000D+00  0.0000000000000D+00  0.0000000000000D+00
171  1.7000000000000D+00  0.0000000000000D+00  0.0000000000000D+00
172  1.7100000000000D+00  0.0000000000000D+00  0.0000000000000D+00
173  1.7200000000000D+00  0.0000000000000D+00  0.0000000000000D+00
174  1.7300000000000D+00  0.0000000000000D+00  0.0000000000000D+00
175  1.7400000000000D+00  0.0000000000000D+00  0.0000000000000D+00
176  1.7500000000000D+00  0.0000000000000D+00  0.0000000000000D+00
177  1.7600000000000D+00  0.0000000000000D+00  0.0000000000000D+00
178  1.7700000000000D+00  0.0000000000000D+00  0.0000000000000D+00
179  1.7800000000000D+00  0.0000000000000D+00  0.0000000000000D+00
180  1.7900000000000D+00  0.0000000000000D+00  0.0000000000000D+00
181  1.8000000000000D+00  0.0000000000000D+00  0.0000000000000D+00
182  1.8100000000000D+00  0.0000000000000D+00  0.0000000000000D+00
183  1.8200000000000D+00  0.0000000000000D+00  0.0000000000000D+00
184  1.8300000000000D+00  0.0000000000000D+00  0.0000000000000D+00
185  1.8400000000000D+00  0.0000000000000D+00  0.0000000000000D+00
186  1.8500000000000D+00  0.0000000000000D+00  0.0000000000000D+00
187  1.8600000000000D+00  0.0000000000000D+00  0.0000000000000D+00
188  1.8700000000000D+00  0.0000000000000D+00  0.0000000000000D+00
189  1.8800000000000D+00  0.0000000000000D+00  0.0000000000000D+00
190  1.8900000000000D+00  0.0000000000000D+00  0.0000000000000D+00
191  1.9000000000000D+00  0.0000000000000D+00  0.0000000000000D+00
192  1.9100000000000D+00  0.0000000000000D+00  0.0000000000000D+00
193  1.9200000000000D+00  0.0000000000000D+00  0.0000000000000D+00
194  1.9300000000000D+00  0.0000000000000D+00  0.0000000000000D+00
195  1.9400000000000D+00  0.0000000000000D+00  0.0000000000000D+00
196  1.9500000000000D+00  0.0000000000000D+00  0.0000000000000D+00
197  1.9600000000000D+00  0.0000000000000D+00  0.0000000000000D+00
198  1.9700000000000D+00  0.0000000000000D+00  0.0000000000000D+00
199  1.9800000000000D+00  0.0000000000000D+00  0.0000000000000D+00
200  1.9900000000000D+00  0.0000000000000D+00  0.0000000000000D+00
201  2.0000000000000D+00  0.0000000000000D+00  0.0000000000000D+00
202  2.0100000000000D+00  0.0000000000000D+00  0.0000000000000D+00
203  2.0200000000000D+00  0.0000000000000D+00  0.0000000000000D+00
204  2.0300000000000D+00  0.0000000000000D+00  0.0000000000000D+00
205  2.0400000000000D+00  0.0000000000000D+00  0.0000000000000D+00
206  2.0500000000000D+00  0.0000000000000D+00  0.0000000000000D+00
207  2.0600000000000D+00  0.0000000000000D+00  0.0000000000000D+00
208  2.0700000000000D+00  0.0000000000000D+00  0.0000000000000D+00
209  2.0800000000000D+00  0.0000000000000D+00  0.0000000000000D+00
210  2.0900000000000D+00  0.0000000000000D+00  0.0000000000000D+00
211  2.1000000000000D+00  0.0000000000000D+00  0.0000000000000D+00
212  2.1100000000000D+00  0.0000000000000D+00  0.0000000000000D+00
213  2.1200000000000D+00  0.0000000000000D+00  0.0000000000000D+00
214  2.1300000000000D+00  0.0000000000000D+00  0.0000000000000D+00
215  2.1400000000000D+00  0.0000000000000D+00  0.0000000000000D+00
216  2.1500000000000D+00  0.0000000000000D+00  0.0000000000000D+00
217  2.1600000000000D+00  0.0000000000000D+00  0.0000000000000D+00
218  2.1700000000000D+00  0.0000000000000D+00  0.0000000000000D+00
219  2.1800000000000D+00  0.0000000000000D+00  0.0000000000000D+00
220  2.1900000000000D+00  0.0000000000000D+00  0.0000000000000D+00
221  2.2000000000000D+00  0.0000000000000D+00  0.0000000000000D+00
222  2.2100000000000D+00  0.0000000000000D+00  0.0000000000000D+00
223  2.2200000000000D+00  0.0000000000000D+00  0.0000000000000D+00
224  2.2300000000000D+00  0.0000000000000D+00  0.0000000000000D+00
225  2.2400000000000D+00  0.0000000000000D+00  0.0000000000000D+00
226  2.2500000000000D+00  0.0000000000000D+00  0.0000000000000D+00
227  2.2600000000000D+00  0.0000000000000D+00  0.0000000000000D+00
228  2.2700000000000D+00  0.0000000000000D+00  0.0000000000000D+00
229  2.2800000000000D+00  0.0000000000000D+00  0.0000000000000D+00
230  2.2900000000000D+00  0.0000000000000D+00  0.0000000000000D+00
231  2.3000000000000D+00  0.0000000000000D+00  0.0000000000000D+00
232  2.3100000000000D+00  0.0000000000000D+00  0.0000000000000D+00
233  2.3200000000000D+00  0.0000000000000D+00  0.0000000000000D+00
234  2.3300000000000D+00  0.0000000000000D+00  0.0000000000000D+00
235  2.3400000000000D+00  0.0000000000000D+00  0.0000000000000D+00
236  2.3500000000000D+00  0.0000000000000D+00  0.0000000000000D+00
237  2.3600000000000D+00  0.0000000000000D+00  0.0000000000000D+00
238  2.3700000000000D+00  0.0000000000000D+00  0.0000000000000D+00
239  2.3800000000000D+00  0.0000000000000D+00  0.0000000000000D+00
240  2.3900000000000D+00  0.0000000000000D+00  0.0000000000000D+00
241  2.4000000000000D+00  0.0000000000000D+00  0.0000000000000D+00
242  2.4100000000000D+00  0.0000000000000D+00  0.0000000000000D+00
243  2.4200000000000D+00  0.0000000000000D+00  0.0000000000000D+00
244  2.4300000000000D+00  0.0000000000000D+00  0.0000000000000D+00
245  2.4400000000000D+00  0.0000000000000D+00  0.0000000000000D+00
246  2.4500000000000D+00  0.0000000000000D+00  0.0000000000000D+00
247  2.4600000000000D+00  0.0000000000000D+00  0.0000000000000D+00
248  2.4700000000000D+00  0.0000000000000D+00  0.0000000000000D+00
249  2.4800000000000D+00  0.0000000000000D+00  0.0000000000000D+00
250  2.4900000000000D+00  0.0000000000000D+00  0.0000000000000D+00
251  2.5000000000000D+00  0.0000000000000D+00  0.0000000000000D+00
252  2.5100000000000D+00  0.0000000000000D+00  0.0000000000000D+00
253  2.5200000000000D+00  0.0000000000000D+00  0.0000000000000D+00
254  2.5300000000000D+00  0.0000000000000D+00  0.0000000000000D+00
255  2.5400000000000D+00  0.0000000000000D+00  0.0000000000000D+00
256  2.5500000000000D+00  0.0000000000000D+00  0.0000000000000D+00
257  2.5600000000000D+00  0.0000000000000D+00  0.0000000000000D+00
258  2.5700000000000D+00  0.0000000000000D+00  0.0000000000000D+00
259  2.5800000000000D+00  0.0000000000000D+00  0.0000000000000D+00
260  2.5900000000000D+00  0.0000000000000D+00  0.0000000000000D+00
261  2.6000000000000D+00  0.0000000000000D+00  0.0000000000000D+00
262  2.6100000000000D+00  0.0000000000000D+00  0.0000000000000D+00
263  2.6200000000000D+00  0.0000000000000D+00  0.0000000000000D+00
264  2.6300000000000D+00  0.0000000000000D+00  0.0000000000000D+00
265  2.6400000000000D+00  0.0000000000000D+00  0.0000000000000D+00
266  2.6500000000000D+00  0.0000000000000D+00  0.0000000000000D+00
267  2.6600000000000D+00  0.0000000000000D+00  0.0000000000000D+00
268  2.6700000000000D+00  0.0000000000000D+00  0.0000000000000D+00
269  2.6800000000000D+00  0.0000000000000D+00  0.0000000000000D+00
270  2.6900000000000D+00  0.0000000000000D+00  0.0000000000000D+00
271  2.7000000000000D+00  0.0000000000000D+00  0.0000000000000D+00
272  2.7100000000000D+00  0.0000000000000D+00  0.0000000000000D+00
273  2.7200000000000D+00  0.0000000000000D+00  0.0000000000000D+00
274  2.7300000000000D+00  0.0000000000000D+00  0.0000000000000D+00
275  2.7400000000000D+00  0.0000000000000D+00  0.0000000000000D+00
276  2.7500000000000D+00  0.0000000000000D+00  0.0000000000000D+00
277  2.7600000000000D+00  0.0000000000000D+00  0.0000000000000D+00
278  2.7700000000000D+00  0.0000000000000D+00  0.0000000000000D+00
279  2.7800000000000D+00  0.0000000000000D+00  0.0000000000000D+00
280  2.7900000000000D+00  0.0000000000000D+00  0.0000000000000D+00
281  2.8000000000000D+00  0.0000000000000D+00  0.0000000000000D+00
282  2.8100000000000D+00  0.0000000000000D+00  0.0000000000000D+00
283  2.8200000000000D+00  0.0000000000000D+00  0.0000000000000D+00
284  2.8300000000000D+00  0.0000000000000D+00  0.0000000000000D+00
285  2.8400000000000D+00  0.0000000000000D+00  0.0000000000000D+00
286  2.8500000000000D+00  0.0000000000000D+00  0.0000000000000D+00
287  2.8600000000000D+00  0.0000000000000D+00  0.0000000000000D+00
288  2.8700000000000D+00  0.0000000000000D+00  0.0000000000000D+00
289  2.8800000000000D+00  0.0000000000000D+00  0.0000000000000D+00
290  2.8900000000000D+00  0.0000000000000D+00  0.0000000000000D+00
291  2.9000000000000D+00  0.0000000000000D+00  0.0000000000000D+00
292  2.9100000000000D+00  0.0000000000000D+00  0.0000000000000D+00
293  2.9200000000000D+00  0.0000000000000D+00  0.0000000000000D+00
294  2.9300000000000D+00  0.0000000000000D+00  0.0000000000000D+00
295  2.9400000000000D+00  0.0000000000000D+00  0.0000000000000D+00
296  2.9500000000000D+00  0.0000000000000D+00  0.0000000000000D+00
297  2.9600000000000D+00  0.0000000000000D+00  0.0000000000000D+00
298  2.9700000000000D+00  0.0000000000000D+00  0.0000000000000D+00
299  2.9800000000000D+00  0.0000000000000D+00  0.0000000000000D+00
300  2.9900000000000D+00  0.0000000000000D+00  0.0000000000000D+00
301  3.0000000000000D+00  0.0000000000000D+00  0.0000000000000D+00
302  3.0100000000000D+00  0.0000000000000D+00  0.0000000000000D+00
303  3.0200000000000D+00  0.0000000000000D+00  0.0000000000000D+00
304  3.0300000000000D+00  0.0000000000000D+00  0.0000000000000D+00
305  3.0400000000000D+00  0.0000000000000D+00  0.0000000000000D+00
306  3.0500000000000D+00  0.0000000000000D+00  0.0000000000000D+00
307  3.0600000000000D+00  0.0000000000000D+00  0.0000000000000D+00
308  3.0700000000000D+00  0.0000000000000D+00  0.0000000000000D+00
309  3.0800000000000D+00  0.0000000000000D+00  0.0000000000000D+00
310  3.0900000000000D+00  0.0000000000000D+00  0.0000000000000D+00
311  3.1000000000000D+00  0.0000000000000D+00  0.0000000000000D+00
312  3.1100000000000D+00  0.0000000000000D+00  0.0000000000000D+00
313  3.1200000000000D+00  0.0000000000000D+00  0.0000000000000D+00
314  3.1300000000000D+00  0.0000000000000D+00  0.0000000000000D+00
315  3.1400000000000D+00  0.0000000000000D+00  0.0000000000000D+00
316  3.1500000000000D+00  0.0000000000000D+00  0.0000000000000D+00
317  3.1600000000000D+00  0.0000000000000D+00  0.0000000000000D+00
318  3.1700000000000D+00  0.0000000000000D+00  0.0000000000000D+00
319  3.1800000000000D+00  0.0000000000000D+00  0.0000000000000D+00
320  3.1900000000000D+00  0.0000000000000D+00  0.0000000000000D+00
321  3.2000000000000D+00  0.0000000000000D+00  0.0000000000000D+00
322  3.2100000000000D+00  0.0000000000000D+00  0.0000000000000D+00
323  3.2200000000000D+00  0.0000000000000D+00  0.0000000000000D+00
324  3.2300000000000D+00  0.0000000000000D+00  0.0000000000000D+00
325  3.2400000000000D+00  0.0000000000000D+00  0.0000000000000D+00
326  3.2500000000000D+00  0.0000000000000D+00  0.0000000000000D+00
327  3.2600000000000D+00  0.0000000000000D+00  0.0000000000000D+00
328  3.2700000000000D+00  0.0000000000000D+00  0.0000000000000D+00
329  3.2800000000000D+00  0.0000000000000D+00  0.0000000000000D+00
330  3.2900000000000D+00  0.0000000000000D+00  0.0000000000000D+00
331  3.3000000000000D+00  0.0000000000000D+00  0.0000000000000D+00
332  3.3100000000000D+00  0.0000000000000D+00  0.0000000000000D+00
333  3.3200000000000D+00  0.0000000000000D+00  0.0000000000000D+00
334  3.3300000000000D+00  0.0000000000000D+00  0.0000000000000D+00
335  3.3400000000000D+00  0.0000000000000D+00  0.0000000000000D+00
336  3.3500000000000D+00  0.0000000000000D+00  0.0000000000000D+00
337  3.3600000000000D+00  0.0000000000000D+00  0.0000000000000D+00
338  3.3700000000000D+00  0.0000000000000D+00  0.0000000000000D+00
339  3.3800000000000D+00  0.0000000000000D+00  0.0000000000000D+00
340  3.3900000000000D+00  0.0000000000000D+00  0.0000000000000D+00
341  3.4000000000000D+00  0.0000000000000D+00  0.0000000000000D+00
342  3.4100000000000D+00  0.0000000000000D+00  0.0000000000000D+00
343  3.4200000000000D+00  0.0000000000000D+00  0.0000000000000D+00
344  3.4300000000000D+00  0.0000000000000D+00  0.0000000000000D+00
345  3.4400000000000D+00  0.0000000000000D+00  0.0000000000000D+00
346  3.4500000000000D+00  0.0000000000000D+00  0.0000000000000D+00
347  3.4600000000000D+00  0.0000000000000D+00  0.0000000000000D+00
348  3.4700000000000D+00  0.0000000000000D+00  0.0000000000000D+00
349  3.4800000000000D+00  0.0000000000000D+00  0.0000000000000D+00
350  3.4900000000000D+00  0.0000000000000D+00  0.0000000000000D+00
351  3.5000000000000D+00  0.0000000000000D+00  0.0000000000000D+00
352  3.5100000000000D+00  0.0000000000000D+00  0.0000000000000D+00
353  3.5200000000000D+00  0.0000000000000D+00  0.0000000000000D+00
354  3.5300000000000D+00  0.0000000000000D+00  0.0000000000000D+00
355  3.5400000000000D+00  0.0000000000000D+00  0.0000000000000D+00
356  3.5500000000000D+00  0.0000000000000D+00  0.0000000000000D+00
357  3.5600000000000D+00  0.0000000000000D+00  0.0000000000000D+00
358  3.5700000000000D+00  0.0000000000000D+00  0.0000000000000D+00
359  3.5800000000000D+00  0.0000000000000D+00  0.0000000000000D+00
360  3.5900000000000D+00  0.0000000000000D+00  0.0000000000000D+00
361  3.6000000000000D+00  0.0000000000000D+00  0.0000000000000D+00
362  3.6100000000000D+00  0.0000000000000D+00  0.0000000000000D+00
363  3.6200000000000D+00  0.0000000000000D+00  0.0000000000000D+00
364  3.6300000000000D+00  0.0000000000000D+00  0.0000000000000D+00
365  3.6400000000000D+00  0.0000000000000D+00  0.0000000000000D+00
366  3.6500000000000D+00  0.0000000000000D+00  0.0000000000000D+00
367  3.6600000000000D+00  0.0000000000000D+00  0.0000000000000D+00
368  3.6700000000000D+00  0.0000000000000D+00  0.0000000000000D+00
369  3.6800000000000D+00  0.0000000000000D+00  0.0000000000000D+00
370  3.6900000000000D+00  0.0000000000000D+00  0.0000000000000D+00
371  3.7000000000000D+00  0.0000000000000D+00  0.0000000000000D+00
372  3.7100000000000D+00  0.0000000000000D+00  0.0000000000000D+00
373  3.7200000000000D+00  0.0000000000000D+00  0.0000000000000D+00
374  3.7300000000000D+00  0.0000000000000D+00  0.0000000000000D+00
375  3.7400000000000D+00  0.0000000000000D+00  0.0000000000000D+00
376  3.7500000000000D+00  0.0000000000000D+00  0.0000000000000D+00
377  3.7600000000000D+00  0.0000000000000D+00  0.0000000000000D+00
378  3.7700000000000D+00  0.0000000000000D+00  0.0000000000000D+00
379  3.7800000000000D+00  0.0000000000000D+00  0.0000000000000D+00
380  3.7900000000000D+00  0.0000000000000D+00  0.0000000000000D+00
381  3.8000000000000D+00  0.0000000000000D+00  0.0000000000000D+00
382  3.8100000000000D+00  0.0000000000000D+00  0.0000000000000D+00
383  3.8200000000000D+00  0.0000000000000D+00  0.0000000000000D+00
384  3.8300000000000D+00  0.0000000000000D+00  0.0000000000000D+00
385  3.8400000000000D+00  0.0000000000000D+00  0.0000000000000D+00
386  3.8500000000000D+00  0.0000000000000D+00  0.0000000000000D+00
387  3.8600000000000D+00  0.0000000000000D+00  0.0000000000000D+00
388  3.8700000000000D+00  0.0000000000000D+00  0.0000000000000D+00
389  3.8800000000000D+00  0.0000000000000D+00  0.0000000000000D+00
390  3.8900000000000D+00  0.0000000000000D+00  0.0000000000000D+00
391  3.9000000000000D+00  0.0000000000000D+00  0.0000000000000D+00
392  3.9100000000000D+00  0.0000000000000D+00  0.0000000000000D+00
393  3.9200000000000D+00  0.0000000000000D+00  0.0000000000000D+00
394  3.9300000000000D+00  0.0000000000000D+00  0.0000000000000D+00
395  3.9400000000000D+00  0.0000000000000D+00  0.0000000000000D+00
396  3.9500000000000D+00  0.0000000000000D+00  0.0000000000000D+00
397  3.9600000000000D+00  0.0000000000000D+00  0.0000000000000D+00
398  3.9700000000000D+00  0.0000000000000D+00  0.0000000000000D+00
399  3.9800000000000D+00  0.0000000000000D+00  0.0000000000000D+00
400  3.9900000000000D+00  0.0000000000000D+00  0.0000000000000D+00
401  4.0000000000000D+00  0.0000000000000D+00  0.0000000000000D+00
402  4.0100000000000D+00  0.0000000000000D+00  0.0000000000000D+00
403  4.0200000000000D+00  0.0000000000000D+00  0.0000000000000D+00
404  4.0300000000000D+00  0.0000000000000D+00  0.0000000000000D+00
405  4.0400000000000D+00  0.0000000000000D+00  0.0000000000000D+00
406  4.0500000000000D+00  0.0000000000000D+00  0.0000000000000D+00
407  4.0600000000000D+00  0.0000000000000D+00  0.0000000000000D+00
408  4.0700000000000D+00  0.0000000000000D+00  0.0000000000000D+00
409  4.0800000000000D+00  0.0000000000000D+00  0.0000000000000D+00
410  4.0900000000000D+00  0.0000000000000D+00  0.0000000000000D+00
411  4.1000000000000D+00  0.0000000000000D+00  0.0000000000000D+00
412  4.1100000000000D+00  0.0000000000000D+00  0.0000000000000D+00
413  4.1200000000000D+00  0.0000000000000D+00  0.0000000000000D+00
414  4.1300000000000D+00  0.0000000000000D+00  0.0000000000000D+00
415  4.1400000000000D+00  0.0000000000000D+00  0.0000000000000D+00
416  4.1500000000000D+00  0.0000000000000D+00  0.0000000000000D+00
417  4.1600000000000D+00  0.0000000000000D+00  0.0000000000000D+00
418  4.1700000000000D+00  0.0000000000000D+00  0.0000000000000D+00
419  4.1800000000000D+00  0.0000000000000D+00  0.0000000000000D+00
420  4.1900000000000D+00  0.0000000000000D+00  0.0000000000000D+00
421  4.2000000000000D+00  0.0000000000000D+00  0.0000000000000D+00
422  4.2100000000000D+00  0.0000000000000D+00  0.0000000000000D+00
423  4.2200000000000D+00  0.0000000000000D+00  0.0000000000000D+00
424  4.2300000000000D+00  0.0000000000000D+00  0.0000000000000D+00
425  4.2400000000000D+00  0.0000000000000D+00  0.0000000000000D+00
426  4.2500000000000D+00  0.0000000000000D+00  0.0000000000000D+00
427  4.2600000000000D+00  0.0000000000000D+00  0.0000000000000D+00
428  4.2700000000000D+00  0.0000000000000D+00  0.0000000000000D+00
429  4.2800000000000D+00  0.0000000000000D+00  0.0000000000000D+00
430  4.2900000000000D+00  0.0000000000000D+00  0.0000000000000D+00
431  4.3000000000000D+00  0.0000000000000D+00  0.0000000000000D+00
432  4.3100000000000D+00  0.0000000000000D+00  0.0000000000000D+00
433  4.3200000000000D+00  0.0000000000000D+00  0.0000000000000D+00
434  4.3300000000000D+00  0.0000000000000D+00  0.0000000000000D+00
435  4.3400000000000D+00  0.0000000000000D+00  0.0000000000000D+00
436  4.3500000000000D+00  0.0000000000000D+00  0.0000000000000D+00
437  4.3600000000000D+00  0.0000000000000D+00  0.0000000000000D+00
438  4.3700000000000D+00  0.0000000000000D+00  0.0000000000000D+00
439  4.3800000000000D+00  0.0000000000000D+00  0.0000000000000D+00
440  4.3900000000000D+00  0.0000000000000D+00  0.0000000000000D+00
441  4.4000000000000D+00  0.0000000000000D+00  0.0000000000000D+00
442  4.4100000000000D+00  0.0000000000000D+00  0.0000000000000D+00
443  4.4200000000000D+00  0.0000000000000D+00  0.0000000000000D+00