Xe    ONCVPSP-3.2.3  r_core=   2.00680   1.80252   2.20774
54.0000      8.0000      170222    zatom,zion,pspd
8      11   2     4   600     0    pspcod,pspxc,lmax,lloc,mmax,r2well
5.99000000  8.00000000  0.00000000    rchrg fchrg qchrg
2     4     3     0    nproj
3     1           extension_switch
4     3     0    nprojso
0                         1.1596578486744D+00  7.6244285788590D+00
1  0.0000000000000D+00 -3.5539654552608D-11  9.1125718082452D-12
2  1.0000000000000D-02  9.7741112788791D-03  1.8815545481661D-02
3  2.0000000000000D-02  1.9459841753300D-02  3.7655489021539D-02
4  3.0000000000000D-02  2.8969292306120D-02  5.6544074192240D-02
5  4.0000000000000D-02  3.8215525007584D-02  7.5505236223152D-02
6  5.0000000000000D-02  4.7113038249881D-02  9.4562449396552D-02
7  6.0000000000000D-02  5.5578235355808D-02  1.1373857631855D-01
8  7.0000000000000D-02  6.3529884527952D-02  1.3305571967913D-01
9  8.0000000000000D-02  7.0889568040326D-02  1.5253507710637D-01
10  9.0000000000000D-02  7.7582118618666D-02  1.7219679970875D-01
11  1.0000000000000D-01  8.3536041008214D-02  1.9205985488562D-01
12  1.1000000000000D-01  8.8683916788935D-02  2.1214189397063D-01
13  1.2000000000000D-01  9.2962790567151D-02  2.3245912525465D-01
14  1.3000000000000D-01  9.6314535749598D-02  2.5302619291543D-01
15  1.4000000000000D-01  9.8686198190469D-02  2.7385606235898D-01
16  1.5000000000000D-01  1.0003031609377D-01  2.9495991245427D-01
17  1.6000000000000D-01  1.0030521465222D-01  3.1634703511720D-01
18  1.7000000000000D-01  9.9475274009087D-02  3.3802474267253D-01
19  1.8000000000000D-01  9.7511169241215D-02  3.5999828339354D-01
20  1.9000000000000D-01  9.4390081178531D-02  3.8227076558885D-01
21  2.0000000000000D-01  9.0095876998313D-02  4.0484309057350D-01
22  2.1000000000000D-01  8.4619259660052D-02  4.2771389482870D-01
23  2.2000000000000D-01  7.7957885378789D-02  4.5087950161956D-01
24  2.3000000000000D-01  7.0116448470874D-02  4.7433388230481D-01
25  2.4000000000000D-01  6.1106733045491D-02  4.9806862753582D-01
26  2.5000000000000D-01  5.0947631157628D-02  5.2207292850457D-01
27  2.6000000000000D-01  3.9665127182823D-02  5.4633356836213D-01
28  2.7000000000000D-01  2.7292248320392D-02  5.7083492389028D-01
29  2.8000000000000D-01  1.3868981279525D-02  5.9555897746960D-01
30  2.9000000000000D-01 -5.5784464923895D-04  6.2048533934748D-01
31  3.0000000000000D-01 -1.5934707786383D-02  6.4559128017012D-01
32  3.1000000000000D-01 -3.2201577021237D-02  6.7085177370211D-01
33  3.2000000000000D-01 -4.9292126890492D-02  6.9623954961790D-01
34  3.3000000000000D-01 -6.7133983988070D-02  7.2172515620955D-01
35  3.4000000000000D-01 -8.5649003774820D-02  7.4727703281638D-01
36  3.5000000000000D-01 -1.0475357671742D-01  7.7286159174307D-01
37  3.6000000000000D-01 -1.2435896255045D-01  7.9844330939554D-01
38  3.7000000000000D-01 -1.4437165132441D-01  8.2398482632611D-01
39  3.8000000000000D-01 -1.6469374977587D-01  8.4944705584417D-01
40  3.9000000000000D-01 -1.8522339143539D-01  8.7478930081305D-01
41  4.0000000000000D-01 -2.0585516877346D-01  8.9996937822052D-01
42  4.1000000000000D-01 -2.2648058557647D-01  9.2494375107798D-01
43  4.2000000000000D-01 -2.4698852764320D-01  9.4966766717281D-01
44  4.3000000000000D-01 -2.6726574979874D-01  9.7409530416912D-01
45  4.4000000000000D-01 -2.8719737713631D-01  9.9817992052540D-01
46  4.5000000000000D-01 -3.0666741832087D-01  1.0218740116718D+00
47  4.6000000000000D-01 -3.2555928871931D-01  1.0451294708669D+00
48  4.7000000000000D-01 -3.4375634106333D-01  1.0678977541323D+00
49  4.8000000000000D-01 -3.6114240130118D-01  1.0901300486456D+00
50  4.9000000000000D-01 -3.7760230725538D-01  1.1117774439541D+00
51  5.0000000000000D-01 -3.9302244767373D-01  1.1327911053590D+00
52  5.1000000000000D-01 -4.0729129924254D-01  1.1531224488070D+00
53  5.2000000000000D-01 -4.2029995912257D-01  1.1727233166196D+00
54  5.3000000000000D-01 -4.3194267057103D-01  1.1915461533795D+00
55  5.4000000000000D-01 -4.4211733922651D-01  1.2095441812951D+00
56  5.5000000000000D-01 -4.5072603765840D-01  1.2266715743582D+00
57  5.6000000000000D-01 -4.5767549581787D-01  1.2428836306157D+00
58  5.7000000000000D-01 -4.6287757507410D-01  1.2581369418770D+00
59  5.8000000000000D-01 -4.6624972357695D-01  1.2723895601891D+00
60  5.9000000000000D-01 -4.6771541075513D-01  1.2856011604178D+00
61  6.0000000000000D-01 -4.6720453883794D-01  1.2977331982900D+00
62  6.1000000000000D-01 -4.6465382937734D-01  1.3087490632632D+00
63  6.2000000000000D-01 -4.6000718284612D-01  1.3186142256100D+00
64  6.3000000000000D-01 -4.5321600949656D-01  1.3272963771221D+00
65  6.4000000000000D-01 -4.4423952978153D-01  1.3347655648651D+00
66  6.5000000000000D-01 -4.3304504276696D-01  1.3409943174378D+00
67  6.6000000000000D-01 -4.1960816109910D-01  1.3459577632178D+00
68  6.7000000000000D-01 -4.0391301123262D-01  1.3496337401083D+00
69  6.8000000000000D-01 -3.8595239777593D-01  1.3520028963282D+00
70  6.9000000000000D-01 -3.6572793096572D-01  1.3530487818254D+00
71  7.0000000000000D-01 -3.4325011644527D-01  1.3527579299282D+00
72  7.1000000000000D-01 -3.1853840668853D-01  1.3511199288867D+00
73  7.2000000000000D-01 -2.9162121358366D-01  1.3481274829963D+00
74  7.3000000000000D-01 -2.6253588186525D-01  1.3437764630358D+00
75  7.4000000000000D-01 -2.3132862326264D-01  1.3380659457943D+00
76  7.5000000000000D-01 -1.9805441141209D-01  1.3309982425051D+00
77  7.6000000000000D-01 -1.6277683776253D-01  1.3225789160473D+00
78  7.7000000000000D-01 -1.2556792888601D-01  1.3128167868224D+00
79  7.8000000000000D-01 -8.6507925785638D-02  1.3017239272563D+00
80  7.9000000000000D-01 -4.5685025973541D-02  1.2893156449245D+00
81  8.0000000000000D-01 -3.1950892693145D-03  1.2756104543434D+00
82  8.1000000000000D-01  4.0858691556415D-02  1.2606300375147D+00
83  8.2000000000000D-01  8.6366153998101D-02  1.2443991933584D+00
84  8.3000000000000D-01  1.3321056143043D-01  1.2269457762121D+00
85  8.4000000000000D-01  1.8126902950216D-01  1.2083006236189D+00
86  8.5000000000000D-01  2.3041298153528D-01  1.1884974736717D+00
87  8.6000000000000D-01  2.8050863101048D-01  1.1675728722200D+00
88  8.7000000000000D-01  3.3141748908245D-01  1.1455660702914D+00
89  8.8000000000000D-01  3.8299689494009D-01  1.1225189121146D+00
90  8.9000000000000D-01  4.3510056670799D-01  1.0984757141723D+00
91  9.0000000000000D-01  4.8757917047702D-01  1.0734831357468D+00
92  9.1000000000000D-01  5.4028090495454D-01  1.0475900414555D+00
93  9.2000000000000D-01  5.9305209913863D-01  1.0208473563065D+00
94  9.3000000000000D-01  6.4573782034719D-01  9.9330791383305D-01
95  9.4000000000000D-01  6.9818248987119D-01  9.6502629789318D-01
96  9.5000000000000D-01  7.5023050347317D-01  9.3605867874723D-01
97  9.6000000000000D-01  8.0172685391706D-01  9.0646264404589D-01
98  9.7000000000000D-01  8.5251775269370D-01  8.7629702538237D-01
99  9.8000000000000D-01  9.0245124809885D-01  8.4562172107825D-01
100  9.9000000000000D-01  9.5137783682705D-01  8.1449751588643D-01
101  1.0000000000000D+00  9.9915106626402D-01  7.8298589830495D-01
102  1.0100000000000D+00  1.0456281246952D+00  7.5114887620324D-01
103  1.0200000000000D+00  1.0906704166954D+00  7.1904879146690D-01
104  1.0300000000000D+00  1.1341441210279D+00  6.8674813436825D-01
105  1.0400000000000D+00  1.1759207284531D+00  6.5430935836841D-01
106  1.0500000000000D+00  1.2158775569424D+00  6.2179469605157D-01
107  1.0600000000000D+00  1.2538982418847D+00  5.8926597688456D-01
108  1.0700000000000D+00  1.2898731989946D+00  5.5678444748380D-01
109  1.0800000000000D+00  1.3237000577536D+00  5.2441059505767D-01
110  1.0900000000000D+00  1.3552840633531D+00  4.9220397467583D-01
111  1.1000000000000D+00  1.3845384452619D+00  4.6022304099611D-01
112  1.1100000000000D+00  1.4113847506819D+00  4.2852498506014D-01
113  1.1200000000000D+00  1.4357531413406D+00  3.9716557674118D-01
114  1.1300000000000D+00  1.4575826522343D+00  3.6619901340147D-01
115  1.1400000000000D+00  1.4768214111316D+00  3.3567777528484D-01
116  1.1500000000000D+00  1.4934268178122D+00  3.0565248814196D-01
117  1.1600000000000D+00  1.5073656822268D+00  2.7617179354980D-01
118  1.1700000000000D+00  1.5186143209674D+00  2.4728222734969D-01
119  1.1800000000000D+00  1.5271586116525D+00  2.1902810658845D-01
120  1.1900000000000D+00  1.5329940049765D+00  1.9145142532016D-01
121  1.2000000000000D+00  1.5361254944561D+00  1.6459175957125D-01
122  1.2100000000000D+00  1.5365675440849D+00  1.3848618173555D-01
123  1.2200000000000D+00  1.5343439743054D+00  1.1316918462534D-01
124  1.2300000000000D+00  1.5294878068902D+00  8.8672615367214D-02
125  1.2400000000000D+00  1.5220410695979D+00  6.5025619272666D-02
126  1.2500000000000D+00  1.5120545616346D+00  4.2254593775700D-02
127  1.2600000000000D+00  1.4995875810559D+00  2.0383152507926D-02
128  1.2700000000000D+00  1.4847076155948D+00 -5.6790049932005D-04
129  1.2800000000000D+00  1.4674899985028D+00 -2.0580586523432D-02
130  1.2900000000000D+00  1.4480175310563D+00 -3.9639757820552D-02
131  1.3000000000000D+00  1.4263800737596D+00 -5.7733093403268D-02
132  1.3100000000000D+00  1.4026741082909D+00 -7.4851085082660D-02
133  1.3200000000000D+00  1.3770022723246D+00 -9.0987013947628D-02
134  1.3300000000000D+00  1.3494728696876D+00 -1.0613691755146D-01
135  1.3400000000000D+00  1.3201993582522D+00 -1.2029954806355D-01
136  1.3500000000000D+00  1.2892998181098D+00 -1.3347632168050D-01
137  1.3600000000000D+00  1.2568964027672D+00 -1.4567125966906D-01
138  1.3700000000000D+00  1.2231147760175D+00 -1.5689092138045D-01
139  1.3800000000000D+00  1.1880835373404D+00 -1.6714432964686D-01
140  1.3900000000000D+00  1.1519336386769D+00 -1.7644288900361D-01
141  1.4000000000000D+00  1.1147977954339D+00 -1.8480029714499D-01
142  1.4100000000000D+00  1.0768098946641D+00 -1.9223245012854D-01
143  1.4200000000000D+00  1.0381044032759D+00 -1.9875734178805D-01
144  1.4300000000000D+00  9.9881577924240D-01 -2.0439495786649D-01
145  1.4400000000000D+00  9.5907788854492D-01 -2.0916716539950D-01
146  1.4500000000000D+00  9.1902343085185D-01 -2.1309759785529D-01
147  1.4600000000000D+00  8.7878337651327D-01 -2.1621153659129D-01
148  1.4700000000000D+00  8.3848641767438D-01 -2.1853578915010D-01
149  1.4800000000000D+00  7.9825843613102D-01 -2.2009856495357D-01
150  1.4900000000000D+00  7.5822199022597D-01 -2.2092934892130D-01
151  1.5000000000000D+00  7.1849582358110D-01 -2.2105877357914D-01
152  1.5100000000000D+00  6.7919439733156D-01 -2.2051849015499D-01
153  1.5200000000000D+00  6.4042744868905D-01 -2.1934103923534D-01
154  1.5300000000000D+00  6.0229957711982D-01 -2.1755972144944D-01
155  1.5400000000000D+00  5.6490986048783D-01 -2.1520846872279D-01
156  1.5500000000000D+00  5.2835150250644D-01 -2.1232171656754D-01
157  1.5600000000000D+00  4.9271151298054D-01 -2.0893427787215D-01
158  1.5700000000000D+00  4.5807042242267D-01 -2.0508121868248D-01
159  1.5800000000000D+00  4.2450203149510D-01 -2.0079773632234D-01
160  1.5900000000000D+00  3.9207319716361D-01 -1.9611904038580D-01
161  1.6000000000000D+00  3.6084365491739D-01 -1.9108023681008D-01
162  1.6100000000000D+00  3.3086587922507D-01 -1.8571621560718D-01
163  1.6200000000000D+00  3.0218498054862D-01 -1.8006154231711D-01
164  1.6300000000000D+00  2.7483864116918D-01 -1.7415035378599D-01
165  1.6400000000000D+00  2.4885708745880D-01 -1.6801625822198D-01
166  1.6500000000000D+00  2.2426310048710D-01 -1.6169224009593D-01
167  1.6600000000000D+00  2.0107206231552D-01 -1.5521056978149D-01
168  1.6700000000000D+00  1.7929203930099D-01 -1.4860271843320D-01
169  1.6800000000000D+00  1.5892389953886D-01 -1.4189927794458D-01
170  1.6900000000000D+00  1.3996146526016D-01 -1.3512988642157D-01
171  1.7000000000000D+00  1.2239169705278D-01 -1.2832315895121D-01
172  1.7100000000000D+00  1.0619491031294D-01 -1.2150662405120D-01
173  1.7200000000000D+00  9.1345020502441D-02 -1.1470666550563D-01
174  1.7300000000000D+00  7.7809817304329D-02 -1.0794846994078D-01
175  1.7400000000000D+00  6.5551263516951D-02 -1.0125597964966D-01
176  1.7500000000000D+00  5.4525817812592D-02 -9.4651850828641D-02
177  1.7600000000000D+00  4.4684794747507D-02 -8.8157421057486D-02
178  1.7700000000000D+00  3.5974673064040D-02 -8.1792664095988D-02
179  1.7800000000000D+00  2.8337630643943D-02 -7.5576203407779D-02
180  1.7900000000000D+00  2.1711811332233D-02 -6.9525256781365D-02
181  1.8000000000000D+00  1.6031450117522D-02 -6.3655552087002D-02
182  1.8100000000000D+00  1.1227968050114D-02 -5.7981483722527D-02
183  1.8200000000000D+00  7.2309216363485D-03 -5.2516232464625D-02
184  1.8300000000000D+00  3.9689055568178D-03 -4.7271893797007D-02
185  1.8400000000000D+00  1.3707092847352D-03 -4.2259675088885D-02
186  1.8500000000000D+00 -6.3405045619097D-04 -3.7489966181938D-02
187  1.8600000000000D+00 -2.1146809066080D-03 -3.2972321529573D-02
188  1.8700000000000D+00 -3.1389972542923D-03 -2.8715487189880D-02
189  1.8800000000000D+00 -3.7727869810992D-03 -2.4727457361541D-02
190  1.8900000000000D+00 -4.0794402739087D-03 -2.1015495880771D-02
191  1.9000000000000D+00 -4.1195342916218D-03 -1.7586172424698D-02
192  1.9100000000000D+00 -3.9504606846267D-03 -1.4445392049917D-02
193  1.9200000000000D+00 -3.6260767830045D-03 -1.1598423464519D-02
194  1.9300000000000D+00 -3.1963813142259D-03 -9.0499254962887D-03
195  1.9400000000000D+00 -2.7080621136519D-03 -6.8046109777260D-03
196  1.9500000000000D+00 -2.2018743718222D-03 -4.8654726959163D-03
197  1.9600000000000D+00 -1.7107165704819D-03 -3.2327624338276D-03
198  1.9700000000000D+00 -1.2595989209289D-03 -1.9067563277600D-03
199  1.9800000000000D+00 -9.0651677595657D-04 -9.0396344502996D-04
200  1.9900000000000D+00 -6.9660210463593D-04 -2.2760364799764D-04
201  2.0000000000000D+00 -5.6918325385881D-04  1.3927173739126D-04
202  2.0100000000000D+00 -4.1835677588334D-04  2.3627713944038D-04
203  2.0200000000000D+00 -2.0152111376989D-04  1.4613113621104D-04
204  2.0300000000000D+00 -1.2802527387657D-05  1.0316993859688D-05
205  2.0400000000000D+00  4.5254723940694D-05 -3.8320653939531D-05
206  2.0500000000000D+00  2.3509939415244D-05 -2.0839323032667D-05
207  2.0600000000000D+00 -6.9478872121548D-06  5.2851941216487D-06
208  2.0700000000000D+00 -9.6265176755127D-06  7.4891996590478D-06
209  2.0800000000000D+00  1.7713137667260D-08 -8.6137465447150D-09
210  2.0900000000000D+00  1.3357732208375D-06 -6.4957503191425D-07
211  2.1000000000000D+00  7.4426318907443D-07 -3.6192878944864D-07
212  2.1100000000000D+00  0.0000000000000D+00  0.0000000000000D+00
213  2.1200000000000D+00  0.0000000000000D+00  0.0000000000000D+00
214  2.1300000000000D+00  0.0000000000000D+00  0.0000000000000D+00
215  2.1400000000000D+00  0.0000000000000D+00  0.0000000000000D+00
216  2.1500000000000D+00  0.0000000000000D+00  0.0000000000000D+00
217  2.1600000000000D+00  0.0000000000000D+00  0.0000000000000D+00
218  2.1700000000000D+00  0.0000000000000D+00  0.0000000000000D+00
219  2.1800000000000D+00  0.0000000000000D+00  0.0000000000000D+00
220  2.1900000000000D+00  0.0000000000000D+00  0.0000000000000D+00
221  2.2000000000000D+00  0.0000000000000D+00  0.0000000000000D+00
222  2.2100000000000D+00  0.0000000000000D+00  0.0000000000000D+00
223  2.2200000000000D+00  0.0000000000000D+00  0.0000000000000D+00
224  2.2300000000000D+00  0.0000000000000D+00  0.0000000000000D+00
225  2.2400000000000D+00  0.0000000000000D+00  0.0000000000000D+00
226  2.2500000000000D+00  0.0000000000000D+00  0.0000000000000D+00
227  2.2600000000000D+00  0.0000000000000D+00  0.0000000000000D+00
228  2.2700000000000D+00  0.0000000000000D+00  0.0000000000000D+00
229  2.2800000000000D+00  0.0000000000000D+00  0.0000000000000D+00
230  2.2900000000000D+00  0.0000000000000D+00  0.0000000000000D+00
231  2.3000000000000D+00  0.0000000000000D+00  0.0000000000000D+00
232  2.3100000000000D+00  0.0000000000000D+00  0.0000000000000D+00
233  2.3200000000000D+00  0.0000000000000D+00  0.0000000000000D+00
234  2.3300000000000D+00  0.0000000000000D+00  0.0000000000000D+00
235  2.3400000000000D+00  0.0000000000000D+00  0.0000000000000D+00
236  2.3500000000000D+00  0.0000000000000D+00  0.0000000000000D+00
237  2.3600000000000D+00  0.0000000000000D+00  0.0000000000000D+00
238  2.3700000000000D+00  0.0000000000000D+00  0.0000000000000D+00
239  2.3800000000000D+00  0.0000000000000D+00  0.0000000000000D+00
240  2.3900000000000D+00  0.0000000000000D+00  0.0000000000000D+00
241  2.4000000000000D+00  0.0000000000000D+00  0.0000000000000D+00
242  2.4100000000000D+00  0.0000000000000D+00  0.0000000000000D+00
243  2.4200000000000D+00  0.0000000000000D+00  0.0000000000000D+00
244  2.4300000000000D+00  0.0000000000000D+00  0.0000000000000D+00
245  2.4400000000000D+00  0.0000000000000D+00  0.0000000000000D+00
246  2.4500000000000D+00  0.0000000000000D+00  0.0000000000000D+00
247  2.4600000000000D+00  0.0000000000000D+00  0.0000000000000D+00
248  2.4700000000000D+00  0.0000000000000D+00  0.0000000000000D+00
249  2.4800000000000D+00  0.0000000000000D+00  0.0000000000000D+00
250  2.4900000000000D+00  0.0000000000000D+00  0.0000000000000D+00
251  2.5000000000000D+00  0.0000000000000D+00  0.0000000000000D+00
252  2.5100000000000D+00  0.0000000000000D+00  0.0000000000000D+00
253  2.5200000000000D+00  0.0000000000000D+00  0.0000000000000D+00
254  2.5300000000000D+00  0.0000000000000D+00  0.0000000000000D+00
255  2.5400000000000D+00  0.0000000000000D+00  0.0000000000000D+00
256  2.5500000000000D+00  0.0000000000000D+00  0.0000000000000D+00
257  2.5600000000000D+00  0.0000000000000D+00  0.0000000000000D+00
258  2.5700000000000D+00  0.0000000000000D+00  0.0000000000000D+00
259  2.5800000000000D+00  0.0000000000000D+00  0.0000000000000D+00
260  2.5900000000000D+00  0.0000000000000D+00  0.0000000000000D+00
261  2.6000000000000D+00  0.0000000000000D+00  0.0000000000000D+00
262  2.6100000000000D+00  0.0000000000000D+00  0.0000000000000D+00
263  2.6200000000000D+00  0.0000000000000D+00  0.0000000000000D+00
264  2.6300000000000D+00  0.0000000000000D+00  0.0000000000000D+00
265  2.6400000000000D+00  0.0000000000000D+00  0.0000000000000D+00
266  2.6500000000000D+00  0.0000000000000D+00  0.0000000000000D+00
267  2.6600000000000D+00  0.0000000000000D+00  0.0000000000000D+00
268  2.6700000000000D+00  0.0000000000000D+00  0.0000000000000D+00
269  2.6800000000000D+00  0.0000000000000D+00  0.0000000000000D+00
270  2.6900000000000D+00  0.0000000000000D+00  0.0000000000000D+00
271  2.7000000000000D+00  0.0000000000000D+00  0.0000000000000D+00
272  2.7100000000000D+00  0.0000000000000D+00  0.0000000000000D+00
273  2.7200000000000D+00  0.0000000000000D+00  0.0000000000000D+00
274  2.7300000000000D+00  0.0000000000000D+00  0.0000000000000D+00
275  2.7400000000000D+00  0.0000000000000D+00  0.0000000000000D+00
276  2.7500000000000D+00  0.0000000000000D+00  0.0000000000000D+00
277  2.7600000000000D+00  0.0000000000000D+00  0.0000000000000D+00
278  2.7700000000000D+00  0.0000000000000D+00  0.0000000000000D+00
279  2.7800000000000D+00  0.0000000000000D+00  0.0000000000000D+00
280  2.7900000000000D+00  0.0000000000000D+00  0.0000000000000D+00
281  2.8000000000000D+00  0.0000000000000D+00  0.0000000000000D+00
282  2.8100000000000D+00  0.0000000000000D+00  0.0000000000000D+00
283  2.8200000000000D+00  0.0000000000000D+00  0.0000000000000D+00
284  2.8300000000000D+00  0.0000000000000D+00  0.0000000000000D+00
285  2.8400000000000D+00  0.0000000000000D+00  0.0000000000000D+00
286  2.8500000000000D+00  0.0000000000000D+00  0.0000000000000D+00
287  2.8600000000000D+00  0.0000000000000D+00  0.0000000000000D+00
288  2.8700000000000D+00  0.0000000000000D+00  0.0000000000000D+00
289  2.8800000000000D+00  0.0000000000000D+00  0.0000000000000D+00
290  2.8900000000000D+00  0.0000000000000D+00  0.0000000000000D+00
291  2.9000000000000D+00  0.0000000000000D+00  0.0000000000000D+00
292  2.9100000000000D+00  0.0000000000000D+00  0.0000000000000D+00
293  2.9200000000000D+00  0.0000000000000D+00  0.0000000000000D+00
294  2.9300000000000D+00  0.0000000000000D+00  0.0000000000000D+00
295  2.9400000000000D+00  0.0000000000000D+00  0.0000000000000D+00
296  2.9500000000000D+00  0.0000000000000D+00  0.0000000000000D+00
297  2.9600000000000D+00  0.0000000000000D+00  0.0000000000000D+00
298  2.9700000000000D+00  0.0000000000000D+00  0.0000000000000D+00
299  2.9800000000000D+00  0.0000000000000D+00  0.0000000000000D+00
300  2.9900000000000D+00  0.0000000000000D+00  0.0000000000000D+00
301  3.0000000000000D+00  0.0000000000000D+00  0.0000000000000D+00
302  3.0100000000000D+00  0.0000000000000D+00  0.0000000000000D+00
303  3.0200000000000D+00  0.0000000000000D+00  0.0000000000000D+00
304  3.0300000000000D+00  0.0000000000000D+00  0.0000000000000D+00
305  3.0400000000000D+00  0.0000000000000D+00  0.0000000000000D+00
306  3.0500000000000D+00  0.0000000000000D+00  0.0000000000000D+00
307  3.0600000000000D+00  0.0000000000000D+00  0.0000000000000D+00
308  3.0700000000000D+00  0.0000000000000D+00  0.0000000000000D+00
309  3.0800000000000D+00  0.0000000000000D+00  0.0000000000000D+00
310  3.0900000000000D+00  0.0000000000000D+00  0.0000000000000D+00
311  3.1000000000000D+00  0.0000000000000D+00  0.0000000000000D+00
312  3.1100000000000D+00  0.0000000000000D+00  0.0000000000000D+00
313  3.1200000000000D+00  0.0000000000000D+00  0.0000000000000D+00
314  3.1300000000000D+00  0.0000000000000D+00  0.0000000000000D+00
315  3.1400000000000D+00  0.0000000000000D+00  0.0000000000000D+00
316  3.1500000000000D+00  0.0000000000000D+00  0.0000000000000D+00
317  3.1600000000000D+00  0.0000000000000D+00  0.0000000000000D+00
318  3.1700000000000D+00  0.0000000000000D+00  0.0000000000000D+00
319  3.1800000000000D+00  0.0000000000000D+00  0.0000000000000D+00
320  3.1900000000000D+00  0.0000000000000D+00  0.0000000000000D+00
321  3.2000000000000D+00  0.0000000000000D+00  0.0000000000000D+00
322  3.2100000000000D+00  0.0000000000000D+00  0.0000000000000D+00
323  3.2200000000000D+00  0.0000000000000D+00  0.0000000000000D+00
324  3.2300000000000D+00  0.0000000000000D+00  0.0000000000000D+00
325  3.2400000000000D+00  0.0000000000000D+00  0.0000000000000D+00
326  3.2500000000000D+00  0.0000000000000D+00  0.0000000000000D+00
327  3.2600000000000D+00  0.0000000000000D+00  0.0000000000000D+00
328  3.2700000000000D+00  0.0000000000000D+00  0.0000000000000D+00
329  3.2800000000000D+00  0.0000000000000D+00  0.0000000000000D+00
330  3.2900000000000D+00  0.0000000000000D+00  0.0000000000000D+00
331  3.3000000000000D+00  0.0000000000000D+00  0.0000000000000D+00
332  3.3100000000000D+00  0.0000000000000D+00  0.0000000000000D+00
333  3.3200000000000D+00  0.0000000000000D+00  0.0000000000000D+00
334  3.3300000000000D+00  0.0000000000000D+00  0.0000000000000D+00
335  3.3400000000000D+00  0.0000000000000D+00  0.0000000000000D+00
336  3.3500000000000D+00  0.0000000000000D+00  0.0000000000000D+00
337  3.3600000000000D+00  0.0000000000000D+00  0.0000000000000D+00
338  3.3700000000000D+00  0.0000000000000D+00  0.0000000000000D+00
339  3.3800000000000D+00  0.0000000000000D+00  0.0000000000000D+00
340  3.3900000000000D+00  0.0000000000000D+00  0.0000000000000D+00
341  3.4000000000000D+00  0.0000000000000D+00  0.0000000000000D+00
342  3.4100000000000D+00  0.0000000000000D+00  0.0000000000000D+00
343  3.4200000000000D+00  0.0000000000000D+00  0.0000000000000D+00
344  3.4300000000000D+00  0.0000000000000D+00  0.0000000000000D+00
345  3.4400000000000D+00  0.0000000000000D+00  0.0000000000000D+00
346  3.4500000000000D+00  0.0000000000000D+00  0.0000000000000D+00
347  3.4600000000000D+00  0.0000000000000D+00  0.0000000000000D+00
348  3.4700000000000D+00  0.0000000000000D+00  0.0000000000000D+00
349  3.4800000000000D+00  0.0000000000000D+00  0.0000000000000D+00
350  3.4900000000000D+00  0.0000000000000D+00  0.0000000000000D+00
351  3.5000000000000D+00  0.0000000000000D+00  0.0000000000000D+00
352  3.5100000000000D+00  0.0000000000000D+00  0.0000000000000D+00
353  3.5200000000000D+00  0.0000000000000D+00  0.0000000000000D+00
354  3.5300000000000D+00  0.0000000000000D+00  0.0000000000000D+00
355  3.5400000000000D+00  0.0000000000000D+00  0.0000000000000D+00
356  3.5500000000000D+00  0.0000000000000D+00  0.0000000000000D+00
357  3.5600000000000D+00  0.0000000000000D+00  0.0000000000000D+00
358  3.5700000000000D+00  0.0000000000000D+00  0.0000000000000D+00
359  3.5800000000000D+00  0.0000000000000D+00  0.0000000000000D+00
360  3.5900000000000D+00  0.0000000000000D+00  0.0000000000000D+00
361  3.6000000000000D+00  0.0000000000000D+00  0.0000000000000D+00
362  3.6100000000000D+00  0.0000000000000D+00  0.0000000000000D+00
363  3.6200000000000D+00  0.0000000000000D+00  0.0000000000000D+00
364  3.6300000000000D+00  0.0000000000000D+00  0.0000000000000D+00
365  3.6400000000000D+00  0.0000000000000D+00  0.0000000000000D+00
366  3.6500000000000D+00  0.0000000000000D+00  0.0000000000000D+00
367  3.6600000000000D+00  0.0000000000000D+00  0.0000000000000D+00
368  3.6700000000000D+00  0.0000000000000D+00  0.0000000000000D+00
369  3.6800000000000D+00  0.0000000000000D+00  0.0000000000000D+00
370  3.6900000000000D+00  0.0000000000000D+00  0.0000000000000D+00
371  3.7000000000000D+00  0.0000000000000D+00  0.0000000000000D+00
372  3.7100000000000D+00  0.0000000000000D+00  0.0000000000000D+00
373  3.7200000000000D+00  0.0000000000000D+00  0.0000000000000D+00
374  3.7300000000000D+00  0.0000000000000D+00  0.0000000000000D+00
375  3.7400000000000D+00  0.0000000000000D+00  0.0000000000000D+00
376  3.7500000000000D+00  0.0000000000000D+00  0.0000000000000D+00
377  3.7600000000000D+00  0.0000000000000D+00  0.0000000000000D+00
378  3.7700000000000D+00  0.0000000000000D+00  0.0000000000000D+00
379  3.7800000000000D+00  0.0000000000000D+00  0.0000000000000D+00
380  3.7900000000000D+00  0.0000000000000D+00  0.0000000000000D+00
381  3.8000000000000D+00  0.0000000000000D+00  0.0000000000000D+00
382  3.8100000000000D+00  0.0000000000000D+00  0.0000000000000D+00
383  3.8200000000000D+00  0.0000000000000D+00  0.0000000000000D+00
384  3.8300000000000D+00  0.0000000000000D+00  0.0000000000000D+00
385  3.8400000000000D+00  0.0000000000000D+00  0.0000000000000D+00
386  3.8500000000000D+00  0.0000000000000D+00  0.0000000000000D+00
387  3.8600000000000D+00  0.0000000000000D+00  0.0000000000000D+00
388  3.8700000000000D+00  0.0000000000000D+00  0.0000000000000D+00
389  3.8800000000000D+00  0.0000000000000D+00  0.0000000000000D+00
390  3.8900000000000D+00  0.0000000000000D+00  0.0000000000000D+00
391  3.9000000000000D+00  0.0000000000000D+00  0.0000000000000D+00
392  3.9100000000000D+00  0.0000000000000D+00  0.0000000000000D+00
393  3.9200000000000D+00  0.0000000000000D+00  0.0000000000000D+00
394  3.9300000000000D+00  0.0000000000000D+00  0.0000000000000D+00
395  3.9400000000000D+00  0.0000000000000D+00  0.0000000000000D+00
396  3.9500000000000D+00  0.0000000000000D+00  0.0000000000000D+00
397  3.9600000000000D+00  0.0000000000000D+00  0.0000000000000D+00
398  3.9700000000000D+00  0.0000000000000D+00  0.0000000000000D+00
399  3.9800000000000D+00  0.0000000000000D+00  0.0000000000000D+00
400  3.9900000000000D+00  0.0000000000000D+00  0.0000000000000D+00
401  4.0000000000000D+00  0.0000000000000D+00  0.0000000000000D+00
402  4.0100000000000D+00  0.0000000000000D+00  0.0000000000000D+00
403  4.0200000000000D+00  0.0000000000000D+00  0.0000000000000D+00
404  4.0300000000000D+00  0.0000000000000D+00  0.0000000000000D+00
405  4.0400000000000D+00  0.0000000000000D+00  0.0000000000000D+00
406  4.0500000000000D+00  0.0000000000000D+00  0.0000000000000D+00
407  4.0600000000000D+00  0.0000000000000D+00  0.0000000000000D+00
408  4.0700000000000D+00  0.0000000000000D+00  0.0000000000000D+00
409  4.0800000000000D+00  0.0000000000000D+00  0.0000000000000D+00
410  4.0900000000000D+00  0.0000000000000D+00  0.0000000000000D+00
411  4.1000000000000D+00  0.0000000000000D+00  0.0000000000000D+00
412  4.1100000000000D+00  0.0000000000000D+00  0.0000000000000D+00
413  4.1200000000000D+00  0.0000000000000D+00  0.0000000000000D+00
414  4.1300000000000D+00  0.0000000000000D+00  0.0000000000000D+00
415  4.1400000000000D+00  0.0000000000000D+00  0.0000000000000D+00
416  4.1500000000000D+00  0.0000000000000D+00  0.0000000000000D+00
417  4.1600000000000D+00  0.0000000000000D+00  0.0000000000000D+00
418  4.1700000000000D+00  0.0000000000000D+00  0.0000000000000D+00
419  4.1800000000000D+00  0.0000000000000D+00  0.0000000000000D+00
420  4.1900000000000D+00  0.0000000000000D+00  0.0000000000000D+00
421  4.2000000000000D+00  0.0000000000000D+00  0.0000000000000D+00
422  4.2100000000000D+00  0.0000000000000D+00  0.0000000000000D+00
423  4.2200000000000D+00  0.0000000000000D+00  0.0000000000000D+00
424  4.2300000000000D+00  0.0000000000000D+00  0.0000000000000D+00
425  4.2400000000000D+00  0.0000000000000D+00  0.0000000000000D+00
426  4.2500000000000D+00  0.0000000000000D+00  0.0000000000000D+00
427  4.2600000000000D+00  0.0000000000000D+00  0.0000000000000D+00
428  4.2700000000000D+00  0.0000000000000D+00  0.0000000000000D+00
429  4.2800000000000D+00  0.0000000000000D+00  0.0000000000000D+00
430  4.2900000000000D+00  0.0000000000000D+00  0.0000000000000D+00
431  4.3000000000000D+00  0.0000000000000D+00  0.0000000000000D+00
432  4.3100000000000D+00  0.0000000000000D+00  0.0000000000000D+00
433  4.3200000000000D+00  0.0000000000000D+00  0.0000000000000D+00
434  4.3300000000000D+00  0.0000000000000D+00  0.0000000000000D+00
435  4.3400000000000D+00  0.0000000000000D+00  0.0000000000000D+00
436  4.3500000000000D+00  0.0000000000000D+00  0.0000000000000D+00
437  4.3600000000000D+00  0.0000000000000D+00  0.0000000000000D+00
438  4.3700000000000D+00  0.0000000000000D+00  0.0000000000000D+00
439  4.3800000000000D+00  0.0000000000000D+00  0.0000000000000D+00
440  4.3900000000000D+00  0.0000000000000D+00  0.0000000000000D+00
441  4.4000000000000D+00  0.0000000000000D+00  0.0000000000000D+00
442  4.4100000000000D+00  0.0000000000000D+00  0.0000000000000D+00
443  4.4200000000000D+00  0.0000000000000D+00  0.0000000000000D+00