Ni    ONCVPSP  r_core=  1.26  1.35  1.66
28.0000     18.0000      160520    zatom,zion,pspd
8      11   2     4   600     0    pspcod,pspxc,lmax,lloc,mmax,r2well
5.99000000  3.00000000  0.00000000    rchrg fchrg qchrg
2     3     2     0    nproj
3                 extension_switch
4     3     0    nprojso
0                        -2.2929395953555D-01  6.0675129958906D+00
1  0.0000000000000D+00 -2.3234316914866D-08 -2.7270005142910D-09
2  1.0000000000000D-02  5.5592932799895D-02  1.0395818968563D-01
3  2.0000000000000D-02  1.1035957104480D-01  2.0749316965176D-01
4  3.0000000000000D-02  1.6348971474025D-01  3.1018485434978D-01
5  4.0000000000000D-02  2.1420503761198D-01  4.1161936536386D-01
6  5.0000000000000D-02  2.6177424155719D-01  5.1139203266888D-01
7  6.0000000000000D-02  3.0552728915082D-01  6.0911027510542D-01
8  7.0000000000000D-02  3.4486843479158D-01  7.0439632308319D-01
9  8.0000000000000D-02  3.7928779830683D-01  7.9688974925120D-01
10  9.0000000000000D-02  4.0837125304320D-01  8.8624977618622D-01
11  1.0000000000000D-01  4.3180843311764D-01  9.7215733398836D-01
12  1.1000000000000D-01  4.4939870097235D-01  1.0543168449644D+00
13  1.2000000000000D-01  4.6105495597499D-01  1.1324577172452D+00
14  1.3000000000000D-01  4.6680520678017D-01  1.2063355341376D+00
15  1.4000000000000D-01  4.6679187372100D-01  1.2757329311615D+00
16  1.5000000000000D-01  4.6126883179923D-01  1.3404601579743D+00
17  1.6000000000000D-01  4.5059624904261D-01  1.4003553276406D+00
18  1.7000000000000D-01  4.3523331825052D-01  1.4552843608666D+00
19  1.8000000000000D-01  4.1572902162306D-01  1.5051406377930D+00
20  1.9000000000000D-01  3.9271110666070D-01  1.5498443746301D+00
21  2.0000000000000D-01  3.6687348727972D-01  1.5893417467471D+00
22  2.1000000000000D-01  3.3896231561543D-01  1.6236037837004D+00
23  2.2000000000000D-01  3.0976099686136D-01  1.6526250650477D+00
24  2.3000000000000D-01  2.8007444118281D-01  1.6764222485691D+00
25  2.4000000000000D-01  2.5071286280769D-01  1.6950324646642D+00
26  2.5000000000000D-01  2.2247544650337D-01  1.7085116121683D+00
27  2.6000000000000D-01  1.9613420557222D-01  1.7169325916123D+00
28  2.7000000000000D-01  1.7241835313422D-01  1.7203835120196D+00
29  2.8000000000000D-01  1.5199949982757D-01  1.7189659066942D+00
30  2.9000000000000D-01  1.3547797627808D-01  1.7127929921273D+00
31  3.0000000000000D-01  1.2337055801766D-01  1.7019880021445D+00
32  3.1000000000000D-01  1.1609984433530D-01  1.6866826267982D+00
33  3.2000000000000D-01  1.1398551129286D-01  1.6670155823112D+00
34  3.3000000000000D-01  1.1723762340407D-01  1.6431313346721D+00
35  3.4000000000000D-01  1.2595214891970D-01  1.6151789953459D+00
36  3.5000000000000D-01  1.4010878102514D-01  1.5833114030730D+00
37  3.6000000000000D-01  1.5957112233613D-01  1.5476844009780D+00
38  3.7000000000000D-01  1.8408924373442D-01  1.5084563132945D+00
39  3.8000000000000D-01  2.1330458169309D-01  1.4657876210288D+00
40  3.9000000000000D-01  2.4675709171479D-01  1.4198408309385D+00
41  4.0000000000000D-01  2.8389453023741D-01  1.3707805273932D+00
42  4.1000000000000D-01  3.2408369424323D-01  1.3187735921047D+00
43  4.2000000000000D-01  3.6662340768880D-01  1.2639895724730D+00
44  4.3000000000000D-01  4.1075900755276D-01  1.2066011754646D+00
45  4.4000000000000D-01  4.5569805051370D-01  1.1467848606165D+00
46  4.5000000000000D-01  5.0062693467353D-01  1.0847215030012D+00
47  4.6000000000000D-01  5.4472810989153D-01  1.0205970948742D+00
48  4.7000000000000D-01  5.8719753564562D-01  9.5460345328113D-01
49  4.8000000000000D-01  6.2726203722851D-01  8.8693890018828D-01
50  4.9000000000000D-01  6.6419620973113D-01  8.1780888171807D-01
51  5.0000000000000D-01  6.9733852475974D-01  7.4742649384189D-01
52  5.1000000000000D-01  7.2610630711351D-01  6.7601288339063D-01
53  5.2000000000000D-01  7.5000926756873D-01  6.0379749547060D-01
54  5.3000000000000D-01  7.6866130315712D-01  5.3101814128026D-01
55  5.4000000000000D-01  7.8179030743317D-01  4.5792086385797D-01
56  5.5000000000000D-01  7.8924576971398D-01  3.8475958339431D-01
57  5.6000000000000D-01  7.9100398345080D-01  3.1179550833500D-01
58  5.7000000000000D-01  7.8717072893309D-01  2.3929630348563D-01
59  5.8000000000000D-01  7.7798134384722D-01  1.6753501164036D-01
60  5.9000000000000D-01  7.6379814545480D-01  9.6788730738633D-02
61  6.0000000000000D-01  7.4510522000237D-01  2.7337054167824D-02
62  6.1000000000000D-01  7.2250064668892D-01 -4.0539712617814D-02
63  6.2000000000000D-01  6.9668627483167D-01 -1.0656254053483D-01
64  6.3000000000000D-01  6.6845522223177D-01 -1.7045584654899D-01
65  6.4000000000000D-01  6.3867730937849D-01 -2.3194981594401D-01
66  6.5000000000000D-01  6.0828268732077D-01 -2.9078284413352D-01
67  6.6000000000000D-01  5.7824395541485D-01 -3.4670406115599D-01
68  6.7000000000000D-01  5.4955709841568D-01 -3.9947589880024D-01
69  6.8000000000000D-01  5.2322159959947D-01 -4.4887665783697D-01
70  6.9000000000000D-01  5.0022010713644D-01 -4.9470303114774D-01
71  7.0000000000000D-01  4.8149804445311D-01 -5.3677253767567D-01
72  7.1000000000000D-01  4.6794356146296D-01 -5.7492582211892D-01
73  7.2000000000000D-01  4.6036822201033D-01 -6.0902877616140D-01
74  7.3000000000000D-01  4.5948881374701D-01 -6.3897443878058D-01
75  7.4000000000000D-01  4.6591064989110D-01 -6.6468463578464D-01
76  7.5000000000000D-01  4.8011270846410D-01 -6.8611132213661D-01
77  7.6000000000000D-01  5.0243492345754D-01 -7.0323759484806D-01
78  7.7000000000000D-01  5.3306790518837D-01 -7.1607834910723D-01
79  7.8000000000000D-01  5.7204532397412D-01 -7.2468055583658D-01
80  7.9000000000000D-01  6.1923914321958D-01 -7.2912314492477D-01
81  8.0000000000000D-01  6.7435783586663D-01 -7.2951648484873D-01
82  8.1000000000000D-01  7.3694766288676D-01 -7.2600145617770D-01
83  8.2000000000000D-01  8.0639703512844D-01 -7.1874812340690D-01
84  8.3000000000000D-01  8.8194392144785D-01 -7.0795401657671D-01
85  8.4000000000000D-01  9.6268620777013D-01 -6.9384204106144D-01
86  8.5000000000000D-01  1.0475948546667D+00 -6.7665804062753D-01
87  8.6000000000000D-01  1.1355296463030D+00 -6.5666804523584D-01
88  8.7000000000000D-01  1.2252572722841D+00 -6.3415524097062D-01
89  8.8000000000000D-01  1.3154714370198D+00 -6.0941670480151D-01
90  8.9000000000000D-01  1.4048146496867D+00 -5.8275995151720D-01
91  9.0000000000000D-01  1.4919013125301D+00 -5.5449934401323D-01
92  9.1000000000000D-01  1.5753416968560D+00 -5.2495242108997D-01
93  9.2000000000000D-01  1.6537663752152D+00 -4.9443619895393D-01
94  9.3000000000000D-01  1.7258506654524D+00 -4.6326350366527D-01
95  9.4000000000000D-01  1.7903386377802D+00 -4.3173939180703D-01
96  9.5000000000000D-01  1.8460662400211D+00 -4.0015771565261D-01
97  9.6000000000000D-01  1.8919831086078D+00 -3.6879788708607D-01
98  9.7000000000000D-01  1.9271726536919D+00 -3.3792189151065D-01
99  9.8000000000000D-01  1.9508700353011D+00 -3.0777159902764D-01
100  9.9000000000000D-01  1.9624776846821D+00 -2.7856641518341D-01
101  1.0000000000000D+00  1.9615780657010D+00 -2.5050130821813D-01
102  1.0100000000000D+00  1.9479434232506D+00 -2.2374524299555D-01
103  1.0200000000000D+00  1.9215423179796D+00 -1.9844004507741D-01
104  1.0300000000000D+00  1.8825428059363D+00 -1.7469971086078D-01
105  1.0400000000000D+00  1.8313121828838D+00 -1.5261017196720D-01
106  1.0500000000000D+00  1.7684132790382D+00 -1.3222951378486D-01
107  1.0600000000000D+00  1.6945973485737D+00 -1.1358864073715D-01
108  1.0700000000000D+00  1.6107936691001D+00 -9.6692372031459D-02
109  1.0800000000000D+00  1.5180960242864D+00 -8.1520944462736D-02
110  1.0900000000000D+00  1.4177463028406D+00 -6.8031891432359D-02
111  1.1000000000000D+00  1.3111155053755D+00 -5.6162260176047D-02
112  1.1100000000000D+00  1.1996824927040D+00 -4.5831124042865D-02
113  1.1200000000000D+00  1.0850108649243D+00 -3.6942339861746D-02
114  1.1300000000000D+00  9.6872438925400D-01 -2.9387496972102D-02
115  1.1400000000000D+00  8.5248142790931D-01 -2.3049000485558D-02
116  1.1500000000000D+00  7.3794883572052D-01 -1.7803229150737D-02
117  1.1600000000000D+00  6.2677581486621D-01 -1.3523706139408D-02
118  1.1700000000000D+00  5.2056822889062D-01 -1.0084220042573D-02
119  1.1800000000000D+00  4.2086385604351D-01 -7.3618350368540D-03
120  1.1900000000000D+00  3.2910846140197D-01 -5.2397784164835D-03
121  1.2000000000000D+00  2.4663577258723D-01 -3.6099420777539D-03
122  1.2100000000000D+00  1.7464670566668D-01 -2.3753412980800D-03
123  1.2200000000000D+00  1.1419465724727D-01 -1.4536624826773D-03
124  1.2300000000000D+00  6.6066970683271D-02 -7.7956491243913D-04
125  1.2400000000000D+00  3.0683116350135D-02 -3.0731067613300D-04
126  1.2500000000000D+00  9.5233884841170D-03 -1.7407759167910D-05
127  1.2600000000000D+00  1.0961492344700D-03  9.5200036994573D-05
128  1.2700000000000D+00 -3.4677929036293D-04  4.8878976574995D-05
129  1.2800000000000D+00  1.2295696073940D-04 -1.1109800581980D-05
130  1.2900000000000D+00  4.7539985690841D-05 -3.5832418821575D-06
131  1.3000000000000D+00 -2.5773542501979D-05  2.8193943662686D-06
132  1.3100000000000D+00 -1.1913047721984D-06 -1.6762471946103D-07
133  1.3200000000000D+00 -9.8420411616840D-07 -1.3848424241656D-07
134  1.3300000000000D+00  0.0000000000000D+00  0.0000000000000D+00
135  1.3400000000000D+00  0.0000000000000D+00  0.0000000000000D+00
136  1.3500000000000D+00  0.0000000000000D+00  0.0000000000000D+00
137  1.3600000000000D+00  0.0000000000000D+00  0.0000000000000D+00
138  1.3700000000000D+00  0.0000000000000D+00  0.0000000000000D+00
139  1.3800000000000D+00  0.0000000000000D+00  0.0000000000000D+00
140  1.3900000000000D+00  0.0000000000000D+00  0.0000000000000D+00
141  1.4000000000000D+00  0.0000000000000D+00  0.0000000000000D+00
142  1.4100000000000D+00  0.0000000000000D+00  0.0000000000000D+00
143  1.4200000000000D+00  0.0000000000000D+00  0.0000000000000D+00
144  1.4300000000000D+00  0.0000000000000D+00  0.0000000000000D+00
145  1.4400000000000D+00  0.0000000000000D+00  0.0000000000000D+00
146  1.4500000000000D+00  0.0000000000000D+00  0.0000000000000D+00
147  1.4600000000000D+00  0.0000000000000D+00  0.0000000000000D+00
148  1.4700000000000D+00  0.0000000000000D+00  0.0000000000000D+00
149  1.4800000000000D+00  0.0000000000000D+00  0.0000000000000D+00
150  1.4900000000000D+00  0.0000000000000D+00  0.0000000000000D+00
151  1.5000000000000D+00  0.0000000000000D+00  0.0000000000000D+00
152  1.5100000000000D+00  0.0000000000000D+00  0.0000000000000D+00
153  1.5200000000000D+00  0.0000000000000D+00  0.0000000000000D+00
154  1.5300000000000D+00  0.0000000000000D+00  0.0000000000000D+00
155  1.5400000000000D+00  0.0000000000000D+00  0.0000000000000D+00
156  1.5500000000000D+00  0.0000000000000D+00  0.0000000000000D+00
157  1.5600000000000D+00  0.0000000000000D+00  0.0000000000000D+00
158  1.5700000000000D+00  0.0000000000000D+00  0.0000000000000D+00
159  1.5800000000000D+00  0.0000000000000D+00  0.0000000000000D+00
160  1.5900000000000D+00  0.0000000000000D+00  0.0000000000000D+00
161  1.6000000000000D+00  0.0000000000000D+00  0.0000000000000D+00
162  1.6100000000000D+00  0.0000000000000D+00  0.0000000000000D+00
163  1.6200000000000D+00  0.0000000000000D+00  0.0000000000000D+00
164  1.6300000000000D+00  0.0000000000000D+00  0.0000000000000D+00
165  1.6400000000000D+00  0.0000000000000D+00  0.0000000000000D+00
166  1.6500000000000D+00  0.0000000000000D+00  0.0000000000000D+00
167  1.6600000000000D+00  0.0000000000000D+00  0.0000000000000D+00
168  1.6700000000000D+00  0.0000000000000D+00  0.0000000000000D+00
169  1.6800000000000D+00  0.0000000000000D+00  0.0000000000000D+00
170  1.6900000000000D+00  0.0000000000000D+00  0.0000000000000D+00
171  1.7000000000000D+00  0.0000000000000D+00  0.0000000000000D+00
172  1.7100000000000D+00  0.0000000000000D+00  0.0000000000000D+00
173  1.7200000000000D+00  0.0000000000000D+00  0.0000000000000D+00
174  1.7300000000000D+00  0.0000000000000D+00  0.0000000000000D+00
175  1.7400000000000D+00  0.0000000000000D+00  0.0000000000000D+00
176  1.7500000000000D+00  0.0000000000000D+00  0.0000000000000D+00
177  1.7600000000000D+00  0.0000000000000D+00  0.0000000000000D+00
178  1.7700000000000D+00  0.0000000000000D+00  0.0000000000000D+00
179  1.7800000000000D+00  0.0000000000000D+00  0.0000000000000D+00
180  1.7900000000000D+00  0.0000000000000D+00  0.0000000000000D+00
181  1.8000000000000D+00  0.0000000000000D+00  0.0000000000000D+00
182  1.8100000000000D+00  0.0000000000000D+00  0.0000000000000D+00
183  1.8200000000000D+00  0.0000000000000D+00  0.0000000000000D+00
184  1.8300000000000D+00  0.0000000000000D+00  0.0000000000000D+00
185  1.8400000000000D+00  0.0000000000000D+00  0.0000000000000D+00
186  1.8500000000000D+00  0.0000000000000D+00  0.0000000000000D+00
187  1.8600000000000D+00  0.0000000000000D+00  0.0000000000000D+00
188  1.8700000000000D+00  0.0000000000000D+00  0.0000000000000D+00
189  1.8800000000000D+00  0.0000000000000D+00  0.0000000000000D+00
190  1.8900000000000D+00  0.0000000000000D+00  0.0000000000000D+00
191  1.9000000000000D+00  0.0000000000000D+00  0.0000000000000D+00
192  1.9100000000000D+00  0.0000000000000D+00  0.0000000000000D+00
193  1.9200000000000D+00  0.0000000000000D+00  0.0000000000000D+00
194  1.9300000000000D+00  0.0000000000000D+00  0.0000000000000D+00
195  1.9400000000000D+00  0.0000000000000D+00  0.0000000000000D+00
196  1.9500000000000D+00  0.0000000000000D+00  0.0000000000000D+00
197  1.9600000000000D+00  0.0000000000000D+00  0.0000000000000D+00
198  1.9700000000000D+00  0.0000000000000D+00  0.0000000000000D+00
199  1.9800000000000D+00  0.0000000000000D+00  0.0000000000000D+00
200  1.9900000000000D+00  0.0000000000000D+00  0.0000000000000D+00
201  2.0000000000000D+00  0.0000000000000D+00  0.0000000000000D+00
202  2.0100000000000D+00  0.0000000000000D+00  0.0000000000000D+00
203  2.0200000000000D+00  0.0000000000000D+00  0.0000000000000D+00
204  2.0300000000000D+00  0.0000000000000D+00  0.0000000000000D+00
205  2.0400000000000D+00  0.0000000000000D+00  0.0000000000000D+00
206  2.0500000000000D+00  0.0000000000000D+00  0.0000000000000D+00
207  2.0600000000000D+00  0.0000000000000D+00  0.0000000000000D+00
208  2.0700000000000D+00  0.0000000000000D+00  0.0000000000000D+00
209  2.0800000000000D+00  0.0000000000000D+00  0.0000000000000D+00
210  2.0900000000000D+00  0.0000000000000D+00  0.0000000000000D+00
211  2.1000000000000D+00  0.0000000000000D+00  0.0000000000000D+00
212  2.1100000000000D+00  0.0000000000000D+00  0.0000000000000D+00
213  2.1200000000000D+00  0.0000000000000D+00  0.0000000000000D+00
214  2.1300000000000D+00  0.0000000000000D+00  0.0000000000000D+00
215  2.1400000000000D+00  0.0000000000000D+00  0.0000000000000D+00
216  2.1500000000000D+00  0.0000000000000D+00  0.0000000000000D+00
217  2.1600000000000D+00  0.0000000000000D+00  0.0000000000000D+00
218  2.1700000000000D+00  0.0000000000000D+00  0.0000000000000D+00
219  2.1800000000000D+00  0.0000000000000D+00  0.0000000000000D+00
220  2.1900000000000D+00  0.0000000000000D+00  0.0000000000000D+00
221  2.2000000000000D+00  0.0000000000000D+00  0.0000000000000D+00
222  2.2100000000000D+00  0.0000000000000D+00  0.0000000000000D+00
223  2.2200000000000D+00  0.0000000000000D+00  0.0000000000000D+00
224  2.2300000000000D+00  0.0000000000000D+00  0.0000000000000D+00
225  2.2400000000000D+00  0.0000000000000D+00  0.0000000000000D+00
226  2.2500000000000D+00  0.0000000000000D+00  0.0000000000000D+00
227  2.2600000000000D+00  0.0000000000000D+00  0.0000000000000D+00
228  2.2700000000000D+00  0.0000000000000D+00  0.0000000000000D+00
229  2.2800000000000D+00  0.0000000000000D+00  0.0000000000000D+00
230  2.2900000000000D+00  0.0000000000000D+00  0.0000000000000D+00
231  2.3000000000000D+00  0.0000000000000D+00  0.0000000000000D+00
232  2.3100000000000D+00  0.0000000000000D+00  0.0000000000000D+00
233  2.3200000000000D+00  0.0000000000000D+00  0.0000000000000D+00
234  2.3300000000000D+00  0.0000000000000D+00  0.0000000000000D+00
235  2.3400000000000D+00  0.0000000000000D+00  0.0000000000000D+00
236  2.3500000000000D+00  0.0000000000000D+00  0.0000000000000D+00
237  2.3600000000000D+00  0.0000000000000D+00  0.0000000000000D+00
238  2.3700000000000D+00  0.0000000000000D+00  0.0000000000000D+00
239  2.3800000000000D+00  0.0000000000000D+00  0.0000000000000D+00
240  2.3900000000000D+00  0.0000000000000D+00  0.0000000000000D+00
241  2.4000000000000D+00  0.0000000000000D+00  0.0000000000000D+00
242  2.4100000000000D+00  0.0000000000000D+00  0.0000000000000D+00
243  2.4200000000000D+00  0.0000000000000D+00  0.0000000000000D+00
244  2.4300000000000D+00  0.0000000000000D+00  0.0000000000000D+00
245  2.4400000000000D+00  0.0000000000000D+00  0.0000000000000D+00
246  2.4500000000000D+00  0.0000000000000D+00  0.0000000000000D+00
247  2.4600000000000D+00  0.0000000000000D+00  0.0000000000000D+00
248  2.4700000000000D+00  0.0000000000000D+00  0.0000000000000D+00
249  2.4800000000000D+00  0.0000000000000D+00  0.0000000000000D+00
250  2.4900000000000D+00  0.0000000000000D+00  0.0000000000000D+00
251  2.5000000000000D+00  0.0000000000000D+00  0.0000000000000D+00
252  2.5100000000000D+00  0.0000000000000D+00  0.0000000000000D+00
253  2.5200000000000D+00  0.0000000000000D+00  0.0000000000000D+00
254  2.5300000000000D+00  0.0000000000000D+00  0.0000000000000D+00
255  2.5400000000000D+00  0.0000000000000D+00  0.0000000000000D+00
256  2.5500000000000D+00  0.0000000000000D+00  0.0000000000000D+00
257  2.5600000000000D+00  0.0000000000000D+00  0.0000000000000D+00
258  2.5700000000000D+00  0.0000000000000D+00  0.0000000000000D+00
259  2.5800000000000D+00  0.0000000000000D+00  0.0000000000000D+00
260  2.5900000000000D+00  0.0000000000000D+00  0.0000000000000D+00
261  2.6000000000000D+00  0.0000000000000D+00  0.0000000000000D+00
262  2.6100000000000D+00  0.0000000000000D+00  0.0000000000000D+00
263  2.6200000000000D+00  0.0000000000000D+00  0.0000000000000D+00
264  2.6300000000000D+00  0.0000000000000D+00  0.0000000000000D+00
265  2.6400000000000D+00  0.0000000000000D+00  0.0000000000000D+00
266  2.6500000000000D+00  0.0000000000000D+00  0.0000000000000D+00
267  2.6600000000000D+00  0.0000000000000D+00  0.0000000000000D+00
268  2.6700000000000D+00  0.0000000000000D+00  0.0000000000000D+00
269  2.6800000000000D+00  0.0000000000000D+00  0.0000000000000D+00
270  2.6900000000000D+00  0.0000000000000D+00  0.0000000000000D+00
271  2.7000000000000D+00  0.0000000000000D+00  0.0000000000000D+00
272  2.7100000000000D+00  0.0000000000000D+00  0.0000000000000D+00
273  2.7200000000000D+00  0.0000000000000D+00  0.0000000000000D+00
274  2.7300000000000D+00  0.0000000000000D+00  0.0000000000000D+00
275  2.7400000000000D+00  0.0000000000000D+00  0.0000000000000D+00
276  2.7500000000000D+00  0.0000000000000D+00  0.0000000000000D+00
277  2.7600000000000D+00  0.0000000000000D+00  0.0000000000000D+00
278  2.7700000000000D+00  0.0000000000000D+00  0.0000000000000D+00
279  2.7800000000000D+00  0.0000000000000D+00  0.0000000000000D+00
280  2.7900000000000D+00  0.0000000000000D+00  0.0000000000000D+00
281  2.8000000000000D+00  0.0000000000000D+00  0.0000000000000D+00
282  2.8100000000000D+00  0.0000000000000D+00  0.0000000000000D+00
283  2.8200000000000D+00  0.0000000000000D+00  0.0000000000000D+00
284  2.8300000000000D+00  0.0000000000000D+00  0.0000000000000D+00
285  2.8400000000000D+00  0.0000000000000D+00  0.0000000000000D+00
286  2.8500000000000D+00  0.0000000000000D+00  0.0000000000000D+00
287  2.8600000000000D+00  0.0000000000000D+00  0.0000000000000D+00
288  2.8700000000000D+00  0.0000000000000D+00  0.0000000000000D+00
289  2.8800000000000D+00  0.0000000000000D+00  0.0000000000000D+00
290  2.8900000000000D+00  0.0000000000000D+00  0.0000000000000D+00
291  2.9000000000000D+00  0.0000000000000D+00  0.0000000000000D+00
292  2.9100000000000D+00  0.0000000000000D+00  0.0000000000000D+00
293  2.9200000000000D+00  0.0000000000000D+00  0.0000000000000D+00
294  2.9300000000000D+00  0.0000000000000D+00  0.0000000000000D+00
295  2.9400000000000D+00  0.0000000000000D+00  0.0000000000000D+00
296  2.9500000000000D+00  0.0000000000000D+00  0.0000000000000D+00
297  2.9600000000000D+00  0.0000000000000D+00  0.0000000000000D+00
298  2.9700000000000D+00  0.0000000000000D+00  0.0000000000000D+00
299  2.9800000000000D+00  0.0000000000000D+00  0.0000000000000D+00
300  2.9900000000000D+00  0.0000000000000D+00  0.0000000000000D+00
301  3.0000000000000D+00  0.0000000000000D+00  0.0000000000000D+00
302  3.0100000000000D+00  0.0000000000000D+00  0.0000000000000D+00
303  3.0200000000000D+00  0.0000000000000D+00  0.0000000000000D+00
304  3.0300000000000D+00  0.0000000000000D+00  0.0000000000000D+00
305  3.0400000000000D+00  0.0000000000000D+00  0.0000000000000D+00
306  3.0500000000000D+00  0.0000000000000D+00  0.0000000000000D+00
307  3.0600000000000D+00  0.0000000000000D+00  0.0000000000000D+00
308  3.0700000000000D+00  0.0000000000000D+00  0.0000000000000D+00
309  3.0800000000000D+00  0.0000000000000D+00  0.0000000000000D+00
310  3.0900000000000D+00  0.0000000000000D+00  0.0000000000000D+00
311  3.1000000000000D+00  0.0000000000000D+00  0.0000000000000D+00
312  3.1100000000000D+00  0.0000000000000D+00  0.0000000000000D+00
313  3.1200000000000D+00  0.0000000000000D+00  0.0000000000000D+00
314  3.1300000000000D+00  0.0000000000000D+00  0.0000000000000D+00
315  3.1400000000000D+00  0.0000000000000D+00  0.0000000000000D+00
316  3.1500000000000D+00  0.0000000000000D+00  0.0000000000000D+00
317  3.1600000000000D+00  0.0000000000000D+00  0.0000000000000D+00
318  3.1700000000000D+00  0.0000000000000D+00  0.0000000000000D+00
319  3.1800000000000D+00  0.0000000000000D+00  0.0000000000000D+00
320  3.1900000000000D+00  0.0000000000000D+00  0.0000000000000D+00
321  3.2000000000000D+00  0.0000000000000D+00  0.0000000000000D+00
322  3.2100000000000D+00  0.0000000000000D+00  0.0000000000000D+00
323  3.2200000000000D+00  0.0000000000000D+00  0.0000000000000D+00
324  3.2300000000000D+00  0.0000000000000D+00  0.0000000000000D+00
325  3.2400000000000D+00  0.0000000000000D+00  0.0000000000000D+00
326  3.2500000000000D+00  0.0000000000000D+00  0.0000000000000D+00
327  3.2600000000000D+00  0.0000000000000D+00  0.0000000000000D+00
328  3.2700000000000D+00  0.0000000000000D+00  0.0000000000000D+00
329  3.2800000000000D+00  0.0000000000000D+00  0.0000000000000D+00
330  3.2900000000000D+00  0.0000000000000D+00  0.0000000000000D+00
331  3.3000000000000D+00  0.0000000000000D+00  0.0000000000000D+00
332  3.3100000000000D+00  0.0000000000000D+00  0.0000000000000D+00
333  3.3200000000000D+00  0.0000000000000D+00  0.0000000000000D+00
334  3.3300000000000D+00  0.0000000000000D+00  0.0000000000000D+00
335  3.3400000000000D+00  0.0000000000000D+00  0.0000000000000D+00
336  3.3500000000000D+00  0.0000000000000D+00  0.0000000000000D+00
337  3.3600000000000D+00  0.0000000000000D+00  0.0000000000000D+00
338  3.3700000000000D+00  0.0000000000000D+00  0.0000000000000D+00
339  3.3800000000000D+00  0.0000000000000D+00  0.0000000000000D+00
340  3.3900000000000D+00  0.0000000000000D+00  0.0000000000000D+00
341  3.4000000000000D+00  0.0000000000000D+00  0.0000000000000D+00
342  3.4100000000000D+00  0.0000000000000D+00  0.0000000000000D+00
343  3.4200000000000D+00  0.0000000000000D+00  0.0000000000000D+00
344  3.4300000000000D+00  0.0000000000000D+00  0.0000000000000D+00
345  3.4400000000000D+00  0.0000000000000D+00  0.0000000000000D+00
346  3.4500000000000D+00  0.0000000000000D+00  0.0000000000000D+00
347  3.4600000000000D+00  0.0000000000000D+00  0.0000000000000D+00
348  3.4700000000000D+00  0.0000000000000D+00  0.0000000000000D+00
349  3.4800000000000D+00  0.0000000000000D+00  0.0000000000000D+00
350  3.4900000000000D+00  0.0000000000000D+00  0.0000000000000D+00
351  3.5000000000000D+00  0.0000000000000D+00  0.0000000000000D+00
352  3.5100000000000D+00  0.0000000000000D+00  0.0000000000000D+00
353  3.5200000000000D+00  0.0000000000000D+00  0.0000000000000D+00
354  3.5300000000000D+00  0.0000000000000D+00  0.0000000000000D+00
355  3.5400000000000D+00  0.0000000000000D+00  0.0000000000000D+00
356  3.5500000000000D+00  0.0000000000000D+00  0.0000000000000D+00
357  3.5600000000000D+00  0.0000000000000D+00  0.0000000000000D+00
358  3.5700000000000D+00  0.0000000000000D+00  0.0000000000000D+00
359  3.5800000000000D+00  0.0000000000000D+00  0.0000000000000D+00
360  3.5900000000000D+00  0.0000000000000D+00  0.0000000000000D+00
361  3.6000000000000D+00  0.0000000000000D+00  0.0000000000000D+00
362  3.6100000000000D+00  0.0000000000000D+00  0.0000000000000D+00
363  3.6200000000000D+00  0.0000000000000D+00  0.0000000000000D+00
364  3.6300000000000D+00  0.0000000000000D+00  0.0000000000000D+00
365  3.6400000000000D+00  0.0000000000000D+00  0.0000000000000D+00
366  3.6500000000000D+00  0.0000000000000D+00  0.0000000000000D+00
367  3.6600000000000D+00  0.0000000000000D+00  0.0000000000000D+00
368  3.6700000000000D+00  0.0000000000000D+00  0.0000000000000D+00
369  3.6800000000000D+00  0.0000000000000D+00  0.0000000000000D+00
370  3.6900000000000D+00  0.0000000000000D+00  0.0000000000000D+00
371  3.7000000000000D+00  0.0000000000000D+00  0.0000000000000D+00
372  3.7100000000000D+00  0.0000000000000D+00  0.0000000000000D+00
373  3.7200000000000D+00  0.0000000000000D+00  0.0000000000000D+00
374  3.7300000000000D+00  0.0000000000000D+00  0.0000000000000D+00
375  3.7400000000000D+00  0.0000000000000D+00  0.0000000000000D+00
376  3.7500000000000D+00  0.0000000000000D+00  0.0000000000000D+00
377  3.7600000000000D+00  0.0000000000000D+00  0.0000000000000D+00
378  3.7700000000000D+00  0.0000000000000D+00  0.0000000000000D+00
379  3.7800000000000D+00  0.0000000000000D+00  0.0000000000000D+00
380  3.7900000000000D+00  0.0000000000000D+00  0.0000000000000D+00
381  3.8000000000000D+00  0.0000000000000D+00  0.0000000000000D+00
382  3.8100000000000D+00  0.0000000000000D+00  0.0000000000000D+00
383  3.8200000000000D+00  0.0000000000000D+00  0.0000000000000D+00
384  3.8300000000000D+00  0.0000000000000D+00  0.0000000000000D+00
385  3.8400000000000D+00  0.0000000000000D+00  0.0000000000000D+00
386  3.8500000000000D+00  0.0000000000000D+00  0.0000000000000D+00
387  3.8600000000000D+00  0.0000000000000D+00  0.0000000000000D+00
388  3.8700000000000D+00  0.0000000000000D+00  0.0000000000000D+00
389  3.8800000000000D+00  0.0000000000000D+00  0.0000000000000D+00
390  3.8900000000000D+00  0.0000000000000D+00  0.0000000000000D+00
391  3.9000000000000D+00  0.0000000000000D+00  0.0000000000000D+00
392  3.9100000000000D+00  0.0000000000000D+00  0.0000000000000D+00
393  3.9200000000000D+00  0.0000000000000D+00  0.0000000000000D+00
394  3.9300000000000D+00  0.0000000000000D+00  0.0000000000000D+00
395  3.9400000000000D+00  0.0000000000000D+00  0.0000000000000D+00
396  3.9500000000000D+00  0.0000000000000D+00  0.0000000000000D+00
397  3.9600000000000D+00  0.0000000000000D+00  0.0000000000000D+00
398  3.9700000000000D+00  0.0000000000000D+00  0.0000000000000D+00
399  3.9800000000000D+00  0.0000000000000D+00  0.0000000000000D+00
400  3.9900000000000D+00  0.0000000000000D+00  0.0000000000000D+00
401  4.0000000000000D+00  0.0000000000000D+00  0.0000000000000D+00
402  4.0100000000000D+00  0.0000000000000D+00  0.0000000000000D+00
403  4.0200000000000D+00  0.0000000000000D+00  0.0000000000000D+00
404  4.0300000000000D+00  0.0000000000000D+00  0.0000000000000D+00
405  4.0400000000000D+00  0.0000000000000D+00  0.0000000000000D+00
406  4.0500000000000D+00  0.0000000000000D+00  0.0000000000000D+00
407  4.0600000000000D+00  0.0000000000000D+00  0.0000000000000D+00
408  4.0700000000000D+00  0.0000000000000D+00  0.0000000000000D+00
409  4.0800000000000D+00  0.0000000000000D+00  0.0000000000000D+00
410  4.0900000000000D+00  0.0000000000000D+00  0.0000000000000D+00
411  4.1000000000000D+00  0.0000000000000D+00  0.0000000000000D+00
412  4.1100000000000D+00  0.0000000000000D+00  0.0000000000000D+00
413  4.1200000000000D+00  0.0000000000000D+00  0.0000000000000D+00
414  4.1300000000000D+00  0.0000000000000D+00  0.0000000000000D+00
415  4.1400000000000D+00  0.0000000000000D+00  0.0000000000000D+00
416  4.1500000000000D+00  0.0000000000000D+00  0.0000000000000D+00
417  4.1600000000000D+00  0.0000000000000D+00  0.0000000000000D+00
418  4.1700000000000D+00  0.0000000000000D+00  0.0000000000000D+00
419  4.1800000000000D+00  0.0000000000000D+00  0.0000000000000D+00
420  4.1900000000000D+00  0.0000000000000D+00  0.0000000000000D+00
421  4.2000000000000D+00  0.0000000000000D+00  0.0000000000000D+00
422  4.2100000000000D+00  0.0000000000000D+00  0.0000000000000D+00
423  4.2200000000000D+00  0.0000000000000D+00  0.0000000000000D+00
424  4.2300000000000D+00  0.0000000000000D+00  0.0000000000000D+00
425  4.2400000000000D+00  0.0000000000000D+00  0.0000000000000D+00
426  4.2500000000000D+00  0.0000000000000D+00  0.0000000000000D+00
427  4.2600000000000D+00  0.0000000000000D+00  0.0000000000000D+00
428  4.2700000000000D+00  0.0000000000000D+00  0.0000000000000D+00
429  4.2800000000000D+00  0.0000000000000D+00  0.0000000000000D+00
430  4.2900000000000D+00  0.0000000000000D+00  0.0000000000000D+00
431  4.3000000000000D+00  0.0000000000000D+00  0.0000000000000D+00
432  4.3100000000000D+00  0.0000000000000D+00  0.0000000000000D+00
433  4.3200000000000D+00  0.0000000000000D+00  0.0000000000000D+00
434  4.3300000000000D+00  0.0000000000000D+00  0.0000000000000D+00
435  4.3400000000000D+00  0.0000000000000D+00  0.0000000000000D+00
436  4.3500000000000D+00  0.0000000000000D+00  0.0000000000000D+00
437  4.3600000000000D+00  0.0000000000000D+00  0.0000000000000D+00
438  4.3700000000000D+00  0.0000000000000D+00  0.0000000000000D+00
439  4.3800000000000D+00  0.0000000000000D+00  0.0000000000000D+00
440  4.3900000000000D+00  0.0000000000000D+00  0.0000000000000D+00
441  4.4000000000000D+00  0.0000000000000D+00  0.0000000000000D+00
442  4.4100000000000D+00  0.0000000000000D+00  0.0000000000000D+00
443  4.4200000000000D+00  0.0000000000000D+00  0.0000000000000D+00