Cr    ONCVPSP-3.3.0  r_core=   1.30591   1.30591   1.71817
24.0000     14.0000      180112    zatom,zion,pspd
8 -116133   2     4   600     0    pspcod,pspxc,lmax,lloc,mmax,r2well
5.99000000  5.00000000  0.00000000    rchrg fchrg qchrg
2     2     2     0     0    nproj
1     1           extension_switch
0                         6.3361187359526D+00 -1.2354528476765D+00
1  0.0000000000000D+00  1.5057265434493D-09  1.4678584792094D-08
2  1.0000000000000D-02  7.4045108675745D-02 -9.4351982696749D-02
3  2.0000000000000D-02  1.4797218166632D-01 -1.8778331095214D-01
4  3.0000000000000D-02  2.2166253207496D-01 -2.7938602358726D-01
5  4.0000000000000D-02  2.9499619082913D-01 -3.6827733094098D-01
6  5.0000000000000D-02  3.6785131581741D-01 -4.5361166694959D-01
7  6.0000000000000D-02  4.4010366019982D-01 -5.3459211149114D-01
8  7.0000000000000D-02  5.1162611781071D-01 -6.1048099067864D-01
9  8.0000000000000D-02  5.8228836206728D-01 -6.8060947746514D-01
10  9.0000000000000D-02  6.5195659296607D-01 -7.4438603277617D-01
11  1.0000000000000D-01  7.2049340462736D-01 -8.0130354809308D-01
12  1.1000000000000D-01  7.8775778347105D-01 -8.5094507360574D-01
13  1.2000000000000D-01  8.5360524452075D-01 -8.9298804132050D-01
14  1.3000000000000D-01  9.1788811058236D-01 -9.2720691939897D-01
15  1.4000000000000D-01  9.8045593617907D-01 -9.5347426203319D-01
16  1.5000000000000D-01  1.0411560751985D+00 -9.7176014783270D-01
17  1.6000000000000D-01  1.0998343882734D+00 -9.8213002849315D-01
18  1.7000000000000D-01  1.1563360830291D+00 -9.8474103791907D-01
19  1.8000000000000D-01  1.2105066775401D+00 -9.7983683947158D-01
20  1.9000000000000D-01  1.2621930746974D+00 -9.6774111511117D-01
21  2.0000000000000D-01  1.3112447327513D+00 -9.4884982443081D-01
22  2.1000000000000D-01  1.3575149150944D+00 -9.2362238348871D-01
23  2.2000000000000D-01  1.4008620004441D+00 -8.9257193254837D-01
24  2.3000000000000D-01  1.4411508329989D+00 -8.5625487796785D-01
25  2.4000000000000D-01  1.4782540909112D+00 -8.1525990624755D-01
26  2.5000000000000D-01  1.5120536505698D+00 -7.7019667740872D-01
27  2.6000000000000D-01  1.5424419237337D+00 -7.2168441025666D-01
28  2.7000000000000D-01  1.5693231445124D+00 -6.7034057357454D-01
29  2.8000000000000D-01  1.5926145835627D+00 -6.1676989485552D-01
30  2.9000000000000D-01  1.6122476676479D+00 -5.6155389184636D-01
31  3.0000000000000D-01  1.6281689838896D+00 -5.0524112204211D-01
32  3.1000000000000D-01  1.6403411496005D+00 -4.4833833151329D-01
33  3.2000000000000D-01  1.6487435305091D+00 -3.9130266729693D-01
34  3.3000000000000D-01  1.6533727924314D+00 -3.3453509734197D-01
35  3.4000000000000D-01  1.6542432739777D+00 -2.7837515902233D-01
36  3.5000000000000D-01  1.6513871706668D+00 -2.2309713192502D-01
37  3.6000000000000D-01  1.6448545237965D+00 -1.6890770343797D-01
38  3.7000000000000D-01  1.6347130105489D+00 -1.1594516709027D-01
39  3.8000000000000D-01  1.6210475350313D+00 -6.4280164152145D-02
40  3.9000000000000D-01  1.6039596232127D+00 -1.3917949220994D-02
41  4.0000000000000D-01  1.5835666279554D+00  3.5197869056882D-02
42  4.1000000000000D-01  1.5600007535067D+00  8.3180189801040D-02
43  4.2000000000000D-01  1.5334079118446D+00  1.3019198945723D-01
44  4.3000000000000D-01  1.5039464261147D+00  1.7643873004499D-01
45  4.4000000000000D-01  1.4717855989987D+00  2.2215976048007D-01
46  4.5000000000000D-01  1.4371041661737D+00  2.6761888606444D-01
47  4.6000000000000D-01  1.4000886570050D+00  3.1309429880445D-01
48  4.7000000000000D-01  1.3609316862382D+00  3.5886807529299D-01
49  4.8000000000000D-01  1.3198302016770D+00  4.0521545919179D-01
50  4.9000000000000D-01  1.2769837136291D+00  4.5239415164896D-01
51  5.0000000000000D-01  1.2325925322649D+00  5.0063383513251D-01
52  5.1000000000000D-01  1.1868560389392D+00  5.5012615408068D-01
53  5.2000000000000D-01  1.1399710169854D+00  6.0101536945803D-01
54  5.3000000000000D-01  1.0921300665058D+00  6.5338989383307D-01
55  5.4000000000000D-01  1.0435201262620D+00  7.0727489912718D-01
56  5.5000000000000D-01  9.9432112394771D-01  7.6262617093809D-01
57  5.6000000000000D-01  9.4470477391864D-01  8.1932536158386D-01
58  5.7000000000000D-01  8.9483353891354D-01  8.7717676921881D-01
59  5.8000000000000D-01  8.4485976944706D-01  9.3590574273330D-01
60  5.9000000000000D-01  7.9492503147105D-01  9.9515878250724D-01
61  6.0000000000000D-01  7.4515962959202D-01  1.0545053754642D+00
62  6.1000000000000D-01  6.9568232971596D-01  1.1134415704364D+00
63  6.2000000000000D-01  6.4660028146122D-01  1.1713952665199D+00
64  6.3000000000000D-01  5.9800913716011D-01  1.2277331540925D+00
65  6.4000000000000D-01  5.4999336077947D-01  1.2817692156572D+00
66  6.5000000000000D-01  5.0262671670454D-01  1.3327746623942D+00
67  6.6000000000000D-01  4.5597292513111D-01  1.3799891530190D+00
68  6.7000000000000D-01  4.1008646781765D-01  1.4226331144667D+00
69  6.8000000000000D-01  3.6501352524961D-01  1.4599209598619D+00
70  6.9000000000000D-01  3.2079302390064D-01  1.4910749785559D+00
71  7.0000000000000D-01  2.7745777028517D-01  1.5153396561490D+00
72  7.1000000000000D-01  2.3503564691510D-01  1.5319961696444D+00
73  7.2000000000000D-01  1.9355084415038D-01  1.5403767946648D+00
74  7.3000000000000D-01  1.5302510127336D-01  1.5398789580355D+00
75  7.4000000000000D-01  1.1347892994503D-01  1.5299786702062D+00
76  7.5000000000000D-01  7.4932793521066D-02  1.5102430779685D+00
77  7.6000000000000D-01  3.7408216518840D-02  1.4803418887239D+00
78  7.7000000000000D-01  9.2879981670251D-04  1.4400574329597D+00
79  7.8000000000000D-01 -3.4478881082027D-02  1.3892931514507D+00
80  7.9000000000000D-01 -6.8784515204598D-02  1.3280803176875D+00
81  8.0000000000000D-01 -1.0195345058913D-01  1.2565828337843D+00
82  8.1000000000000D-01 -1.3394625906366D-01  1.1750999691711D+00
83  8.2000000000000D-01 -1.6471848306404D-01  1.0840669452364D+00
84  8.3000000000000D-01 -1.9422057275160D-01  9.8405330517639D-01
85  8.4000000000000D-01 -2.2239801802534D-01  8.7575904602478D-01
86  8.5000000000000D-01 -2.4919167624043D-01  7.6000852850390D-01
87  8.6000000000000D-01 -2.7453829260601D-01  6.3774221931827D-01
88  8.7000000000000D-01 -2.9837120641014D-01  5.1000635914018D-01
89  8.8000000000000D-01 -3.2062123249233D-01  3.7794068696011D-01
90  8.9000000000000D-01 -3.4121770379446D-01  2.4276438731031D-01
91  9.0000000000000D-01 -3.6008965746472D-01  1.0576046017287D-01
92  9.1000000000000D-01 -3.7716714391084D-01 -3.1741256283785D-02
93  9.2000000000000D-01 -3.9238263546363D-01 -1.6838215326803D-01
94  9.3000000000000D-01 -4.0567250897182D-01 -3.0279372973644D-01
95  9.4000000000000D-01 -4.1697857474939D-01 -4.3361698401198D-01
96  9.5000000000000D-01 -4.2624962287724D-01 -5.5952200794168D-01
97  9.6000000000000D-01 -4.3344295695112D-01 -6.7922746494752D-01
98  9.7000000000000D-01 -4.3852588498995D-01 -7.9151963079203D-01
99  9.8000000000000D-01 -4.4147713738070D-01 -8.9527067881724D-01
100  9.9000000000000D-01 -4.4228818246468D-01 -9.8945590008348D-01
101  1.0000000000000D+00 -4.4096441160811D-01 -1.0731695626060D+00
102  1.0100000000000D+00 -4.3752616735340D-01 -1.1456391328490D+00
103  1.0200000000000D+00 -4.3200959057321D-01 -1.2062376073437D+00
104  1.0300000000000D+00 -4.2446726523636D-01 -1.2544937305553D+00
105  1.0400000000000D+00 -4.1496864254905D-01 -1.2900999080660D+00
106  1.0500000000000D+00 -4.0360022981819D-01 -1.3129176613375D+00
107  1.0600000000000D+00 -3.9046553311332D-01 -1.3229805088817D+00
108  1.0700000000000D+00 -3.7568474683757D-01 -1.3204942002446D+00
109  1.0800000000000D+00 -3.5939418776055D-01 -1.3058342748459D+00
110  1.0900000000000D+00 -3.4174547517391D-01 -1.2795409598220D+00
111  1.1000000000000D+00 -3.2290446348744D-01 -1.2423114686587D+00
112  1.1100000000000D+00 -3.0304993743766D-01 -1.1949898017660D+00
113  1.1200000000000D+00 -2.8237208471358D-01 -1.1385541973927D+00
114  1.1300000000000D+00 -2.6107076465693D-01 -1.0741024205006D+00
115  1.1400000000000D+00 -2.3935359546021D-01 -1.0028351155237D+00
116  1.1500000000000D+00 -2.1743388541795D-01 -9.2603748076724D-01
117  1.1600000000000D+00 -1.9552843702318D-01 -8.4505955506787D-01
118  1.1700000000000D+00 -1.7385525532284D-01 -7.6129543391831D-01
119  1.1800000000000D+00 -1.5263119375931D-01 -6.7616175064683D-01
120  1.1900000000000D+00 -1.3206957209859D-01 -5.9107577215932D-01
121  1.2000000000000D+00 -1.1237780247559D-01 -5.0743347323182D-01
122  1.2100000000000D+00 -9.3755059474031D-02 -4.2658795219891D-01
123  1.2200000000000D+00 -7.6390029806145D-02 -3.4982854733638D-01
124  1.2300000000000D+00 -6.0458777061864D-02 -2.7836101227278D-01
125  1.2400000000000D+00 -4.6122754774187D-02 -2.1328908631039D-01
126  1.2500000000000D+00 -3.3526998569268D-02 -1.5559777053241D-01
127  1.2600000000000D+00 -2.2798528028202D-02 -1.0613861913223D-01
128  1.2700000000000D+00 -1.4050283639368D-02 -6.5642479049990D-02
129  1.2800000000000D+00 -7.3258530381471D-03 -3.4448709394835D-02
130  1.2900000000000D+00 -2.7857014549204D-03 -1.3403577036087D-02
131  1.3000000000000D+00 -5.2853529271426D-04 -3.0070658252816D-03
132  1.3100000000000D+00  1.0832983166276D-04  1.0222371172959D-04
133  1.3200000000000D+00  2.6666867035465D-05  7.8683263590355D-05
134  1.3300000000000D+00 -3.8229254395633D-05 -1.2425360264437D-04
135  1.3400000000000D+00  3.8118753830075D-06  1.0624069152081D-05
136  1.3500000000000D+00  4.2387990037348D-06  1.2459974416762D-05
137  1.3600000000000D+00  4.3465995587033D-08  1.6345259230821D-06
138  1.3700000000000D+00  0.0000000000000D+00  0.0000000000000D+00
139  1.3800000000000D+00  0.0000000000000D+00  0.0000000000000D+00
140  1.3900000000000D+00  0.0000000000000D+00  0.0000000000000D+00
141  1.4000000000000D+00  0.0000000000000D+00  0.0000000000000D+00
142  1.4100000000000D+00  0.0000000000000D+00  0.0000000000000D+00
143  1.4200000000000D+00  0.0000000000000D+00  0.0000000000000D+00
144  1.4300000000000D+00  0.0000000000000D+00  0.0000000000000D+00
145  1.4400000000000D+00  0.0000000000000D+00  0.0000000000000D+00
146  1.4500000000000D+00  0.0000000000000D+00  0.0000000000000D+00
147  1.4600000000000D+00  0.0000000000000D+00  0.0000000000000D+00
148  1.4700000000000D+00  0.0000000000000D+00  0.0000000000000D+00
149  1.4800000000000D+00  0.0000000000000D+00  0.0000000000000D+00
150  1.4900000000000D+00  0.0000000000000D+00  0.0000000000000D+00
151  1.5000000000000D+00  0.0000000000000D+00  0.0000000000000D+00
152  1.5100000000000D+00  0.0000000000000D+00  0.0000000000000D+00
153  1.5200000000000D+00  0.0000000000000D+00  0.0000000000000D+00
154  1.5300000000000D+00  0.0000000000000D+00  0.0000000000000D+00
155  1.5400000000000D+00  0.0000000000000D+00  0.0000000000000D+00
156  1.5500000000000D+00  0.0000000000000D+00  0.0000000000000D+00
157  1.5600000000000D+00  0.0000000000000D+00  0.0000000000000D+00
158  1.5700000000000D+00  0.0000000000000D+00  0.0000000000000D+00
159  1.5800000000000D+00  0.0000000000000D+00  0.0000000000000D+00
160  1.5900000000000D+00  0.0000000000000D+00  0.0000000000000D+00
161  1.6000000000000D+00  0.0000000000000D+00  0.0000000000000D+00
162  1.6100000000000D+00  0.0000000000000D+00  0.0000000000000D+00
163  1.6200000000000D+00  0.0000000000000D+00  0.0000000000000D+00
164  1.6300000000000D+00  0.0000000000000D+00  0.0000000000000D+00
165  1.6400000000000D+00  0.0000000000000D+00  0.0000000000000D+00
166  1.6500000000000D+00  0.0000000000000D+00  0.0000000000000D+00
167  1.6600000000000D+00  0.0000000000000D+00  0.0000000000000D+00
168  1.6700000000000D+00  0.0000000000000D+00  0.0000000000000D+00
169  1.6800000000000D+00  0.0000000000000D+00  0.0000000000000D+00
170  1.6900000000000D+00  0.0000000000000D+00  0.0000000000000D+00
171  1.7000000000000D+00  0.0000000000000D+00  0.0000000000000D+00
172  1.7100000000000D+00  0.0000000000000D+00  0.0000000000000D+00
173  1.7200000000000D+00  0.0000000000000D+00  0.0000000000000D+00
174  1.7300000000000D+00  0.0000000000000D+00  0.0000000000000D+00
175  1.7400000000000D+00  0.0000000000000D+00  0.0000000000000D+00
176  1.7500000000000D+00  0.0000000000000D+00  0.0000000000000D+00
177  1.7600000000000D+00  0.0000000000000D+00  0.0000000000000D+00
178  1.7700000000000D+00  0.0000000000000D+00  0.0000000000000D+00
179  1.7800000000000D+00  0.0000000000000D+00  0.0000000000000D+00
180  1.7900000000000D+00  0.0000000000000D+00  0.0000000000000D+00
181  1.8000000000000D+00  0.0000000000000D+00  0.0000000000000D+00
182  1.8100000000000D+00  0.0000000000000D+00  0.0000000000000D+00
183  1.8200000000000D+00  0.0000000000000D+00  0.0000000000000D+00
184  1.8300000000000D+00  0.0000000000000D+00  0.0000000000000D+00
185  1.8400000000000D+00  0.0000000000000D+00  0.0000000000000D+00
186  1.8500000000000D+00  0.0000000000000D+00  0.0000000000000D+00
187  1.8600000000000D+00  0.0000000000000D+00  0.0000000000000D+00
188  1.8700000000000D+00  0.0000000000000D+00  0.0000000000000D+00
189  1.8800000000000D+00  0.0000000000000D+00  0.0000000000000D+00
190  1.8900000000000D+00  0.0000000000000D+00  0.0000000000000D+00
191  1.9000000000000D+00  0.0000000000000D+00  0.0000000000000D+00
192  1.9100000000000D+00  0.0000000000000D+00  0.0000000000000D+00
193  1.9200000000000D+00  0.0000000000000D+00  0.0000000000000D+00
194  1.9300000000000D+00  0.0000000000000D+00  0.0000000000000D+00
195  1.9400000000000D+00  0.0000000000000D+00  0.0000000000000D+00
196  1.9500000000000D+00  0.0000000000000D+00  0.0000000000000D+00
197  1.9600000000000D+00  0.0000000000000D+00  0.0000000000000D+00
198  1.9700000000000D+00  0.0000000000000D+00  0.0000000000000D+00
199  1.9800000000000D+00  0.0000000000000D+00  0.0000000000000D+00
200  1.9900000000000D+00  0.0000000000000D+00  0.0000000000000D+00
201  2.0000000000000D+00  0.0000000000000D+00  0.0000000000000D+00
202  2.0100000000000D+00  0.0000000000000D+00  0.0000000000000D+00
203  2.0200000000000D+00  0.0000000000000D+00  0.0000000000000D+00
204  2.0300000000000D+00  0.0000000000000D+00  0.0000000000000D+00
205  2.0400000000000D+00  0.0000000000000D+00  0.0000000000000D+00
206  2.0500000000000D+00  0.0000000000000D+00  0.0000000000000D+00
207  2.0600000000000D+00  0.0000000000000D+00  0.0000000000000D+00
208  2.0700000000000D+00  0.0000000000000D+00  0.0000000000000D+00
209  2.0800000000000D+00  0.0000000000000D+00  0.0000000000000D+00
210  2.0900000000000D+00  0.0000000000000D+00  0.0000000000000D+00
211  2.1000000000000D+00  0.0000000000000D+00  0.0000000000000D+00
212  2.1100000000000D+00  0.0000000000000D+00  0.0000000000000D+00
213  2.1200000000000D+00  0.0000000000000D+00  0.0000000000000D+00
214  2.1300000000000D+00  0.0000000000000D+00  0.0000000000000D+00
215  2.1400000000000D+00  0.0000000000000D+00  0.0000000000000D+00
216  2.1500000000000D+00  0.0000000000000D+00  0.0000000000000D+00
217  2.1600000000000D+00  0.0000000000000D+00  0.0000000000000D+00
218  2.1700000000000D+00  0.0000000000000D+00  0.0000000000000D+00
219  2.1800000000000D+00  0.0000000000000D+00  0.0000000000000D+00
220  2.1900000000000D+00  0.0000000000000D+00  0.0000000000000D+00
221  2.2000000000000D+00  0.0000000000000D+00  0.0000000000000D+00
222  2.2100000000000D+00  0.0000000000000D+00  0.0000000000000D+00
223  2.2200000000000D+00  0.0000000000000D+00  0.0000000000000D+00
224  2.2300000000000D+00  0.0000000000000D+00  0.0000000000000D+00
225  2.2400000000000D+00  0.0000000000000D+00  0.0000000000000D+00
226  2.2500000000000D+00  0.0000000000000D+00  0.0000000000000D+00
227  2.2600000000000D+00  0.0000000000000D+00  0.0000000000000D+00
228  2.2700000000000D+00  0.0000000000000D+00  0.0000000000000D+00
229  2.2800000000000D+00  0.0000000000000D+00  0.0000000000000D+00
230  2.2900000000000D+00  0.0000000000000D+00  0.0000000000000D+00
231  2.3000000000000D+00  0.0000000000000D+00  0.0000000000000D+00
232  2.3100000000000D+00  0.0000000000000D+00  0.0000000000000D+00
233  2.3200000000000D+00  0.0000000000000D+00  0.0000000000000D+00
234  2.3300000000000D+00  0.0000000000000D+00  0.0000000000000D+00
235  2.3400000000000D+00  0.0000000000000D+00  0.0000000000000D+00
236  2.3500000000000D+00  0.0000000000000D+00  0.0000000000000D+00
237  2.3600000000000D+00  0.0000000000000D+00  0.0000000000000D+00
238  2.3700000000000D+00  0.0000000000000D+00  0.0000000000000D+00
239  2.3800000000000D+00  0.0000000000000D+00  0.0000000000000D+00
240  2.3900000000000D+00  0.0000000000000D+00  0.0000000000000D+00
241  2.4000000000000D+00  0.0000000000000D+00  0.0000000000000D+00
242  2.4100000000000D+00  0.0000000000000D+00  0.0000000000000D+00
243  2.4200000000000D+00  0.0000000000000D+00  0.0000000000000D+00
244  2.4300000000000D+00  0.0000000000000D+00  0.0000000000000D+00
245  2.4400000000000D+00  0.0000000000000D+00  0.0000000000000D+00
246  2.4500000000000D+00  0.0000000000000D+00  0.0000000000000D+00
247  2.4600000000000D+00  0.0000000000000D+00  0.0000000000000D+00
248  2.4700000000000D+00  0.0000000000000D+00  0.0000000000000D+00
249  2.4800000000000D+00  0.0000000000000D+00  0.0000000000000D+00
250  2.4900000000000D+00  0.0000000000000D+00  0.0000000000000D+00
251  2.5000000000000D+00  0.0000000000000D+00  0.0000000000000D+00
252  2.5100000000000D+00  0.0000000000000D+00  0.0000000000000D+00
253  2.5200000000000D+00  0.0000000000000D+00  0.0000000000000D+00
254  2.5300000000000D+00  0.0000000000000D+00  0.0000000000000D+00
255  2.5400000000000D+00  0.0000000000000D+00  0.0000000000000D+00
256  2.5500000000000D+00  0.0000000000000D+00  0.0000000000000D+00
257  2.5600000000000D+00  0.0000000000000D+00  0.0000000000000D+00
258  2.5700000000000D+00  0.0000000000000D+00  0.0000000000000D+00
259  2.5800000000000D+00  0.0000000000000D+00  0.0000000000000D+00
260  2.5900000000000D+00  0.0000000000000D+00  0.0000000000000D+00
261  2.6000000000000D+00  0.0000000000000D+00  0.0000000000000D+00
262  2.6100000000000D+00  0.0000000000000D+00  0.0000000000000D+00
263  2.6200000000000D+00  0.0000000000000D+00  0.0000000000000D+00
264  2.6300000000000D+00  0.0000000000000D+00  0.0000000000000D+00
265  2.6400000000000D+00  0.0000000000000D+00  0.0000000000000D+00
266  2.6500000000000D+00  0.0000000000000D+00  0.0000000000000D+00
267  2.6600000000000D+00  0.0000000000000D+00  0.0000000000000D+00
268  2.6700000000000D+00  0.0000000000000D+00  0.0000000000000D+00
269  2.6800000000000D+00  0.0000000000000D+00  0.0000000000000D+00
270  2.6900000000000D+00  0.0000000000000D+00  0.0000000000000D+00
271  2.7000000000000D+00  0.0000000000000D+00  0.0000000000000D+00
272  2.7100000000000D+00  0.0000000000000D+00  0.0000000000000D+00
273  2.7200000000000D+00  0.0000000000000D+00  0.0000000000000D+00
274  2.7300000000000D+00  0.0000000000000D+00  0.0000000000000D+00
275  2.7400000000000D+00  0.0000000000000D+00  0.0000000000000D+00
276  2.7500000000000D+00  0.0000000000000D+00  0.0000000000000D+00
277  2.7600000000000D+00  0.0000000000000D+00  0.0000000000000D+00
278  2.7700000000000D+00  0.0000000000000D+00  0.0000000000000D+00
279  2.7800000000000D+00  0.0000000000000D+00  0.0000000000000D+00
280  2.7900000000000D+00  0.0000000000000D+00  0.0000000000000D+00
281  2.8000000000000D+00  0.0000000000000D+00  0.0000000000000D+00
282  2.8100000000000D+00  0.0000000000000D+00  0.0000000000000D+00
283  2.8200000000000D+00  0.0000000000000D+00  0.0000000000000D+00
284  2.8300000000000D+00  0.0000000000000D+00  0.0000000000000D+00
285  2.8400000000000D+00  0.0000000000000D+00  0.0000000000000D+00
286  2.8500000000000D+00  0.0000000000000D+00  0.0000000000000D+00
287  2.8600000000000D+00  0.0000000000000D+00  0.0000000000000D+00
288  2.8700000000000D+00  0.0000000000000D+00  0.0000000000000D+00
289  2.8800000000000D+00  0.0000000000000D+00  0.0000000000000D+00
290  2.8900000000000D+00  0.0000000000000D+00  0.0000000000000D+00
291  2.9000000000000D+00  0.0000000000000D+00  0.0000000000000D+00
292  2.9100000000000D+00  0.0000000000000D+00  0.0000000000000D+00
293  2.9200000000000D+00  0.0000000000000D+00  0.0000000000000D+00
294  2.9300000000000D+00  0.0000000000000D+00  0.0000000000000D+00
295  2.9400000000000D+00  0.0000000000000D+00  0.0000000000000D+00
296  2.9500000000000D+00  0.0000000000000D+00  0.0000000000000D+00
297  2.9600000000000D+00  0.0000000000000D+00  0.0000000000000D+00
298  2.9700000000000D+00  0.0000000000000D+00  0.0000000000000D+00
299  2.9800000000000D+00  0.0000000000000D+00  0.0000000000000D+00
300  2.9900000000000D+00  0.0000000000000D+00  0.0000000000000D+00
301  3.0000000000000D+00  0.0000000000000D+00  0.0000000000000D+00
302  3.0100000000000D+00  0.0000000000000D+00  0.0000000000000D+00
303  3.0200000000000D+00  0.0000000000000D+00  0.0000000000000D+00
304  3.0300000000000D+00  0.0000000000000D+00  0.0000000000000D+00
305  3.0400000000000D+00  0.0000000000000D+00  0.0000000000000D+00
306  3.0500000000000D+00  0.0000000000000D+00  0.0000000000000D+00
307  3.0600000000000D+00  0.0000000000000D+00  0.0000000000000D+00
308  3.0700000000000D+00  0.0000000000000D+00  0.0000000000000D+00
309  3.0800000000000D+00  0.0000000000000D+00  0.0000000000000D+00
310  3.0900000000000D+00  0.0000000000000D+00  0.0000000000000D+00
311  3.1000000000000D+00  0.0000000000000D+00  0.0000000000000D+00
312  3.1100000000000D+00  0.0000000000000D+00  0.0000000000000D+00
313  3.1200000000000D+00  0.0000000000000D+00  0.0000000000000D+00
314  3.1300000000000D+00  0.0000000000000D+00  0.0000000000000D+00
315  3.1400000000000D+00  0.0000000000000D+00  0.0000000000000D+00
316  3.1500000000000D+00  0.0000000000000D+00  0.0000000000000D+00
317  3.1600000000000D+00  0.0000000000000D+00  0.0000000000000D+00
318  3.1700000000000D+00  0.0000000000000D+00  0.0000000000000D+00
319  3.1800000000000D+00  0.0000000000000D+00  0.0000000000000D+00
320  3.1900000000000D+00  0.0000000000000D+00  0.0000000000000D+00
321  3.2000000000000D+00  0.0000000000000D+00  0.0000000000000D+00
322  3.2100000000000D+00  0.0000000000000D+00  0.0000000000000D+00
323  3.2200000000000D+00  0.0000000000000D+00  0.0000000000000D+00
324  3.2300000000000D+00  0.0000000000000D+00  0.0000000000000D+00
325  3.2400000000000D+00  0.0000000000000D+00  0.0000000000000D+00
326  3.2500000000000D+00  0.0000000000000D+00  0.0000000000000D+00
327  3.2600000000000D+00  0.0000000000000D+00  0.0000000000000D+00
328  3.2700000000000D+00  0.0000000000000D+00  0.0000000000000D+00
329  3.2800000000000D+00  0.0000000000000D+00  0.0000000000000D+00
330  3.2900000000000D+00  0.0000000000000D+00  0.0000000000000D+00
331  3.3000000000000D+00  0.0000000000000D+00  0.0000000000000D+00
332  3.3100000000000D+00  0.0000000000000D+00  0.0000000000000D+00
333  3.3200000000000D+00  0.0000000000000D+00  0.0000000000000D+00
334  3.3300000000000D+00  0.0000000000000D+00  0.0000000000000D+00
335  3.3400000000000D+00  0.0000000000000D+00  0.0000000000000D+00
336  3.3500000000000D+00  0.0000000000000D+00  0.0000000000000D+00
337  3.3600000000000D+00  0.0000000000000D+00  0.0000000000000D+00
338  3.3700000000000D+00  0.0000000000000D+00  0.0000000000000D+00
339  3.3800000000000D+00  0.0000000000000D+00  0.0000000000000D+00
340  3.3900000000000D+00  0.0000000000000D+00  0.0000000000000D+00
341  3.4000000000000D+00  0.0000000000000D+00  0.0000000000000D+00
342  3.4100000000000D+00  0.0000000000000D+00  0.0000000000000D+00
343  3.4200000000000D+00  0.0000000000000D+00  0.0000000000000D+00
344  3.4300000000000D+00  0.0000000000000D+00  0.0000000000000D+00
345  3.4400000000000D+00  0.0000000000000D+00  0.0000000000000D+00
346  3.4500000000000D+00  0.0000000000000D+00  0.0000000000000D+00
347  3.4600000000000D+00  0.0000000000000D+00  0.0000000000000D+00
348  3.4700000000000D+00  0.0000000000000D+00  0.0000000000000D+00
349  3.4800000000000D+00  0.0000000000000D+00  0.0000000000000D+00
350  3.4900000000000D+00  0.0000000000000D+00  0.0000000000000D+00
351  3.5000000000000D+00  0.0000000000000D+00  0.0000000000000D+00
352  3.5100000000000D+00  0.0000000000000D+00  0.0000000000000D+00
353  3.5200000000000D+00  0.0000000000000D+00  0.0000000000000D+00
354  3.5300000000000D+00  0.0000000000000D+00  0.0000000000000D+00
355  3.5400000000000D+00  0.0000000000000D+00  0.0000000000000D+00
356  3.5500000000000D+00  0.0000000000000D+00  0.0000000000000D+00
357  3.5600000000000D+00  0.0000000000000D+00  0.0000000000000D+00
358  3.5700000000000D+00  0.0000000000000D+00  0.0000000000000D+00
359  3.5800000000000D+00  0.0000000000000D+00  0.0000000000000D+00
360  3.5900000000000D+00  0.0000000000000D+00  0.0000000000000D+00
361  3.6000000000000D+00  0.0000000000000D+00  0.0000000000000D+00
362  3.6100000000000D+00  0.0000000000000D+00  0.0000000000000D+00
363  3.6200000000000D+00  0.0000000000000D+00  0.0000000000000D+00
364  3.6300000000000D+00  0.0000000000000D+00  0.0000000000000D+00
365  3.6400000000000D+00  0.0000000000000D+00  0.0000000000000D+00
366  3.6500000000000D+00  0.0000000000000D+00  0.0000000000000D+00
367  3.6600000000000D+00  0.0000000000000D+00  0.0000000000000D+00
368  3.6700000000000D+00  0.0000000000000D+00  0.0000000000000D+00
369  3.6800000000000D+00  0.0000000000000D+00  0.0000000000000D+00
370  3.6900000000000D+00  0.0000000000000D+00  0.0000000000000D+00
371  3.7000000000000D+00  0.0000000000000D+00  0.0000000000000D+00
372  3.7100000000000D+00  0.0000000000000D+00  0.0000000000000D+00
373  3.7200000000000D+00  0.0000000000000D+00  0.0000000000000D+00
374  3.7300000000000D+00  0.0000000000000D+00  0.0000000000000D+00
375  3.7400000000000D+00  0.0000000000000D+00  0.0000000000000D+00
376  3.7500000000000D+00  0.0000000000000D+00  0.0000000000000D+00
377  3.7600000000000D+00  0.0000000000000D+00  0.0000000000000D+00
378  3.7700000000000D+00  0.0000000000000D+00  0.0000000000000D+00
379  3.7800000000000D+00  0.0000000000000D+00  0.0000000000000D+00
380  3.7900000000000D+00  0.0000000000000D+00  0.0000000000000D+00
381  3.8000000000000D+00  0.0000000000000D+00  0.0000000000000D+00
382  3.8100000000000D+00  0.0000000000000D+00  0.0000000000000D+00
383  3.8200000000000D+00  0.0000000000000D+00  0.0000000000000D+00
384  3.8300000000000D+00  0.0000000000000D+00  0.0000000000000D+00
385  3.8400000000000D+00  0.0000000000000D+00  0.0000000000000D+00
386  3.8500000000000D+00  0.0000000000000D+00  0.0000000000000D+00
387  3.8600000000000D+00  0.0000000000000D+00  0.0000000000000D+00
388  3.8700000000000D+00  0.0000000000000D+00  0.0000000000000D+00
389  3.8800000000000D+00  0.0000000000000D+00  0.0000000000000D+00
390  3.8900000000000D+00  0.0000000000000D+00  0.0000000000000D+00
391  3.9000000000000D+00  0.0000000000000D+00  0.0000000000000D+00
392  3.9100000000000D+00  0.0000000000000D+00  0.0000000000000D+00
393  3.9200000000000D+00  0.0000000000000D+00  0.0000000000000D+00
394  3.9300000000000D+00  0.0000000000000D+00  0.0000000000000D+00
395  3.9400000000000D+00  0.0000000000000D+00  0.0000000000000D+00
396  3.9500000000000D+00  0.0000000000000D+00  0.0000000000000D+00
397  3.9600000000000D+00  0.0000000000000D+00  0.0000000000000D+00
398  3.9700000000000D+00  0.0000000000000D+00  0.0000000000000D+00
399  3.9800000000000D+00  0.0000000000000D+00  0.0000000000000D+00
400  3.9900000000000D+00  0.0000000000000D+00  0.0000000000000D+00
401  4.0000000000000D+00  0.0000000000000D+00  0.0000000000000D+00
402  4.0100000000000D+00  0.0000000000000D+00  0.0000000000000D+00
403  4.0200000000000D+00  0.0000000000000D+00  0.0000000000000D+00
404  4.0300000000000D+00  0.0000000000000D+00  0.0000000000000D+00
405  4.0400000000000D+00  0.0000000000000D+00  0.0000000000000D+00
406  4.0500000000000D+00  0.0000000000000D+00  0.0000000000000D+00
407  4.0600000000000D+00  0.0000000000000D+00  0.0000000000000D+00
408  4.0700000000000D+00  0.0000000000000D+00  0.0000000000000D+00
409  4.0800000000000D+00  0.0000000000000D+00  0.0000000000000D+00
410  4.0900000000000D+00  0.0000000000000D+00  0.0000000000000D+00
411  4.1000000000000D+00  0.0000000000000D+00  0.0000000000000D+00
412  4.1100000000000D+00  0.0000000000000D+00  0.0000000000000D+00
413  4.1200000000000D+00  0.0000000000000D+00  0.0000000000000D+00
414  4.1300000000000D+00  0.0000000000000D+00  0.0000000000000D+00
415  4.1400000000000D+00  0.0000000000000D+00  0.0000000000000D+00
416  4.1500000000000D+00  0.0000000000000D+00  0.0000000000000D+00
417  4.1600000000000D+00  0.0000000000000D+00  0.0000000000000D+00
418  4.1700000000000D+00  0.0000000000000D+00  0.0000000000000D+00
419  4.1800000000000D+00  0.0000000000000D+00  0.0000000000000D+00
420  4.1900000000000D+00  0.0000000000000D+00  0.0000000000000D+00
421  4.2000000000000D+00  0.0000000000000D+00  0.0000000000000D+00
422  4.2100000000000D+00  0.0000000000000D+00  0.0000000000000D+00
423  4.2200000000000D+00  0.0000000000000D+00  0.0000000000000D+00
424  4.2300000000000D+00  0.0000000000000D+00  0.0000000000000D+00
425  4.2400000000000D+00  0.0000000000000D+00  0.0000000000000D+00
426  4.2500000000000D+00  0.0000000000000D+00  0.0000000000000D+00
427  4.2600000000000D+00  0.0000000000000D+00  0.0000000000000D+00
428  4.2700000000000D+00  0.0000000000000D+00  0.0000000000000D+00
429  4.2800000000000D+00  0.0000000000000D+00  0.0000000000000D+00
430  4.2900000000000D+00  0.0000000000000D+00  0.0000000000000D+00
431  4.3000000000000D+00  0.0000000000000D+00  0.0000000000000D+00
432  4.3100000000000D+00  0.0000000000000D+00  0.0000000000000D+00
433  4.3200000000000D+00  0.0000000000000D+00  0.0000000000000D+00
434  4.3300000000000D+00  0.0000000000000D+00  0.0000000000000D+00
435  4.3400000000000D+00  0.0000000000000D+00  0.0000000000000D+00
436  4.3500000000000D+00  0.0000000000000D+00  0.0000000000000D+00
437  4.3600000000000D+00  0.0000000000000D+00  0.0000000000000D+00
438  4.3700000000000D+00  0.0000000000000D+00  0.0000000000000D+00
439  4.3800000000000D+00  0.0000000000000D+00  0.0000000000000D+00
440  4.3900000000000D+00  0.0000000000000D+00  0.0000000000000D+00
441  4.4000000000000D+00  0.0000000000000D+00  0.0000000000000D+00
442  4.4100000000000D+00  0.0000000000000D+00  0.0000000000000D+00
443  4.4200000000000D+00  0.0000000000000D+00  0.0000000000000D+00