P     ONCVPSP  r_core=  1.46  1.55  1.46
15.0000      5.0000      150124    zatom,zion,pspd
8      11   2     2   600     0    pspcod,pspxc,lmax,lloc,mmax,r2well
5.99000000  0.30000000  0.00000000    rchrg fchrg qchrg
2     2     0     0     0    nproj
0                 extension_switch
0                         8.6145817150955D+00  1.0557924309942D+00
1  0.0000000000000D+00  0.0000000000000D+00 -0.0000000000000D+00
2  1.0000000000000D-02  5.0038888709269D-02 -6.9185165747223D-02
3  2.0000000000000D-02  9.9704189427064D-02 -1.3721715131616D-01
4  3.0000000000000D-02  1.4862889600911D-01 -2.0296495366815D-01
5  4.0000000000000D-02  1.9645906286319D-01 -2.6534154364849D-01
6  5.0000000000000D-02  2.4286007795614D-01 -3.2332490522856D-01
7  6.0000000000000D-02  2.8752262878915D-01 -3.7597794684853D-01
8  7.0000000000000D-02  3.3016826204080D-01 -4.2246692512643D-01
9  8.0000000000000D-02  3.7055444044365D-01 -4.6207803580406D-01
10  9.0000000000000D-02  4.0847900464870D-01 -4.9423184685761D-01
11  1.0000000000000D-01  4.4378395315069D-01 -5.1849527343666D-01
12  1.1000000000000D-01  4.7635846048014D-01 -5.3459082580393D-01
13  1.2000000000000D-01  5.0614106273806D-01 -5.4240289925349D-01
14  1.3000000000000D-01  5.3312095032082D-01 -5.4198091938474D-01
15  1.4000000000000D-01  5.5733832029387D-01 -5.3353920698990D-01
16  1.5000000000000D-01  5.7888375669805D-01 -5.1745348710473D-01
17  1.6000000000000D-01  5.9789662288755D-01 -4.9425402871127D-01
18  1.7000000000000D-01  6.1456246953698D-01 -4.6461547126890D-01
19  1.8000000000000D-01  6.2910948265320D-01 -4.2934347217643D-01
20  1.9000000000000D-01  6.4180401456278D-01 -3.8935837173715D-01
21  2.0000000000000D-01  6.5294527255044D-01 -3.4567618636714D-01
22  2.1000000000000D-01  6.6285923534343D-01 -2.9938721573182D-01
23  2.2000000000000D-01  6.7189193436750D-01 -2.5163278790104D-01
24  2.3000000000000D-01  6.8040220354535D-01 -2.0358053347254D-01
25  2.4000000000000D-01  6.8875407120188D-01 -1.5639882172173D-01
26  2.5000000000000D-01  6.9730888923051D-01 -1.1123070988610D-01
27  2.6000000000000D-01  7.0641751160700D-01 -6.9168488993970D-02
28  2.7000000000000D-01  7.1641247628421D-01 -3.1228678254844D-02
29  2.8000000000000D-01  7.2760061275556D-01  1.6711043116065D-03
30  2.9000000000000D-01  7.4025606460584D-01  2.8733444667313D-02
31  3.0000000000000D-01  7.5461397221016D-01  4.9299807589472D-02
32  3.1000000000000D-01  7.7086495390824D-01  6.2866157810885D-02
33  3.2000000000000D-01  7.8915055620757D-01  6.9095021722679D-02
34  3.3000000000000D-01  8.0955960657445D-01  6.7824214299969D-02
35  3.4000000000000D-01  8.3212589620071D-01  5.9070980918306D-02
36  3.5000000000000D-01  8.5682689437888D-01  4.3032531880292D-02
37  3.6000000000000D-01  8.8358373115089D-01  2.0082316354198D-02
38  3.7000000000000D-01  9.1226236910273D-01 -9.2376360699818D-03
39  3.8000000000000D-01  9.4267604282126D-01 -4.4228362980296D-02
40  3.9000000000000D-01  9.7458870568785D-01 -8.4048854703193D-02
41  4.0000000000000D-01  1.0077196143399D+00 -1.2773433503236D-01
42  4.1000000000000D-01  1.0417488448309D+00 -1.7421718135017D-01
43  4.2000000000000D-01  1.0763236081018D+00 -2.2235006247907D-01
44  4.3000000000000D-01  1.1110652602886D+00 -2.7093080030080D-01
45  4.4000000000000D-01  1.1455768445054D+00 -3.1872837019692D-01
46  4.5000000000000D-01  1.1794510034213D+00 -3.6450946080953D-01
47  4.6000000000000D-01  1.2122780962808D+00 -4.0706500924932D-01
48  4.7000000000000D-01  1.2436542990182D+00 -4.4523595261996D-01
49  4.8000000000000D-01  1.2731896351291D+00 -4.7793807235691D-01
50  4.9000000000000D-01  1.3005159719179D+00 -5.0418601324777D-01
51  5.0000000000000D-01  1.3252940820132D+00 -5.2311345599982D-01
52  5.1000000000000D-01  1.3472201405031D+00 -5.3399093862136D-01
53  5.2000000000000D-01  1.3660324278320D+00 -5.3624371684681D-01
54  5.3000000000000D-01  1.3815163368325D+00 -5.2946346228914D-01
55  5.4000000000000D-01  1.3935076985257D+00 -5.1341447756575D-01
56  5.5000000000000D-01  1.4018982795505D+00 -4.8804574392882D-01
57  5.6000000000000D-01  1.4066354393022D+00 -4.5348512532412D-01
58  5.7000000000000D-01  1.4077256354553D+00 -4.1004430228290D-01
59  5.8000000000000D-01  1.4052323235609D+00 -3.5820743416106D-01
60  5.9000000000000D-01  1.3992768779895D+00 -2.9862739849920D-01
61  6.0000000000000D-01  1.3900340435768D+00 -2.3210779830093D-01
62  6.1000000000000D-01  1.3777308154776D+00 -1.5959220533094D-01
63  6.2000000000000D-01  1.3626401158744D+00 -8.2141667481549D-02
64  6.3000000000000D-01  1.3450761885125D+00 -9.1517738487470D-04
65  6.4000000000000D-01  1.3253881063147D+00  8.2854636904123D-02
66  6.5000000000000D-01  1.3039524053176D+00  1.6788598359377D-01
67  6.6000000000000D-01  1.2811654479347D+00  2.5287454491763D-01
68  6.7000000000000D-01  1.2574345760820D+00  3.3652264722884D-01
69  6.8000000000000D-01  1.2331697764029D+00  4.1756423141624D-01
70  6.9000000000000D-01  1.2087750770134D+00  4.9479098704470D-01
71  7.0000000000000D-01  1.1846388748294D+00  5.6708119654154D-01
72  7.1000000000000D-01  1.1611250406555D+00  6.3342431032722D-01
73  7.2000000000000D-01  1.1385653184968D+00  6.9294041635961D-01
74  7.3000000000000D-01  1.1172512531906D+00  7.4490090832653D-01
75  7.4000000000000D-01  1.0974271466183D+00  7.8874496933373D-01
76  7.5000000000000D-01  1.0792846372724D+00  8.2409048940118D-01
77  7.6000000000000D-01  1.0629556158248D+00  8.5074924919728D-01
78  7.7000000000000D-01  1.0485102560183D+00  8.6872620585210D-01
79  7.8000000000000D-01  1.0359542431482D+00  8.7822111698281D-01
80  7.9000000000000D-01  1.0252276185135D+00  8.7962512542769D-01
81  8.0000000000000D-01  1.0162052109690D+00  8.7351266976314D-01
82  8.1000000000000D-01  1.0086985571117D+00  8.6062921650748D-01
83  8.2000000000000D-01  1.0024592933597D+00  8.4187506218914D-01
84  8.3000000000000D-01  9.9718396836029D-01  8.1828555019635D-01
85  8.4000000000000D-01  9.9252019044298D-01  7.9100813511463D-01
86  8.5000000000000D-01  9.8807399310812D-01  7.6127680374579D-01
87  8.6000000000000D-01  9.8341827257877D-01  7.3038442532715D-01
88  8.7000000000000D-01  9.7810212589398D-01  6.9965365228008D-01
89  8.8000000000000D-01  9.7166089638613D-01  6.7040702622916D-01
90  8.9000000000000D-01  9.6362671606014D-01  6.4393696156291D-01
91  9.0000000000000D-01  9.5353932168131D-01  6.2147628028461D-01
92  9.1000000000000D-01  9.4095691352831D-01  6.0416995739323D-01
93  9.2000000000000D-01  9.2546682299687D-01  5.9304870578272D-01
94  9.3000000000000D-01  9.0669575775730D-01  5.8900498406251D-01
95  9.4000000000000D-01  8.8431940117666D-01  5.9277195039727D-01
96  9.5000000000000D-01  8.5806959100509D-01  6.0491000750119D-01
97  9.6000000000000D-01  8.2774562851297D-01  6.2578272520744D-01
98  9.7000000000000D-01  7.9321940659682D-01  6.5555150433771D-01
99  9.8000000000000D-01  7.5443939379855D-01  6.9417295583061D-01
100  9.9000000000000D-01  7.1143491940718D-01  7.4139591752179D-01
101  1.0000000000000D+00  6.6431816660828D-01  7.9676481702624D-01
102  1.0100000000000D+00  6.1328450743199D-01  8.5962734259335D-01
103  1.0200000000000D+00  5.5860885529152D-01  9.2915032068349D-01
104  1.0300000000000D+00  5.0064970545981D-01  1.0043212841575D+00
105  1.0400000000000D+00  4.3983986739979D-01  1.0839789365655D+00
106  1.0500000000000D+00  3.7667857829906D-01  1.1668381366508D+00
107  1.0600000000000D+00  3.1172493831773D-01  1.2515127336282D+00
108  1.0700000000000D+00  2.4558872984280D-01  1.3365406976551D+00
109  1.0800000000000D+00  1.7892287190374D-01  1.4204116607453D+00
110  1.0900000000000D+00  1.1240809895124D-01  1.5016085354074D+00
111  1.1000000000000D+00  4.6740383672648D-02  1.5786327392109D+00
112  1.1100000000000D+00 -1.7379878250550D-02  1.6500316122525D+00
113  1.1200000000000D+00 -7.9255138224442D-02  1.7144127981323D+00
114  1.1300000000000D+00 -1.3822115581820D-01  1.7705265877579D+00
115  1.1400000000000D+00 -1.9364673034823D-01  1.8172447582603D+00
116  1.1500000000000D+00 -2.4494460554683D-01  1.8535850993326D+00
117  1.1600000000000D+00 -2.9157942718245D-01  1.8787263728823D+00
118  1.1700000000000D+00 -3.3310689419465D-01  1.8920926618085D+00
119  1.1800000000000D+00 -3.6915184541751D-01  1.8932858199343D+00
120  1.1900000000000D+00 -3.9940989015376D-01  1.8820873705652D+00
121  1.2000000000000D+00 -4.2368795901242D-01  1.8585390004932D+00
122  1.2100000000000D+00 -4.4189121760544D-01  1.8228966067709D+00
123  1.2200000000000D+00 -4.5400468813774D-01  1.7755878935688D+00
124  1.2300000000000D+00 -4.6011238268686D-01  1.7172454479842D+00
125  1.2400000000000D+00 -4.6041403270123D-01  1.6487160992304D+00
126  1.2500000000000D+00 -4.5517722674962D-01  1.5709692038754D+00
127  1.2600000000000D+00 -4.4475107666128D-01  1.4851196933945D+00
128  1.2700000000000D+00 -4.2958309401956D-01  1.3924228023399D+00
129  1.2800000000000D+00 -4.1016572486596D-01  1.2941957799378D+00
130  1.2900000000000D+00 -3.8705231533173D-01  1.1918385607631D+00
131  1.3000000000000D+00 -3.6084716119946D-01  1.0867730217740D+00
132  1.3100000000000D+00 -3.3217683840306D-01  9.8043609562336D-01
133  1.3200000000000D+00 -3.0169734067268D-01  8.7426371108958D-01
134  1.3300000000000D+00 -2.7005902810263D-01  7.6960758974731D-01
135  1.3400000000000D+00 -2.3792175536573D-01  6.6781422886308D-01
136  1.3500000000000D+00 -2.0591952851466D-01  5.7010710533953D-01
137  1.3600000000000D+00 -1.7464649573066D-01  4.7759174476201D-01
138  1.3700000000000D+00 -1.4470279291575D-01  3.9136276696762D-01
139  1.3800000000000D+00 -1.1657989995621D-01  3.1224448145851D-01
140  1.3900000000000D+00 -9.0758858719292D-02  2.4103670229147D-01
141  1.4000000000000D+00 -6.7654509720375D-02  1.7838277285333D-01
142  1.4100000000000D+00 -4.7581392001701D-02  1.2472987462710D-01
143  1.4200000000000D+00 -3.0854772244166D-02  8.0515047211400D-02
144  1.4300000000000D+00 -1.7634619693723D-02  4.5894776096699D-02
145  1.4400000000000D+00 -8.0711931760151D-03  2.1010707994809D-02
146  1.4500000000000D+00 -2.4986167472207D-03  6.5702623777392D-03
147  1.4600000000000D+00 -1.3847233337782D-04  4.6766610979821D-04
148  1.4700000000000D+00  3.3622699739165D-04 -8.1781870230617D-04
149  1.4800000000000D+00  1.0171156434093D-06 -5.5655021944665D-06
150  1.4900000000000D+00  2.0253058394016D-06 -1.1082165697376D-05
151  1.5000000000000D+00  0.0000000000000D+00  0.0000000000000D+00
152  1.5100000000000D+00  0.0000000000000D+00  0.0000000000000D+00
153  1.5200000000000D+00  0.0000000000000D+00  0.0000000000000D+00
154  1.5300000000000D+00  0.0000000000000D+00  0.0000000000000D+00
155  1.5400000000000D+00  0.0000000000000D+00  0.0000000000000D+00
156  1.5500000000000D+00  0.0000000000000D+00  0.0000000000000D+00
157  1.5600000000000D+00  0.0000000000000D+00  0.0000000000000D+00
158  1.5700000000000D+00  0.0000000000000D+00  0.0000000000000D+00
159  1.5800000000000D+00  0.0000000000000D+00  0.0000000000000D+00
160  1.5900000000000D+00  0.0000000000000D+00  0.0000000000000D+00
161  1.6000000000000D+00  0.0000000000000D+00  0.0000000000000D+00
162  1.6100000000000D+00  0.0000000000000D+00  0.0000000000000D+00
163  1.6200000000000D+00  0.0000000000000D+00  0.0000000000000D+00
164  1.6300000000000D+00  0.0000000000000D+00  0.0000000000000D+00
165  1.6400000000000D+00  0.0000000000000D+00  0.0000000000000D+00
166  1.6500000000000D+00  0.0000000000000D+00  0.0000000000000D+00
167  1.6600000000000D+00  0.0000000000000D+00  0.0000000000000D+00
168  1.6700000000000D+00  0.0000000000000D+00  0.0000000000000D+00
169  1.6800000000000D+00  0.0000000000000D+00  0.0000000000000D+00
170  1.6900000000000D+00  0.0000000000000D+00  0.0000000000000D+00
171  1.7000000000000D+00  0.0000000000000D+00  0.0000000000000D+00
172  1.7100000000000D+00  0.0000000000000D+00  0.0000000000000D+00
173  1.7200000000000D+00  0.0000000000000D+00  0.0000000000000D+00
174  1.7300000000000D+00  0.0000000000000D+00  0.0000000000000D+00
175  1.7400000000000D+00  0.0000000000000D+00  0.0000000000000D+00
176  1.7500000000000D+00  0.0000000000000D+00  0.0000000000000D+00
177  1.7600000000000D+00  0.0000000000000D+00  0.0000000000000D+00
178  1.7700000000000D+00  0.0000000000000D+00  0.0000000000000D+00
179  1.7800000000000D+00  0.0000000000000D+00  0.0000000000000D+00
180  1.7900000000000D+00  0.0000000000000D+00  0.0000000000000D+00
181  1.8000000000000D+00  0.0000000000000D+00  0.0000000000000D+00
182  1.8100000000000D+00  0.0000000000000D+00  0.0000000000000D+00
183  1.8200000000000D+00  0.0000000000000D+00  0.0000000000000D+00
184  1.8300000000000D+00  0.0000000000000D+00  0.0000000000000D+00
185  1.8400000000000D+00  0.0000000000000D+00  0.0000000000000D+00
186  1.8500000000000D+00  0.0000000000000D+00  0.0000000000000D+00
187  1.8600000000000D+00  0.0000000000000D+00  0.0000000000000D+00
188  1.8700000000000D+00  0.0000000000000D+00  0.0000000000000D+00
189  1.8800000000000D+00  0.0000000000000D+00  0.0000000000000D+00
190  1.8900000000000D+00  0.0000000000000D+00  0.0000000000000D+00
191  1.9000000000000D+00  0.0000000000000D+00  0.0000000000000D+00
192  1.9100000000000D+00  0.0000000000000D+00  0.0000000000000D+00
193  1.9200000000000D+00  0.0000000000000D+00  0.0000000000000D+00
194  1.9300000000000D+00  0.0000000000000D+00  0.0000000000000D+00
195  1.9400000000000D+00  0.0000000000000D+00  0.0000000000000D+00
196  1.9500000000000D+00  0.0000000000000D+00  0.0000000000000D+00
197  1.9600000000000D+00  0.0000000000000D+00  0.0000000000000D+00
198  1.9700000000000D+00  0.0000000000000D+00  0.0000000000000D+00
199  1.9800000000000D+00  0.0000000000000D+00  0.0000000000000D+00
200  1.9900000000000D+00  0.0000000000000D+00  0.0000000000000D+00
201  2.0000000000000D+00  0.0000000000000D+00  0.0000000000000D+00
202  2.0100000000000D+00  0.0000000000000D+00  0.0000000000000D+00
203  2.0200000000000D+00  0.0000000000000D+00  0.0000000000000D+00
204  2.0300000000000D+00  0.0000000000000D+00  0.0000000000000D+00
205  2.0400000000000D+00  0.0000000000000D+00  0.0000000000000D+00
206  2.0500000000000D+00  0.0000000000000D+00  0.0000000000000D+00
207  2.0600000000000D+00  0.0000000000000D+00  0.0000000000000D+00
208  2.0700000000000D+00  0.0000000000000D+00  0.0000000000000D+00
209  2.0800000000000D+00  0.0000000000000D+00  0.0000000000000D+00
210  2.0900000000000D+00  0.0000000000000D+00  0.0000000000000D+00
211  2.1000000000000D+00  0.0000000000000D+00  0.0000000000000D+00
212  2.1100000000000D+00  0.0000000000000D+00  0.0000000000000D+00
213  2.1200000000000D+00  0.0000000000000D+00  0.0000000000000D+00
214  2.1300000000000D+00  0.0000000000000D+00  0.0000000000000D+00
215  2.1400000000000D+00  0.0000000000000D+00  0.0000000000000D+00
216  2.1500000000000D+00  0.0000000000000D+00  0.0000000000000D+00
217  2.1600000000000D+00  0.0000000000000D+00  0.0000000000000D+00
218  2.1700000000000D+00  0.0000000000000D+00  0.0000000000000D+00
219  2.1800000000000D+00  0.0000000000000D+00  0.0000000000000D+00
220  2.1900000000000D+00  0.0000000000000D+00  0.0000000000000D+00
221  2.2000000000000D+00  0.0000000000000D+00  0.0000000000000D+00
222  2.2100000000000D+00  0.0000000000000D+00  0.0000000000000D+00
223  2.2200000000000D+00  0.0000000000000D+00  0.0000000000000D+00
224  2.2300000000000D+00  0.0000000000000D+00  0.0000000000000D+00
225  2.2400000000000D+00  0.0000000000000D+00  0.0000000000000D+00
226  2.2500000000000D+00  0.0000000000000D+00  0.0000000000000D+00
227  2.2600000000000D+00  0.0000000000000D+00  0.0000000000000D+00
228  2.2700000000000D+00  0.0000000000000D+00  0.0000000000000D+00
229  2.2800000000000D+00  0.0000000000000D+00  0.0000000000000D+00
230  2.2900000000000D+00  0.0000000000000D+00  0.0000000000000D+00
231  2.3000000000000D+00  0.0000000000000D+00  0.0000000000000D+00
232  2.3100000000000D+00  0.0000000000000D+00  0.0000000000000D+00
233  2.3200000000000D+00  0.0000000000000D+00  0.0000000000000D+00
234  2.3300000000000D+00  0.0000000000000D+00  0.0000000000000D+00
235  2.3400000000000D+00  0.0000000000000D+00  0.0000000000000D+00
236  2.3500000000000D+00  0.0000000000000D+00  0.0000000000000D+00
237  2.3600000000000D+00  0.0000000000000D+00  0.0000000000000D+00
238  2.3700000000000D+00  0.0000000000000D+00  0.0000000000000D+00
239  2.3800000000000D+00  0.0000000000000D+00  0.0000000000000D+00
240  2.3900000000000D+00  0.0000000000000D+00  0.0000000000000D+00
241  2.4000000000000D+00  0.0000000000000D+00  0.0000000000000D+00
242  2.4100000000000D+00  0.0000000000000D+00  0.0000000000000D+00
243  2.4200000000000D+00  0.0000000000000D+00  0.0000000000000D+00
244  2.4300000000000D+00  0.0000000000000D+00  0.0000000000000D+00
245  2.4400000000000D+00  0.0000000000000D+00  0.0000000000000D+00
246  2.4500000000000D+00  0.0000000000000D+00  0.0000000000000D+00
247  2.4600000000000D+00  0.0000000000000D+00  0.0000000000000D+00
248  2.4700000000000D+00  0.0000000000000D+00  0.0000000000000D+00
249  2.4800000000000D+00  0.0000000000000D+00  0.0000000000000D+00
250  2.4900000000000D+00  0.0000000000000D+00  0.0000000000000D+00
251  2.5000000000000D+00  0.0000000000000D+00  0.0000000000000D+00
252  2.5100000000000D+00  0.0000000000000D+00  0.0000000000000D+00
253  2.5200000000000D+00  0.0000000000000D+00  0.0000000000000D+00
254  2.5300000000000D+00  0.0000000000000D+00  0.0000000000000D+00
255  2.5400000000000D+00  0.0000000000000D+00  0.0000000000000D+00
256  2.5500000000000D+00  0.0000000000000D+00  0.0000000000000D+00
257  2.5600000000000D+00  0.0000000000000D+00  0.0000000000000D+00
258  2.5700000000000D+00  0.0000000000000D+00  0.0000000000000D+00
259  2.5800000000000D+00  0.0000000000000D+00  0.0000000000000D+00
260  2.5900000000000D+00  0.0000000000000D+00  0.0000000000000D+00
261  2.6000000000000D+00  0.0000000000000D+00  0.0000000000000D+00
262  2.6100000000000D+00  0.0000000000000D+00  0.0000000000000D+00
263  2.6200000000000D+00  0.0000000000000D+00  0.0000000000000D+00
264  2.6300000000000D+00  0.0000000000000D+00  0.0000000000000D+00
265  2.6400000000000D+00  0.0000000000000D+00  0.0000000000000D+00
266  2.6500000000000D+00  0.0000000000000D+00  0.0000000000000D+00
267  2.6600000000000D+00  0.0000000000000D+00  0.0000000000000D+00
268  2.6700000000000D+00  0.0000000000000D+00  0.0000000000000D+00
269  2.6800000000000D+00  0.0000000000000D+00  0.0000000000000D+00
270  2.6900000000000D+00  0.0000000000000D+00  0.0000000000000D+00
271  2.7000000000000D+00  0.0000000000000D+00  0.0000000000000D+00
272  2.7100000000000D+00  0.0000000000000D+00  0.0000000000000D+00
273  2.7200000000000D+00  0.0000000000000D+00  0.0000000000000D+00
274  2.7300000000000D+00  0.0000000000000D+00  0.0000000000000D+00
275  2.7400000000000D+00  0.0000000000000D+00  0.0000000000000D+00
276  2.7500000000000D+00  0.0000000000000D+00  0.0000000000000D+00
277  2.7600000000000D+00  0.0000000000000D+00  0.0000000000000D+00
278  2.7700000000000D+00  0.0000000000000D+00  0.0000000000000D+00
279  2.7800000000000D+00  0.0000000000000D+00  0.0000000000000D+00
280  2.7900000000000D+00  0.0000000000000D+00  0.0000000000000D+00
281  2.8000000000000D+00  0.0000000000000D+00  0.0000000000000D+00
282  2.8100000000000D+00  0.0000000000000D+00  0.0000000000000D+00
283  2.8200000000000D+00  0.0000000000000D+00  0.0000000000000D+00
284  2.8300000000000D+00  0.0000000000000D+00  0.0000000000000D+00
285  2.8400000000000D+00  0.0000000000000D+00  0.0000000000000D+00
286  2.8500000000000D+00  0.0000000000000D+00  0.0000000000000D+00
287  2.8600000000000D+00  0.0000000000000D+00  0.0000000000000D+00
288  2.8700000000000D+00  0.0000000000000D+00  0.0000000000000D+00
289  2.8800000000000D+00  0.0000000000000D+00  0.0000000000000D+00
290  2.8900000000000D+00  0.0000000000000D+00  0.0000000000000D+00
291  2.9000000000000D+00  0.0000000000000D+00  0.0000000000000D+00
292  2.9100000000000D+00  0.0000000000000D+00  0.0000000000000D+00
293  2.9200000000000D+00  0.0000000000000D+00  0.0000000000000D+00
294  2.9300000000000D+00  0.0000000000000D+00  0.0000000000000D+00
295  2.9400000000000D+00  0.0000000000000D+00  0.0000000000000D+00
296  2.9500000000000D+00  0.0000000000000D+00  0.0000000000000D+00
297  2.9600000000000D+00  0.0000000000000D+00  0.0000000000000D+00
298  2.9700000000000D+00  0.0000000000000D+00  0.0000000000000D+00
299  2.9800000000000D+00  0.0000000000000D+00  0.0000000000000D+00
300  2.9900000000000D+00  0.0000000000000D+00  0.0000000000000D+00
301  3.0000000000000D+00  0.0000000000000D+00  0.0000000000000D+00
302  3.0100000000000D+00  0.0000000000000D+00  0.0000000000000D+00
303  3.0200000000000D+00  0.0000000000000D+00  0.0000000000000D+00
304  3.0300000000000D+00  0.0000000000000D+00  0.0000000000000D+00
305  3.0400000000000D+00  0.0000000000000D+00  0.0000000000000D+00
306  3.0500000000000D+00  0.0000000000000D+00  0.0000000000000D+00
307  3.0600000000000D+00  0.0000000000000D+00  0.0000000000000D+00
308  3.0700000000000D+00  0.0000000000000D+00  0.0000000000000D+00
309  3.0800000000000D+00  0.0000000000000D+00  0.0000000000000D+00
310  3.0900000000000D+00  0.0000000000000D+00  0.0000000000000D+00
311  3.1000000000000D+00  0.0000000000000D+00  0.0000000000000D+00
312  3.1100000000000D+00  0.0000000000000D+00  0.0000000000000D+00
313  3.1200000000000D+00  0.0000000000000D+00  0.0000000000000D+00
314  3.1300000000000D+00  0.0000000000000D+00  0.0000000000000D+00
315  3.1400000000000D+00  0.0000000000000D+00  0.0000000000000D+00
316  3.1500000000000D+00  0.0000000000000D+00  0.0000000000000D+00
317  3.1600000000000D+00  0.0000000000000D+00  0.0000000000000D+00
318  3.1700000000000D+00  0.0000000000000D+00  0.0000000000000D+00
319  3.1800000000000D+00  0.0000000000000D+00  0.0000000000000D+00
320  3.1900000000000D+00  0.0000000000000D+00  0.0000000000000D+00
321  3.2000000000000D+00  0.0000000000000D+00  0.0000000000000D+00
322  3.2100000000000D+00  0.0000000000000D+00  0.0000000000000D+00
323  3.2200000000000D+00  0.0000000000000D+00  0.0000000000000D+00
324  3.2300000000000D+00  0.0000000000000D+00  0.0000000000000D+00
325  3.2400000000000D+00  0.0000000000000D+00  0.0000000000000D+00
326  3.2500000000000D+00  0.0000000000000D+00  0.0000000000000D+00
327  3.2600000000000D+00  0.0000000000000D+00  0.0000000000000D+00
328  3.2700000000000D+00  0.0000000000000D+00  0.0000000000000D+00
329  3.2800000000000D+00  0.0000000000000D+00  0.0000000000000D+00
330  3.2900000000000D+00  0.0000000000000D+00  0.0000000000000D+00
331  3.3000000000000D+00  0.0000000000000D+00  0.0000000000000D+00
332  3.3100000000000D+00  0.0000000000000D+00  0.0000000000000D+00
333  3.3200000000000D+00  0.0000000000000D+00  0.0000000000000D+00
334  3.3300000000000D+00  0.0000000000000D+00  0.0000000000000D+00
335  3.3400000000000D+00  0.0000000000000D+00  0.0000000000000D+00
336  3.3500000000000D+00  0.0000000000000D+00  0.0000000000000D+00
337  3.3600000000000D+00  0.0000000000000D+00  0.0000000000000D+00
338  3.3700000000000D+00  0.0000000000000D+00  0.0000000000000D+00
339  3.3800000000000D+00  0.0000000000000D+00  0.0000000000000D+00
340  3.3900000000000D+00  0.0000000000000D+00  0.0000000000000D+00
341  3.4000000000000D+00  0.0000000000000D+00  0.0000000000000D+00
342  3.4100000000000D+00  0.0000000000000D+00  0.0000000000000D+00
343  3.4200000000000D+00  0.0000000000000D+00  0.0000000000000D+00
344  3.4300000000000D+00  0.0000000000000D+00  0.0000000000000D+00
345  3.4400000000000D+00  0.0000000000000D+00  0.0000000000000D+00
346  3.4500000000000D+00  0.0000000000000D+00  0.0000000000000D+00
347  3.4600000000000D+00  0.0000000000000D+00  0.0000000000000D+00
348  3.4700000000000D+00  0.0000000000000D+00  0.0000000000000D+00
349  3.4800000000000D+00  0.0000000000000D+00  0.0000000000000D+00
350  3.4900000000000D+00  0.0000000000000D+00  0.0000000000000D+00
351  3.5000000000000D+00  0.0000000000000D+00  0.0000000000000D+00
352  3.5100000000000D+00  0.0000000000000D+00  0.0000000000000D+00
353  3.5200000000000D+00  0.0000000000000D+00  0.0000000000000D+00
354  3.5300000000000D+00  0.0000000000000D+00  0.0000000000000D+00
355  3.5400000000000D+00  0.0000000000000D+00  0.0000000000000D+00
356  3.5500000000000D+00  0.0000000000000D+00  0.0000000000000D+00
357  3.5600000000000D+00  0.0000000000000D+00  0.0000000000000D+00
358  3.5700000000000D+00  0.0000000000000D+00  0.0000000000000D+00
359  3.5800000000000D+00  0.0000000000000D+00  0.0000000000000D+00
360  3.5900000000000D+00  0.0000000000000D+00  0.0000000000000D+00
361  3.6000000000000D+00  0.0000000000000D+00  0.0000000000000D+00
362  3.6100000000000D+00  0.0000000000000D+00  0.0000000000000D+00
363  3.6200000000000D+00  0.0000000000000D+00  0.0000000000000D+00
364  3.6300000000000D+00  0.0000000000000D+00  0.0000000000000D+00
365  3.6400000000000D+00  0.0000000000000D+00  0.0000000000000D+00
366  3.6500000000000D+00  0.0000000000000D+00  0.0000000000000D+00
367  3.6600000000000D+00  0.0000000000000D+00  0.0000000000000D+00
368  3.6700000000000D+00  0.0000000000000D+00  0.0000000000000D+00
369  3.6800000000000D+00  0.0000000000000D+00  0.0000000000000D+00
370  3.6900000000000D+00  0.0000000000000D+00  0.0000000000000D+00
371  3.7000000000000D+00  0.0000000000000D+00  0.0000000000000D+00
372  3.7100000000000D+00  0.0000000000000D+00  0.0000000000000D+00
373  3.7200000000000D+00  0.0000000000000D+00  0.0000000000000D+00
374  3.7300000000000D+00  0.0000000000000D+00  0.0000000000000D+00
375  3.7400000000000D+00  0.0000000000000D+00  0.0000000000000D+00
376  3.7500000000000D+00  0.0000000000000D+00  0.0000000000000D+00
377  3.7600000000000D+00  0.0000000000000D+00  0.0000000000000D+00
378  3.7700000000000D+00  0.0000000000000D+00  0.0000000000000D+00
379  3.7800000000000D+00  0.0000000000000D+00  0.0000000000000D+00
380  3.7900000000000D+00  0.0000000000000D+00  0.0000000000000D+00
381  3.8000000000000D+00  0.0000000000000D+00  0.0000000000000D+00
382  3.8100000000000D+00  0.0000000000000D+00  0.0000000000000D+00
383  3.8200000000000D+00  0.0000000000000D+00  0.0000000000000D+00
384  3.8300000000000D+00  0.0000000000000D+00  0.0000000000000D+00
385  3.8400000000000D+00  0.0000000000000D+00  0.0000000000000D+00
386  3.8500000000000D+00  0.0000000000000D+00  0.0000000000000D+00
387  3.8600000000000D+00  0.0000000000000D+00  0.0000000000000D+00
388  3.8700000000000D+00  0.0000000000000D+00  0.0000000000000D+00
389  3.8800000000000D+00  0.0000000000000D+00  0.0000000000000D+00
390  3.8900000000000D+00  0.0000000000000D+00  0.0000000000000D+00
391  3.9000000000000D+00  0.0000000000000D+00  0.0000000000000D+00
392  3.9100000000000D+00  0.0000000000000D+00  0.0000000000000D+00
393  3.9200000000000D+00  0.0000000000000D+00  0.0000000000000D+00
394  3.9300000000000D+00  0.0000000000000D+00  0.0000000000000D+00
395  3.9400000000000D+00  0.0000000000000D+00  0.0000000000000D+00
396  3.9500000000000D+00  0.0000000000000D+00  0.0000000000000D+00
397  3.9600000000000D+00  0.0000000000000D+00  0.0000000000000D+00
398  3.9700000000000D+00  0.0000000000000D+00  0.0000000000000D+00
399  3.9800000000000D+00  0.0000000000000D+00  0.0000000000000D+00
400  3.9900000000000D+00  0.0000000000000D+00  0.0000000000000D+00
401  4.0000000000000D+00  0.0000000000000D+00  0.0000000000000D+00
402  4.0100000000000D+00  0.0000000000000D+00  0.0000000000000D+00
403  4.0200000000000D+00  0.0000000000000D+00  0.0000000000000D+00
404  4.0300000000000D+00  0.0000000000000D+00  0.0000000000000D+00
405  4.0400000000000D+00  0.0000000000000D+00  0.0000000000000D+00
406  4.0500000000000D+00  0.0000000000000D+00  0.0000000000000D+00
407  4.0600000000000D+00  0.0000000000000D+00  0.0000000000000D+00
408  4.0700000000000D+00  0.0000000000000D+00  0.0000000000000D+00
409  4.0800000000000D+00  0.0000000000000D+00  0.0000000000000D+00
410  4.0900000000000D+00  0.0000000000000D+00  0.0000000000000D+00
411  4.1000000000000D+00  0.0000000000000D+00  0.0000000000000D+00
412  4.1100000000000D+00  0.0000000000000D+00  0.0000000000000D+00
413  4.1200000000000D+00  0.0000000000000D+00  0.0000000000000D+00
414  4.1300000000000D+00  0.0000000000000D+00  0.0000000000000D+00
415  4.1400000000000D+00  0.0000000000000D+00  0.0000000000000D+00
416  4.1500000000000D+00  0.0000000000000D+00  0.0000000000000D+00
417  4.1600000000000D+00  0.0000000000000D+00  0.0000000000000D+00
418  4.1700000000000D+00  0.0000000000000D+00  0.0000000000000D+00
419  4.1800000000000D+00  0.0000000000000D+00  0.0000000000000D+00
420  4.1900000000000D+00  0.0000000000000D+00  0.0000000000000D+00
421  4.2000000000000D+00  0.0000000000000D+00  0.0000000000000D+00
422  4.2100000000000D+00  0.0000000000000D+00  0.0000000000000D+00
423  4.2200000000000D+00  0.0000000000000D+00  0.0000000000000D+00
424  4.2300000000000D+00  0.0000000000000D+00  0.0000000000000D+00
425  4.2400000000000D+00  0.0000000000000D+00  0.0000000000000D+00
426  4.2500000000000D+00  0.0000000000000D+00  0.0000000000000D+00
427  4.2600000000000D+00  0.0000000000000D+00  0.0000000000000D+00
428  4.2700000000000D+00  0.0000000000000D+00  0.0000000000000D+00
429  4.2800000000000D+00  0.0000000000000D+00  0.0000000000000D+00
430  4.2900000000000D+00  0.0000000000000D+00  0.0000000000000D+00
431  4.3000000000000D+00  0.0000000000000D+00  0.0000000000000D+00
432  4.3100000000000D+00  0.0000000000000D+00  0.0000000000000D+00
433  4.3200000000000D+00  0.0000000000000D+00  0.0000000000000D+00
434  4.3300000000000D+00  0.0000000000000D+00  0.0000000000000D+00
435  4.3400000000000D+00  0.0000000000000D+00  0.0000000000000D+00
436  4.3500000000000D+00  0.0000000000000D+00  0.0000000000000D+00
437  4.3600000000000D+00  0.0000000000000D+00  0.0000000000000D+00
438  4.3700000000000D+00  0.0000000000000D+00  0.0000000000000D+00
439  4.3800000000000D+00  0.0000000000000D+00  0.0000000000000D+00
440  4.3900000000000D+00  0.0000000000000D+00  0.0000000000000D+00
441  4.4000000000000D+00  0.0000000000000D+00  0.0000000000000D+00
442  4.4100000000000D+00  0.0000000000000D+00  0.0000000000000D+00
443  4.4200000000000D+00  0.0000000000000D+00  0.0000000000000D+00
444  4.4300000000000D+00  0.0000000000000D+00  0.0000000000000D+00