P     ONCVPSP  r_core=  1.51  1.67  1.81
15.0000      5.0000      140827    zatom,zion,pspd
8    11     2     4   601     0    pspcod,pspxc,lmax,lloc,mmax,r2well
6.00000000  0.35000000  0.00000000    rchrg fchrg qchrg
2     2     2     0     0    nproj
0                 extension_switch
0                         5.7363407365331D+00  7.3740847609635D-01
1  0.0000000000000D+00 -0.0000000000000D+00 -0.0000000000000D+00
2  1.0000000000000D-02 -3.8181108141048D-02 -1.2765986820441D-02
3  2.0000000000000D-02 -7.6155819727044D-02 -2.4983950563153D-02
4  3.0000000000000D-02 -1.1372170417109D-01 -3.6117610728435D-02
5  4.0000000000000D-02 -1.5068418399011D-01 -4.5653937731061D-02
6  5.0000000000000D-02 -1.8686026580394D-01 -5.3114197300086D-02
7  6.0000000000000D-02 -2.2208204091383D-01 -5.8064310230741D-02
8  7.0000000000000D-02 -2.5619988566219D-01 -6.0124320120850D-02
9  8.0000000000000D-02 -2.8908529755804D-01 -5.8976778925007D-02
10  9.0000000000000D-02 -3.2063331028323D-01 -5.4373881368489D-02
11  1.0000000000000D-01 -3.5076443880051D-01 -4.6143203373485D-02
12  1.1000000000000D-01 -3.7942611497236D-01 -3.4191926975033D-02
13  1.2000000000000D-01 -4.0659358402396D-01 -1.8509463717757D-02
14  1.3000000000000D-01 -4.3227024265406D-01  8.3158034161982D-04
15  1.4000000000000D-01 -4.5648741043612D-01  2.3676122664151D-02
16  1.5000000000000D-01 -4.7930353746969D-01  4.9788996310704D-02
17  1.6000000000000D-01 -5.0080286210691D-01  7.8858974749408D-02
18  1.7000000000000D-01 -5.2109354308994D-01  1.1050435689675D-01
19  1.8000000000000D-01 -5.4030530199221D-01  1.4428000546812D-01
20  1.9000000000000D-01 -5.5858661891080D-01  1.7968571086856D-01
21  2.0000000000000D-01 -5.7610154023914D-01  2.1617570553095D-01
22  2.1000000000000D-01 -5.9302614804209D-01  2.5316918155529D-01
23  2.2000000000000D-01 -6.0954477673767D-01  2.9006155661003D-01
24  2.3000000000000D-01 -6.2584603463376D-01  3.2623631722510D-01
25  2.4000000000000D-01 -6.4211872439268D-01  3.6107715974376D-01
26  2.5000000000000D-01 -6.5854770627072D-01  3.9398029893243D-01
27  2.6000000000000D-01 -6.7530986423579D-01  4.2436646808611D-01
28  2.7000000000000D-01 -6.9257013321444D-01  4.5169273563202D-01
29  2.8000000000000D-01 -7.1047780041122D-01  4.7546350491899D-01
30  2.9000000000000D-01 -7.2916305512974D-01  4.9524077410465D-01
31  3.0000000000000D-01 -7.4873390098114D-01  5.1065331789381D-01
32  3.1000000000000D-01 -7.6927348667841D-01  5.2140462469217D-01
33  3.2000000000000D-01 -7.9083792981347D-01  5.2727936862755D-01
34  3.3000000000000D-01 -8.1345459042402D-01  5.2814854578535D-01
35  3.4000000000000D-01 -8.3712100431294D-01  5.2397265085856D-01
36  3.5000000000000D-01 -8.6180432098105D-01  5.1480335665873D-01
37  3.6000000000000D-01 -8.8744136664387D-01  5.0078333900235D-01
38  3.7000000000000D-01 -9.1393929550421D-01  4.8214435749031D-01
39  3.8000000000000D-01 -9.4117687412690D-01  4.5920345931102D-01
40  3.9000000000000D-01 -9.6900627833916D-01  4.3235766622699D-01
41  4.0000000000000D-01 -9.9725547691740D-01  4.0207692423505D-01
42  4.1000000000000D-01 -1.0257311089038D+00  3.6889559347066D-01
43  4.2000000000000D-01 -1.0542217998479D+00  3.3340264233484D-01
44  4.3000000000000D-01 -1.0825018730656D+00  2.9623067664646D-01
45  4.4000000000000D-01 -1.1103353815154D+00  2.5804402562624D-01
46  4.5000000000000D-01 -1.1374803844756D+00  2.1952611052361D-01
47  4.6000000000000D-01 -1.1636933872087D+00  1.8136633936685D-01
48  4.7000000000000D-01 -1.1887338279783D+00  1.4424687093785D-01
49  4.8000000000000D-01 -1.2123685856058D+00  1.0882932895887D-01
50  4.9000000000000D-01 -1.2343765295745D+00  7.5741403946581D-02
51  5.0000000000000D-01 -1.2545526093141D+00  4.5564828150766D-02
52  5.1000000000000D-01 -1.2727116748051D+00  1.8824157275434D-02
53  5.2000000000000D-01 -1.2886924640007D+00 -4.0249202590978D-03
54  5.3000000000000D-01 -1.3023606798504D+00 -2.2604572350086D-02
55  5.4000000000000D-01 -1.3136111249849D+00 -3.6621025229096D-02
56  5.5000000000000D-01 -1.3223711325496D+00 -4.5874544555200D-02
57  5.6000000000000D-01 -1.3286006322210D+00 -5.0259516803054D-02
58  5.7000000000000D-01 -1.3322944835172D+00 -4.9771152470978D-02
59  5.8000000000000D-01 -1.3334815286134D+00 -4.4502555726281D-02
60  5.9000000000000D-01 -1.3322254689525D+00 -3.4647090128841D-02
61  6.0000000000000D-01 -1.3286224560728D+00 -2.0491142149747D-02
62  6.1000000000000D-01 -1.3228008287480D+00 -2.4130714546952D-03
63  6.2000000000000D-01 -1.3149176363497D+00  1.9127172234649D-02
64  6.3000000000000D-01 -1.3051562803022D+00  4.3595242903375D-02
65  6.4000000000000D-01 -1.2937230288430D+00  7.0392899686394D-02
66  6.5000000000000D-01 -1.2808429080559D+00  9.8870265621669D-02
67  6.6000000000000D-01 -1.2667555246429D+00  1.2833836636582D-01
68  6.7000000000000D-01 -1.2517101479650D+00  1.5808383553025D-01
69  6.8000000000000D-01 -1.2359609497549D+00  1.8738305505831D-01
70  6.9000000000000D-01 -1.2197621127827D+00  2.1551671650669D-01
71  7.0000000000000D-01 -1.2033622974540D+00  2.4178628639277D-01
72  7.1000000000000D-01 -1.1869994314188D+00  2.6552944525392D-01
73  7.2000000000000D-01 -1.1708961437681D+00  2.8613356922948D-01
74  7.3000000000000D-01 -1.1552548750271D+00  3.0305017754774D-01
75  7.4000000000000D-01 -1.1402534567495D+00  3.1580794368634D-01
76  7.5000000000000D-01 -1.1260415190772D+00  3.2402321375168D-01
77  7.6000000000000D-01 -1.1127357832399D+00  3.2741382157924D-01
78  7.7000000000000D-01 -1.1004181883628D+00  3.2580442569817D-01
79  7.8000000000000D-01 -1.0891334346829D+00  3.1913357388842D-01
80  7.9000000000000D-01 -1.0788873292162D+00  3.0745835307224D-01
81  8.0000000000000D-01 -1.0696459369814D+00  2.9095662086471D-01
82  8.1000000000000D-01 -1.0613354988185D+00  2.6992693779007D-01
83  8.2000000000000D-01 -1.0538431307773D+00  2.4478615852731D-01
84  8.3000000000000D-01 -1.0470183056178D+00  2.1606468376156D-01
85  8.4000000000000D-01 -1.0406751024463D+00  1.8439941766415D-01
86  8.5000000000000D-01 -1.0345951961355D+00  1.5052451898661D-01
87  8.6000000000000D-01 -1.0285315441786D+00  1.1526007557507D-01
88  8.7000000000000D-01 -1.0222127151924D+00  7.9498872195831D-02
89  8.8000000000000D-01 -1.0153477906111D+00  4.4191459351996D-02
90  8.9000000000000D-01 -1.0076317593702D+00  1.0329765721434D-02
91  9.0000000000000D-01 -9.9875131477575D-01 -2.1070471615500D-02
92  9.1000000000000D-01 -9.8839095348468D-01 -4.8988157507789D-02
93  9.2000000000000D-01 -9.7623926885761D-01 -7.2415845304662D-02
94  9.3000000000000D-01 -9.6199532516905D-01 -9.0378958384804D-02
95  9.4000000000000D-01 -9.4537499563256D-01 -1.0195487515470D-01
96  9.5000000000000D-01 -9.2611628967665D-01 -1.0628889891632D-01
97  9.6000000000000D-01 -9.0398710152000D-01 -1.0261765887069D-01
98  9.7000000000000D-01 -8.7879023266441D-01 -9.0284091471569D-02
99  9.8000000000000D-01 -8.5036781050416D-01 -6.8750625180728D-02
100  9.9000000000000D-01 -8.1860612127043D-01 -3.7613643193637D-02
101  1.0000000000000D+00 -7.8343940159593D-01  3.3852273912432D-03
102  1.0100000000000D+00 -7.4485286491928D-01  5.4350142458921D-02
103  1.0200000000000D+00 -7.0288291462726D-01  1.1523058084444D-01
104  1.0300000000000D+00 -6.5762386744428D-01  1.8580114603735D-01
105  1.0400000000000D+00 -6.0922564232340D-01  2.6566877386384D-01
106  1.0500000000000D+00 -5.5789175261278D-01  3.5427895248588D-01
107  1.0600000000000D+00 -5.0387879629720D-01  4.5091739374665D-01
108  1.0700000000000D+00 -4.4749282574922D-01  5.5472111341807D-01
109  1.0800000000000D+00 -3.8908989364953D-01  6.6467691214059D-01
110  1.0900000000000D+00 -3.2907085913235D-01  7.7963719844290D-01
111  1.1000000000000D+00 -2.6787312088884D-01  8.9834499400716D-01
112  1.1100000000000D+00 -2.0596659769511D-01  1.0194461281633D+00
113  1.1200000000000D+00 -1.4384901784141D-01  1.1415034775777D+00
114  1.1300000000000D+00 -8.2037875758223D-02  1.2630214078165D+00
115  1.1400000000000D+00 -2.1060994155838D-02  1.3824741180159D+00
116  1.1500000000000D+00  3.8548478918316D-02  1.4983207497599D+00
117  1.1600000000000D+00  9.6257074044838D-02  1.6090204786456D+00
118  1.1700000000000D+00  1.5155065376487D-01  1.7130918162512D+00
119  1.1800000000000D+00  2.0393283016789D-01  1.8091076410223D+00
120  1.1900000000000D+00  2.5292659356006D-01  1.8957000927659D+00
121  1.2000000000000D+00  2.9809832735109D-01  1.9716329284400D+00
122  1.2100000000000D+00  3.3906052535900D-01  2.0358094958111D+00
123  1.2200000000000D+00  3.7546426058986D-01  2.0872499702545D+00
124  1.2300000000000D+00  4.0701340488086D-01  2.1251341323800D+00
125  1.2400000000000D+00  4.3349003636795D-01  2.1488775501939D+00
126  1.2500000000000D+00  4.5472440404604D-01  2.1580411177599D+00
127  1.2600000000000D+00  4.7060543870710D-01  2.1523626718226D+00
128  1.2700000000000D+00  4.8112036197782D-01  2.1318755466101D+00
129  1.2800000000000D+00  4.8630457961588D-01  2.0967580385003D+00
130  1.2900000000000D+00  4.8625856449401D-01  2.0473841014596D+00
131  1.3000000000000D+00  4.8118017765582D-01  1.9844195368691D+00
132  1.3100000000000D+00  4.7130817727371D-01  1.9086528545729D+00
133  1.3200000000000D+00  4.5695238188259D-01  1.8210854003589D+00
134  1.3300000000000D+00  4.3849567406522D-01  1.7229363284752D+00
135  1.3400000000000D+00  4.1635342065006D-01  1.6155220370302D+00
136  1.3500000000000D+00  3.9100783733907D-01  1.5003575377851D+00
137  1.3600000000000D+00  3.6297552845272D-01  1.3790589822621D+00
138  1.3700000000000D+00  3.3280341176371D-01  1.2533332359515D+00
139  1.3800000000000D+00  3.0107183603691D-01  1.1249826938554D+00
140  1.3900000000000D+00  2.6837080643167D-01  9.9583789262162D-01
141  1.4000000000000D+00  2.3530695676596D-01  8.6777622412262D-01
142  1.4100000000000D+00  2.0246873976961D-01  7.4261577276744D-01
143  1.4200000000000D+00  1.7046451686865D-01  6.2223406955065D-01
144  1.4300000000000D+00  1.3984544123362D-01  5.0832940938639D-01
145  1.4400000000000D+00  1.1116174698004D-01  4.0259616420173D-01
146  1.4500000000000D+00  8.4921885693308D-02  3.0659826156810D-01
147  1.4600000000000D+00  6.1565280032112D-02  2.2168677927743D-01
148  1.4700000000000D+00  4.1537820547908D-02  1.4923104264382D-01
149  1.4800000000000D+00  2.5142039859593D-02  9.0160353381101D-02
150  1.4900000000000D+00  1.2707457025264D-02  4.5485344167011D-02
151  1.5000000000000D+00  4.6494225510731D-03  1.6599628409734D-02
152  1.5100000000000D+00  7.9120401129746D-04  2.7870247626526D-03
153  1.5200000000000D+00 -4.1883918008899D-04 -1.5246927739044D-03
154  1.5300000000000D+00 -1.4799895829578D-04 -5.3403799906672D-04
155  1.5400000000000D+00 -2.8606004680642D-06 -7.8296106754336D-06
156  1.5500000000000D+00 -2.7492962705732D-07 -7.5249653596598D-07
157  1.5600000000000D+00  0.0000000000000D+00  0.0000000000000D+00
158  1.5700000000000D+00  0.0000000000000D+00  0.0000000000000D+00
159  1.5800000000000D+00  0.0000000000000D+00  0.0000000000000D+00
160  1.5900000000000D+00  0.0000000000000D+00  0.0000000000000D+00
161  1.6000000000000D+00  0.0000000000000D+00  0.0000000000000D+00
162  1.6100000000000D+00  0.0000000000000D+00  0.0000000000000D+00
163  1.6200000000000D+00  0.0000000000000D+00  0.0000000000000D+00
164  1.6300000000000D+00  0.0000000000000D+00  0.0000000000000D+00
165  1.6400000000000D+00  0.0000000000000D+00  0.0000000000000D+00
166  1.6500000000000D+00  0.0000000000000D+00  0.0000000000000D+00
167  1.6600000000000D+00  0.0000000000000D+00  0.0000000000000D+00
168  1.6700000000000D+00  0.0000000000000D+00  0.0000000000000D+00
169  1.6800000000000D+00  0.0000000000000D+00  0.0000000000000D+00
170  1.6900000000000D+00  0.0000000000000D+00  0.0000000000000D+00
171  1.7000000000000D+00  0.0000000000000D+00  0.0000000000000D+00
172  1.7100000000000D+00  0.0000000000000D+00  0.0000000000000D+00
173  1.7200000000000D+00  0.0000000000000D+00  0.0000000000000D+00
174  1.7300000000000D+00  0.0000000000000D+00  0.0000000000000D+00
175  1.7400000000000D+00  0.0000000000000D+00  0.0000000000000D+00
176  1.7500000000000D+00  0.0000000000000D+00  0.0000000000000D+00
177  1.7600000000000D+00  0.0000000000000D+00  0.0000000000000D+00
178  1.7700000000000D+00  0.0000000000000D+00  0.0000000000000D+00
179  1.7800000000000D+00  0.0000000000000D+00  0.0000000000000D+00
180  1.7900000000000D+00  0.0000000000000D+00  0.0000000000000D+00
181  1.8000000000000D+00  0.0000000000000D+00  0.0000000000000D+00
182  1.8100000000000D+00  0.0000000000000D+00  0.0000000000000D+00
183  1.8200000000000D+00  0.0000000000000D+00  0.0000000000000D+00
184  1.8300000000000D+00  0.0000000000000D+00  0.0000000000000D+00
185  1.8400000000000D+00  0.0000000000000D+00  0.0000000000000D+00
186  1.8500000000000D+00  0.0000000000000D+00  0.0000000000000D+00
187  1.8600000000000D+00  0.0000000000000D+00  0.0000000000000D+00
188  1.8700000000000D+00  0.0000000000000D+00  0.0000000000000D+00
189  1.8800000000000D+00  0.0000000000000D+00  0.0000000000000D+00
190  1.8900000000000D+00  0.0000000000000D+00  0.0000000000000D+00
191  1.9000000000000D+00  0.0000000000000D+00  0.0000000000000D+00
192  1.9100000000000D+00  0.0000000000000D+00  0.0000000000000D+00
193  1.9200000000000D+00  0.0000000000000D+00  0.0000000000000D+00
194  1.9300000000000D+00  0.0000000000000D+00  0.0000000000000D+00
195  1.9400000000000D+00  0.0000000000000D+00  0.0000000000000D+00
196  1.9500000000000D+00  0.0000000000000D+00  0.0000000000000D+00
197  1.9600000000000D+00  0.0000000000000D+00  0.0000000000000D+00
198  1.9700000000000D+00  0.0000000000000D+00  0.0000000000000D+00
199  1.9800000000000D+00  0.0000000000000D+00  0.0000000000000D+00
200  1.9900000000000D+00  0.0000000000000D+00  0.0000000000000D+00
201  2.0000000000000D+00  0.0000000000000D+00  0.0000000000000D+00
202  2.0100000000000D+00  0.0000000000000D+00  0.0000000000000D+00
203  2.0200000000000D+00  0.0000000000000D+00  0.0000000000000D+00
204  2.0300000000000D+00  0.0000000000000D+00  0.0000000000000D+00
205  2.0400000000000D+00  0.0000000000000D+00  0.0000000000000D+00
206  2.0500000000000D+00  0.0000000000000D+00  0.0000000000000D+00
207  2.0600000000000D+00  0.0000000000000D+00  0.0000000000000D+00
208  2.0700000000000D+00  0.0000000000000D+00  0.0000000000000D+00
209  2.0800000000000D+00  0.0000000000000D+00  0.0000000000000D+00
210  2.0900000000000D+00  0.0000000000000D+00  0.0000000000000D+00
211  2.1000000000000D+00  0.0000000000000D+00  0.0000000000000D+00
212  2.1100000000000D+00  0.0000000000000D+00  0.0000000000000D+00
213  2.1200000000000D+00  0.0000000000000D+00  0.0000000000000D+00
214  2.1300000000000D+00  0.0000000000000D+00  0.0000000000000D+00
215  2.1400000000000D+00  0.0000000000000D+00  0.0000000000000D+00
216  2.1500000000000D+00  0.0000000000000D+00  0.0000000000000D+00
217  2.1600000000000D+00  0.0000000000000D+00  0.0000000000000D+00
218  2.1700000000000D+00  0.0000000000000D+00  0.0000000000000D+00
219  2.1800000000000D+00  0.0000000000000D+00  0.0000000000000D+00
220  2.1900000000000D+00  0.0000000000000D+00  0.0000000000000D+00
221  2.2000000000000D+00  0.0000000000000D+00  0.0000000000000D+00
222  2.2100000000000D+00  0.0000000000000D+00  0.0000000000000D+00
223  2.2200000000000D+00  0.0000000000000D+00  0.0000000000000D+00
224  2.2300000000000D+00  0.0000000000000D+00  0.0000000000000D+00
225  2.2400000000000D+00  0.0000000000000D+00  0.0000000000000D+00
226  2.2500000000000D+00  0.0000000000000D+00  0.0000000000000D+00
227  2.2600000000000D+00  0.0000000000000D+00  0.0000000000000D+00
228  2.2700000000000D+00  0.0000000000000D+00  0.0000000000000D+00
229  2.2800000000000D+00  0.0000000000000D+00  0.0000000000000D+00
230  2.2900000000000D+00  0.0000000000000D+00  0.0000000000000D+00
231  2.3000000000000D+00  0.0000000000000D+00  0.0000000000000D+00
232  2.3100000000000D+00  0.0000000000000D+00  0.0000000000000D+00
233  2.3200000000000D+00  0.0000000000000D+00  0.0000000000000D+00
234  2.3300000000000D+00  0.0000000000000D+00  0.0000000000000D+00
235  2.3400000000000D+00  0.0000000000000D+00  0.0000000000000D+00
236  2.3500000000000D+00  0.0000000000000D+00  0.0000000000000D+00
237  2.3600000000000D+00  0.0000000000000D+00  0.0000000000000D+00
238  2.3700000000000D+00  0.0000000000000D+00  0.0000000000000D+00
239  2.3800000000000D+00  0.0000000000000D+00  0.0000000000000D+00
240  2.3900000000000D+00  0.0000000000000D+00  0.0000000000000D+00
241  2.4000000000000D+00  0.0000000000000D+00  0.0000000000000D+00
242  2.4100000000000D+00  0.0000000000000D+00  0.0000000000000D+00
243  2.4200000000000D+00  0.0000000000000D+00  0.0000000000000D+00
244  2.4300000000000D+00  0.0000000000000D+00  0.0000000000000D+00
245  2.4400000000000D+00  0.0000000000000D+00  0.0000000000000D+00
246  2.4500000000000D+00  0.0000000000000D+00  0.0000000000000D+00
247  2.4600000000000D+00  0.0000000000000D+00  0.0000000000000D+00
248  2.4700000000000D+00  0.0000000000000D+00  0.0000000000000D+00
249  2.4800000000000D+00  0.0000000000000D+00  0.0000000000000D+00
250  2.4900000000000D+00  0.0000000000000D+00  0.0000000000000D+00
251  2.5000000000000D+00  0.0000000000000D+00  0.0000000000000D+00
252  2.5100000000000D+00  0.0000000000000D+00  0.0000000000000D+00
253  2.5200000000000D+00  0.0000000000000D+00  0.0000000000000D+00
254  2.5300000000000D+00  0.0000000000000D+00  0.0000000000000D+00
255  2.5400000000000D+00  0.0000000000000D+00  0.0000000000000D+00
256  2.5500000000000D+00  0.0000000000000D+00  0.0000000000000D+00
257  2.5600000000000D+00  0.0000000000000D+00  0.0000000000000D+00
258  2.5700000000000D+00  0.0000000000000D+00  0.0000000000000D+00
259  2.5800000000000D+00  0.0000000000000D+00  0.0000000000000D+00
260  2.5900000000000D+00  0.0000000000000D+00  0.0000000000000D+00
261  2.6000000000000D+00  0.0000000000000D+00  0.0000000000000D+00
262  2.6100000000000D+00  0.0000000000000D+00  0.0000000000000D+00
263  2.6200000000000D+00  0.0000000000000D+00  0.0000000000000D+00
264  2.6300000000000D+00  0.0000000000000D+00  0.0000000000000D+00
265  2.6400000000000D+00  0.0000000000000D+00  0.0000000000000D+00
266  2.6500000000000D+00  0.0000000000000D+00  0.0000000000000D+00
267  2.6600000000000D+00  0.0000000000000D+00  0.0000000000000D+00
268  2.6700000000000D+00  0.0000000000000D+00  0.0000000000000D+00
269  2.6800000000000D+00  0.0000000000000D+00  0.0000000000000D+00
270  2.6900000000000D+00  0.0000000000000D+00  0.0000000000000D+00
271  2.7000000000000D+00  0.0000000000000D+00  0.0000000000000D+00
272  2.7100000000000D+00  0.0000000000000D+00  0.0000000000000D+00
273  2.7200000000000D+00  0.0000000000000D+00  0.0000000000000D+00
274  2.7300000000000D+00  0.0000000000000D+00  0.0000000000000D+00
275  2.7400000000000D+00  0.0000000000000D+00  0.0000000000000D+00
276  2.7500000000000D+00  0.0000000000000D+00  0.0000000000000D+00
277  2.7600000000000D+00  0.0000000000000D+00  0.0000000000000D+00
278  2.7700000000000D+00  0.0000000000000D+00  0.0000000000000D+00
279  2.7800000000000D+00  0.0000000000000D+00  0.0000000000000D+00
280  2.7900000000000D+00  0.0000000000000D+00  0.0000000000000D+00
281  2.8000000000000D+00  0.0000000000000D+00  0.0000000000000D+00
282  2.8100000000000D+00  0.0000000000000D+00  0.0000000000000D+00
283  2.8200000000000D+00  0.0000000000000D+00  0.0000000000000D+00
284  2.8300000000000D+00  0.0000000000000D+00  0.0000000000000D+00
285  2.8400000000000D+00  0.0000000000000D+00  0.0000000000000D+00
286  2.8500000000000D+00  0.0000000000000D+00  0.0000000000000D+00
287  2.8600000000000D+00  0.0000000000000D+00  0.0000000000000D+00
288  2.8700000000000D+00  0.0000000000000D+00  0.0000000000000D+00
289  2.8800000000000D+00  0.0000000000000D+00  0.0000000000000D+00
290  2.8900000000000D+00  0.0000000000000D+00  0.0000000000000D+00
291  2.9000000000000D+00  0.0000000000000D+00  0.0000000000000D+00
292  2.9100000000000D+00  0.0000000000000D+00  0.0000000000000D+00
293  2.9200000000000D+00  0.0000000000000D+00  0.0000000000000D+00
294  2.9300000000000D+00  0.0000000000000D+00  0.0000000000000D+00
295  2.9400000000000D+00  0.0000000000000D+00  0.0000000000000D+00
296  2.9500000000000D+00  0.0000000000000D+00  0.0000000000000D+00
297  2.9600000000000D+00  0.0000000000000D+00  0.0000000000000D+00
298  2.9700000000000D+00  0.0000000000000D+00  0.0000000000000D+00
299  2.9800000000000D+00  0.0000000000000D+00  0.0000000000000D+00
300  2.9900000000000D+00  0.0000000000000D+00  0.0000000000000D+00
301  3.0000000000000D+00  0.0000000000000D+00  0.0000000000000D+00
302  3.0100000000000D+00  0.0000000000000D+00  0.0000000000000D+00
303  3.0200000000000D+00  0.0000000000000D+00  0.0000000000000D+00
304  3.0300000000000D+00  0.0000000000000D+00  0.0000000000000D+00
305  3.0400000000000D+00  0.0000000000000D+00  0.0000000000000D+00
306  3.0500000000000D+00  0.0000000000000D+00  0.0000000000000D+00
307  3.0600000000000D+00  0.0000000000000D+00  0.0000000000000D+00
308  3.0700000000000D+00  0.0000000000000D+00  0.0000000000000D+00
309  3.0800000000000D+00  0.0000000000000D+00  0.0000000000000D+00
310  3.0900000000000D+00  0.0000000000000D+00  0.0000000000000D+00
311  3.1000000000000D+00  0.0000000000000D+00  0.0000000000000D+00
312  3.1100000000000D+00  0.0000000000000D+00  0.0000000000000D+00
313  3.1200000000000D+00  0.0000000000000D+00  0.0000000000000D+00
314  3.1300000000000D+00  0.0000000000000D+00  0.0000000000000D+00
315  3.1400000000000D+00  0.0000000000000D+00  0.0000000000000D+00
316  3.1500000000000D+00  0.0000000000000D+00  0.0000000000000D+00
317  3.1600000000000D+00  0.0000000000000D+00  0.0000000000000D+00
318  3.1700000000000D+00  0.0000000000000D+00  0.0000000000000D+00
319  3.1800000000000D+00  0.0000000000000D+00  0.0000000000000D+00
320  3.1900000000000D+00  0.0000000000000D+00  0.0000000000000D+00
321  3.2000000000000D+00  0.0000000000000D+00  0.0000000000000D+00
322  3.2100000000000D+00  0.0000000000000D+00  0.0000000000000D+00
323  3.2200000000000D+00  0.0000000000000D+00  0.0000000000000D+00
324  3.2300000000000D+00  0.0000000000000D+00  0.0000000000000D+00
325  3.2400000000000D+00  0.0000000000000D+00  0.0000000000000D+00
326  3.2500000000000D+00  0.0000000000000D+00  0.0000000000000D+00
327  3.2600000000000D+00  0.0000000000000D+00  0.0000000000000D+00
328  3.2700000000000D+00  0.0000000000000D+00  0.0000000000000D+00
329  3.2800000000000D+00  0.0000000000000D+00  0.0000000000000D+00
330  3.2900000000000D+00  0.0000000000000D+00  0.0000000000000D+00
331  3.3000000000000D+00  0.0000000000000D+00  0.0000000000000D+00
332  3.3100000000000D+00  0.0000000000000D+00  0.0000000000000D+00
333  3.3200000000000D+00  0.0000000000000D+00  0.0000000000000D+00
334  3.3300000000000D+00  0.0000000000000D+00  0.0000000000000D+00
335  3.3400000000000D+00  0.0000000000000D+00  0.0000000000000D+00
336  3.3500000000000D+00  0.0000000000000D+00  0.0000000000000D+00
337  3.3600000000000D+00  0.0000000000000D+00  0.0000000000000D+00
338  3.3700000000000D+00  0.0000000000000D+00  0.0000000000000D+00
339  3.3800000000000D+00  0.0000000000000D+00  0.0000000000000D+00
340  3.3900000000000D+00  0.0000000000000D+00  0.0000000000000D+00
341  3.4000000000000D+00  0.0000000000000D+00  0.0000000000000D+00
342  3.4100000000000D+00  0.0000000000000D+00  0.0000000000000D+00
343  3.4200000000000D+00  0.0000000000000D+00  0.0000000000000D+00
344  3.4300000000000D+00  0.0000000000000D+00  0.0000000000000D+00
345  3.4400000000000D+00  0.0000000000000D+00  0.0000000000000D+00
346  3.4500000000000D+00  0.0000000000000D+00  0.0000000000000D+00
347  3.4600000000000D+00  0.0000000000000D+00  0.0000000000000D+00
348  3.4700000000000D+00  0.0000000000000D+00  0.0000000000000D+00
349  3.4800000000000D+00  0.0000000000000D+00  0.0000000000000D+00
350  3.4900000000000D+00  0.0000000000000D+00  0.0000000000000D+00
351  3.5000000000000D+00  0.0000000000000D+00  0.0000000000000D+00
352  3.5100000000000D+00  0.0000000000000D+00  0.0000000000000D+00
353  3.5200000000000D+00  0.0000000000000D+00  0.0000000000000D+00
354  3.5300000000000D+00  0.0000000000000D+00  0.0000000000000D+00
355  3.5400000000000D+00  0.0000000000000D+00  0.0000000000000D+00
356  3.5500000000000D+00  0.0000000000000D+00  0.0000000000000D+00
357  3.5600000000000D+00  0.0000000000000D+00  0.0000000000000D+00
358  3.5700000000000D+00  0.0000000000000D+00  0.0000000000000D+00
359  3.5800000000000D+00  0.0000000000000D+00  0.0000000000000D+00
360  3.5900000000000D+00  0.0000000000000D+00  0.0000000000000D+00
361  3.6000000000000D+00  0.0000000000000D+00  0.0000000000000D+00
362  3.6100000000000D+00  0.0000000000000D+00  0.0000000000000D+00
363  3.6200000000000D+00  0.0000000000000D+00  0.0000000000000D+00
364  3.6300000000000D+00  0.0000000000000D+00  0.0000000000000D+00
365  3.6400000000000D+00  0.0000000000000D+00  0.0000000000000D+00
366  3.6500000000000D+00  0.0000000000000D+00  0.0000000000000D+00
367  3.6600000000000D+00  0.0000000000000D+00  0.0000000000000D+00
368  3.6700000000000D+00  0.0000000000000D+00  0.0000000000000D+00
369  3.6800000000000D+00  0.0000000000000D+00  0.0000000000000D+00
370  3.6900000000000D+00  0.0000000000000D+00  0.0000000000000D+00
371  3.7000000000000D+00  0.0000000000000D+00  0.0000000000000D+00
372  3.7100000000000D+00  0.0000000000000D+00  0.0000000000000D+00
373  3.7200000000000D+00  0.0000000000000D+00  0.0000000000000D+00
374  3.7300000000000D+00  0.0000000000000D+00  0.0000000000000D+00
375  3.7400000000000D+00  0.0000000000000D+00  0.0000000000000D+00
376  3.7500000000000D+00  0.0000000000000D+00  0.0000000000000D+00
377  3.7600000000000D+00  0.0000000000000D+00  0.0000000000000D+00
378  3.7700000000000D+00  0.0000000000000D+00  0.0000000000000D+00
379  3.7800000000000D+00  0.0000000000000D+00  0.0000000000000D+00
380  3.7900000000000D+00  0.0000000000000D+00  0.0000000000000D+00
381  3.8000000000000D+00  0.0000000000000D+00  0.0000000000000D+00
382  3.8100000000000D+00  0.0000000000000D+00  0.0000000000000D+00
383  3.8200000000000D+00  0.0000000000000D+00  0.0000000000000D+00
384  3.8300000000000D+00  0.0000000000000D+00  0.0000000000000D+00
385  3.8400000000000D+00  0.0000000000000D+00  0.0000000000000D+00
386  3.8500000000000D+00  0.0000000000000D+00  0.0000000000000D+00
387  3.8600000000000D+00  0.0000000000000D+00  0.0000000000000D+00
388  3.8700000000000D+00  0.0000000000000D+00  0.0000000000000D+00
389  3.8800000000000D+00  0.0000000000000D+00  0.0000000000000D+00
390  3.8900000000000D+00  0.0000000000000D+00  0.0000000000000D+00
391  3.9000000000000D+00  0.0000000000000D+00  0.0000000000000D+00
392  3.9100000000000D+00  0.0000000000000D+00  0.0000000000000D+00
393  3.9200000000000D+00  0.0000000000000D+00  0.0000000000000D+00
394  3.9300000000000D+00  0.0000000000000D+00  0.0000000000000D+00
395  3.9400000000000D+00  0.0000000000000D+00  0.0000000000000D+00
396  3.9500000000000D+00  0.0000000000000D+00  0.0000000000000D+00
397  3.9600000000000D+00  0.0000000000000D+00  0.0000000000000D+00
398  3.9700000000000D+00  0.0000000000000D+00  0.0000000000000D+00
399  3.9800000000000D+00  0.0000000000000D+00  0.0000000000000D+00
400  3.9900000000000D+00  0.0000000000000D+00  0.0000000000000D+00
401  4.0000000000000D+00  0.0000000000000D+00  0.0000000000000D+00
402  4.0100000000000D+00  0.0000000000000D+00  0.0000000000000D+00
403  4.0200000000000D+00  0.0000000000000D+00  0.0000000000000D+00
404  4.0300000000000D+00  0.0000000000000D+00  0.0000000000000D+00
405  4.0400000000000D+00  0.0000000000000D+00  0.0000000000000D+00
406  4.0500000000000D+00  0.0000000000000D+00  0.0000000000000D+00
407  4.0600000000000D+00  0.0000000000000D+00  0.0000000000000D+00
408  4.0700000000000D+00  0.0000000000000D+00  0.0000000000000D+00
409  4.0800000000000D+00  0.0000000000000D+00  0.0000000000000D+00
410  4.0900000000000D+00  0.0000000000000D+00  0.0000000000000D+00
411  4.1000000000000D+00  0.0000000000000D+00  0.0000000000000D+00
412  4.1100000000000D+00  0.0000000000000D+00  0.0000000000000D+00
413  4.1200000000000D+00  0.0000000000000D+00  0.0000000000000D+00
414  4.1300000000000D+00  0.0000000000000D+00  0.0000000000000D+00
415  4.1400000000000D+00  0.0000000000000D+00  0.0000000000000D+00
416  4.1500000000000D+00  0.0000000000000D+00  0.0000000000000D+00
417  4.1600000000000D+00  0.0000000000000D+00  0.0000000000000D+00
418  4.1700000000000D+00  0.0000000000000D+00  0.0000000000000D+00
419  4.1800000000000D+00  0.0000000000000D+00  0.0000000000000D+00
420  4.1900000000000D+00  0.0000000000000D+00  0.0000000000000D+00
421  4.2000000000000D+00  0.0000000000000D+00  0.0000000000000D+00
422  4.2100000000000D+00  0.0000000000000D+00  0.0000000000000D+00
423  4.2200000000000D+00  0.0000000000000D+00  0.0000000000000D+00
424  4.2300000000000D+00  0.0000000000000D+00  0.0000000000000D+00
425  4.2400000000000D+00  0.0000000000000D+00  0.0000000000000D+00
426  4.2500000000000D+00  0.0000000000000D+00  0.0000000000000D+00
427  4.2600000000000D+00  0.0000000000000D+00  0.0000000000000D+00
428  4.2700000000000D+00  0.0000000000000D+00  0.0000000000000D+00
429  4.2800000000000D+00  0.0000000000000D+00  0.0000000000000D+00
430  4.2900000000000D+00  0.0000000000000D+00  0.0000000000000D+00
431  4.3000000000000D+00  0.0000000000000D+00  0.0000000000000D+00
432  4.3100000000000D+00  0.0000000000000D+00  0.0000000000000D+00
433  4.3200000000000D+00  0.0000000000000D+00  0.0000000000000D+00
434  4.3300000000000D+00  0.0000000000000D+00  0.0000000000000D+00
435  4.3400000000000D+00  0.0000000000000D+00  0.0000000000000D+00
436  4.3500000000000D+00  0.0000000000000D+00  0.0000000000000D+00
437  4.3600000000000D+00  0.0000000000000D+00  0.0000000000000D+00
438  4.3700000000000D+00  0.0000000000000D+00  0.0000000000000D+00
439  4.3800000000000D+00  0.0000000000000D+00  0.0000000000000D+00
440  4.3900000000000D+00  0.0000000000000D+00  0.0000000000000D+00
441  4.4000000000000D+00  0.0000000000000D+00  0.0000000000000D+00
442  4.4100000000000D+00  0.0000000000000D+00  0.0000000000000D+00
443  4.4200000000000D+00  0.0000000000000D+00  0.0000000000000D+00
444  4.4300000000000D+00  0.0000000000000D+00  0.0000000000000D+00