Os    ONCVPSP  r_core=  2.47  2.11  2.16
76.0000     14.0000      150810    zatom,zion,pspd
8      11   2     4   600     0    pspcod,pspxc,lmax,lloc,mmax,r2well
5.99000000  5.00000000  0.00000000    rchrg fchrg qchrg
2     2     2     0     0    nproj
0                 extension_switch
0                         4.4566909703023D+00  5.2394313057100D-01
1  0.0000000000000D+00 -2.3798463200109D-12  3.3552882694465D-12
2  1.0000000000000D-02  2.1140832830738D-02 -2.2640178784094D-02
3  2.0000000000000D-02  4.2253361483817D-02 -4.5230316034151D-02
4  3.0000000000000D-02  6.3309366265796D-02 -6.7720506221987D-02
5  4.0000000000000D-02  8.4280796203850D-02 -9.0061115457392D-02
6  5.0000000000000D-02  1.0513985278713D-01 -1.1220291637364D-01
7  6.0000000000000D-02  1.2585907296702D-01 -1.3409722189518D-01
8  7.0000000000000D-02  1.4641141117206D-01 -1.5569601751872D-01
9  8.0000000000000D-02  1.6677032009565D-01 -1.7695209174249D-01
10  9.0000000000000D-02  1.8690983001754D-01 -1.9781916428229D-01
11  1.0000000000000D-01  2.0680462642379D-01 -2.1825201171828D-01
12  1.1000000000000D-01  2.2643012569382D-01 -2.3820659022199D-01
13  1.2000000000000D-01  2.4576254862815D-01 -2.5764015501994D-01
14  1.3000000000000D-01  2.6477899159516D-01 -2.7651137625745D-01
15  1.4000000000000D-01  2.8345749508185D-01 -2.9478045093465D-01
16  1.5000000000000D-01  3.0177710943894D-01 -3.1240921059582D-01
17  1.6000000000000D-01  3.1971795761857D-01 -3.2936122446266D-01
18  1.7000000000000D-01  3.3726129470953D-01 -3.4560189771332D-01
19  1.8000000000000D-01  3.5438956408345D-01 -3.6109856461992D-01
20  1.9000000000000D-01  3.7108644997355D-01 -3.7582057626953D-01
21  2.0000000000000D-01  3.8733692631679D-01 -3.8973938260692D-01
22  2.1000000000000D-01  4.0312730169963D-01 -4.0282860855031D-01
23  2.2000000000000D-01  4.1844526025755D-01 -4.1506412394633D-01
24  2.3000000000000D-01  4.3327989838893D-01 -4.2642410714520D-01
25  2.4000000000000D-01  4.4762175715494D-01 -4.3688910199268D-01
26  2.5000000000000D-01  4.6146285024794D-01 -4.4644206805211D-01
27  2.6000000000000D-01  4.7479668742303D-01 -4.5506842388657D-01
28  2.7000000000000D-01  4.8761829329932D-01 -4.6275608324883D-01
29  2.8000000000000D-01  4.9992422144963D-01 -4.6949548404507D-01
30  2.9000000000000D-01  5.1171256371070D-01 -4.7527960995704D-01
31  3.0000000000000D-01  5.2298295465838D-01 -4.8010400462636D-01
32  3.1000000000000D-01  5.3373657120619D-01 -4.8396677832473D-01
33  3.2000000000000D-01  5.4397612729902D-01 -4.8686860705372D-01
34  3.3000000000000D-01  5.5370586368751D-01 -4.8881272403839D-01
35  3.4000000000000D-01  5.6293153278292D-01 -4.8980490360005D-01
36  3.5000000000000D-01  5.7166037860630D-01 -4.8985343741449D-01
37  3.6000000000000D-01  5.7990111186030D-01 -4.8896910318367D-01
38  3.7000000000000D-01  5.8766388016623D-01 -4.8716512577050D-01
39  3.8000000000000D-01  5.9496023352362D-01 -4.8445713086824D-01
40  3.9000000000000D-01  6.0180308506398D-01 -4.8086309129792D-01
41  4.0000000000000D-01  6.0820666718499D-01 -4.7640326604948D-01
42  4.1000000000000D-01  6.1418648316589D-01 -4.7110013220411D-01
43  4.2000000000000D-01  6.1975925437900D-01 -4.6497830989736D-01
44  4.3000000000000D-01  6.2494286322687D-01 -4.5806448050447D-01
45  4.4000000000000D-01  6.2975629194830D-01 -4.5038729825105D-01
46  4.5000000000000D-01  6.3421955745044D-01 -4.4197729547352D-01
47  4.6000000000000D-01  6.3835364233789D-01 -4.3286678177507D-01
48  4.7000000000000D-01  6.4218042232266D-01 -4.2308973734321D-01
49  4.8000000000000D-01  6.4572259021229D-01 -4.1268170071588D-01
50  4.9000000000000D-01  6.4900357668530D-01 -4.0167965130195D-01
51  5.0000000000000D-01  6.5204746807590D-01 -3.9012188698205D-01
52  5.1000000000000D-01  6.5487892140108D-01 -3.7804789713322D-01
53  5.2000000000000D-01  6.5752307687428D-01 -3.6549823143936D-01
54  5.3000000000000D-01  6.6000546816081D-01 -3.5251436486594D-01
55  5.4000000000000D-01  6.6235193063941D-01 -3.3913855919357D-01
56  5.5000000000000D-01  6.6458850794418D-01 -3.2541372152034D-01
57  5.6000000000000D-01  6.6674135706942D-01 -3.1138326015666D-01
58  5.7000000000000D-01  6.6883665232761D-01 -2.9709093834950D-01
59  5.8000000000000D-01  6.7090048845817D-01 -2.8258072628506D-01
60  5.9000000000000D-01  6.7295878319055D-01 -2.6789665182878D-01
61  6.0000000000000D-01  6.7503717957065D-01 -2.5308265047217D-01
62  6.1000000000000D-01  6.7716094836428D-01 -2.3818241496289D-01
63  6.2000000000000D-01  6.7935489085471D-01 -2.2323924510202D-01
64  6.3000000000000D-01  6.8164324235416D-01 -2.0829589819736D-01
65  6.4000000000000D-01  6.8404957675077D-01 -1.9339444066548D-01
66  6.5000000000000D-01  6.8659671241321D-01 -1.7857610127763D-01
67  6.6000000000000D-01  6.8930661977480D-01 -1.6388112654492D-01
68  6.7000000000000D-01  6.9220033091778D-01 -1.4934863873817D-01
69  6.8000000000000D-01  6.9529785147580D-01 -1.3501649703424D-01
70  6.9000000000000D-01  6.9861807516926D-01 -1.2092116227736D-01
71  7.0000000000000D-01  7.0217870128384D-01 -1.0709756583774D-01
72  7.1000000000000D-01  7.0599615539660D-01 -9.3578983042350D-02
73  7.2000000000000D-01  7.1008551364770D-01 -8.0396911643547D-02
74  7.3000000000000D-01  7.1446043084777D-01 -6.7580955780175D-02
75  7.4000000000000D-01  7.1913307270238D-01 -5.5158715873618D-02
76  7.5000000000000D-01  7.2411405242496D-01 -4.3155684886312D-02
77  7.6000000000000D-01  7.2941237199886D-01 -3.1595151354995D-02
78  7.7000000000000D-01  7.3503536833708D-01 -2.0498109592918D-02
79  7.8000000000000D-01  7.4098866457530D-01 -9.8831774360542D-03
80  7.9000000000000D-01  7.4727612672014D-01  2.3347811198988D-04
81  8.0000000000000D-01  7.5389982585934D-01  9.8382070046569D-03
82  8.1000000000000D-01  7.6086000612503D-01  1.8919933738328D-02
83  8.2000000000000D-01  7.6815505858461D-01  2.7470206116277D-02
84  8.3000000000000D-01  7.7578150121610D-01  3.5483234934526D-02
85  8.4000000000000D-01  7.8373396510658D-01  4.2955924360944D-02
86  8.5000000000000D-01  7.9200518699351D-01  4.9887892808304D-02
87  8.6000000000000D-01  8.0058600824877D-01  5.6281484132116D-02
88  8.7000000000000D-01  8.0946538038505D-01  6.2141769015582D-02
89  8.8000000000000D-01  8.1863037714331D-01  6.7476536436045D-02
90  8.9000000000000D-01  8.2806621319859D-01  7.2296275140738D-02
91  9.0000000000000D-01  8.3775626949968D-01  7.6614145093305D-02
92  9.1000000000000D-01  8.4768212523586D-01  8.0445938887118D-02
93  9.2000000000000D-01  8.5782359640149D-01  8.3810033156845D-02
94  9.3000000000000D-01  8.6815878090644D-01  8.6727330054684D-02
95  9.4000000000000D-01  8.7866411015758D-01  8.9221188893710D-02
96  9.5000000000000D-01  8.8931440701350D-01  9.1317348097137D-02
97  9.6000000000000D-01  9.0008294999175D-01  9.3043837627334D-02
98  9.7000000000000D-01  9.1094154358512D-01  9.4430882105503D-02
99  9.8000000000000D-01  9.2186059452096D-01  9.5510794867225D-02
100  9.9000000000000D-01  9.3280919377475D-01  9.6317863235814D-02
101  1.0000000000000D+00  9.4375520412752D-01  9.6888225329160D-02
102  1.0100000000000D+00  9.5466535303508D-01  9.7259738750266D-02
103  1.0200000000000D+00  9.6550533055575D-01  9.7471841545073D-02
104  1.0300000000000D+00  9.7623989206280D-01  9.7565405843869D-02
105  1.0400000000000D+00  9.8683296544834D-01  9.7582584633344D-02
106  1.0500000000000D+00  9.9724776250643D-01  9.7566652136974D-02
107  1.0600000000000D+00  1.0074468941642D+00  9.7561838310649D-02
108  1.0700000000000D+00  1.0173924892134D+00  9.7613157987383D-02
109  1.0800000000000D+00  1.0270463161787D+00  9.7766235231566D-02
110  1.0900000000000D+00  1.0363699079420D+00  9.8067123486535D-02
111  1.1000000000000D+00  1.0453246887317D+00  9.8562122121757D-02
112  1.1100000000000D+00  1.0538721030691D+00  9.9297590007717D-02
113  1.1200000000000D+00  1.0619737462544D+00  1.0031975676342D-01
114  1.1300000000000D+00  1.0695914959648D+00  1.0167453233960D-01
115  1.1400000000000D+00  1.0766876445291D+00  1.0340731561159D-01
116  1.1500000000000D+00  1.0832250314325D+00  1.0556280267211D-01
117  1.1600000000000D+00  1.0891671756036D+00  1.0818479552044D-01
118  1.1700000000000D+00  1.0944784070288D+00  1.1131601185239D-01
119  1.1800000000000D+00  1.0991239972366D+00  1.1499789665987D-01
120  1.1900000000000D+00  1.1030702881948D+00  1.1927043635191D-01
121  1.2000000000000D+00  1.1062848191614D+00  1.2417197610611D-01
122  1.2100000000000D+00  1.1087364510352D+00  1.2973904115775D-01
123  1.2200000000000D+00  1.1103954877522D+00  1.3600616272882D-01
124  1.2300000000000D+00  1.1112337942835D+00  1.4300570928784D-01
125  1.2400000000000D+00  1.1112249107946D+00  1.5076772381945D-01
126  1.2500000000000D+00  1.1103441625337D+00  1.5931976777686D-01
127  1.2600000000000D+00  1.1085687650299D+00  1.6868677236248D-01
128  1.2700000000000D+00  1.1058779241972D+00  1.7889089776318D-01
129  1.2800000000000D+00  1.1022529309401D+00  1.8995140096370D-01
130  1.2900000000000D+00  1.0976772498885D+00  2.0188451270991D-01
131  1.3000000000000D+00  1.0921366019027D+00  2.1470332417596D-01
132  1.3100000000000D+00  1.0856190399895D+00  2.2841768388562D-01
133  1.3200000000000D+00  1.0781150183192D+00  2.4303410536040D-01
134  1.3300000000000D+00  1.0696174540369D+00  2.5855568596154D-01
135  1.3400000000000D+00  1.0601217815727D+00  2.7498203737603D-01
136  1.3500000000000D+00  1.0496259992155D+00  2.9230922809625D-01
137  1.3600000000000D+00  1.0381307077002D+00  3.1052973827123D-01
138  1.3700000000000D+00  1.0256391405973D+00  3.2963242724112D-01
139  1.3800000000000D+00  1.0121571863551D+00  3.4960251396877D-01
140  1.3900000000000D+00  9.9769340179261D-01  3.7042157066604D-01
141  1.4000000000000D+00  9.8225901696261D-01  3.9206752971793D-01
142  1.4100000000000D+00  9.6586793127688D-01  4.1451470404898D-01
143  1.4200000000000D+00  9.4853670080086D-01  4.3773382105485D-01
144  1.4300000000000D+00  9.3028451674591D-01  4.6169207002474D-01
145  1.4400000000000D+00  9.1113317507868D-01  4.8635316315664D-01
146  1.4500000000000D+00  8.9110703733890D-01  5.1167740998954D-01
147  1.4600000000000D+00  8.7023298270006D-01  5.3762180516895D-01
148  1.4700000000000D+00  8.4854035133612D-01  5.6414012941540D-01
149  1.4800000000000D+00  8.2606087929705D-01  5.9118306334059D-01
150  1.4900000000000D+00  8.0282862492609D-01  6.1869831402970D-01
151  1.5000000000000D+00  7.7887988713503D-01  6.4663075385155D-01
152  1.5100000000000D+00  7.5425311563959D-01  6.7492257130379D-01
153  1.5200000000000D+00  7.2898881347388D-01  7.0351343335043D-01
154  1.5300000000000D+00  7.0312943203163D-01  7.3234065882464D-01
155  1.5400000000000D+00  6.7671925891450D-01  7.6133940241656D-01
156  1.5500000000000D+00  6.4980429898961D-01  7.9044284857104D-01
157  1.5600000000000D+00  6.2243214889740D-01  8.1958241487755D-01
158  1.5700000000000D+00  5.9465186554931D-01  8.4868796405830D-01
159  1.5800000000000D+00  5.6651382884144D-01  8.7768802415977D-01
160  1.5900000000000D+00  5.3806959920186D-01  9.0651001592997D-01
161  1.6000000000000D+00  5.0937177025416D-01  9.3508048689598D-01
162  1.6100000000000D+00  4.8047381721615D-01  9.6332535112340D-01
163  1.6200000000000D+00  4.5142994140727D-01  9.9117013402751D-01
164  1.6300000000000D+00  4.2229491146910D-01  1.0185402212417D+00
165  1.6400000000000D+00  3.9312390175029D-01  1.0453611107901D+00
166  1.6500000000000D+00  3.6397232845132D-01  1.0715586675861D+00
167  1.6600000000000D+00  3.3489568403638D-01  1.0970593794157D+00
168  1.6700000000000D+00  3.0594937050642D-01  1.1217906134301D+00
169  1.6800000000000D+00  2.7718853207455D-01  1.1456808722578D+00
170  1.6900000000000D+00  2.4866788784191D-01  1.1686600487529D+00
171  1.7000000000000D+00  2.2044156502941D-01  1.1906596784711D+00
172  1.7100000000000D+00  1.9256293336839D-01  1.2116131888866D+00
173  1.7200000000000D+00  1.6508444120644D-01  1.2314561444403D+00
174  1.7300000000000D+00  1.3805745392800D-01  1.2501264864435D+00
175  1.7400000000000D+00  1.1153209524456D-01  1.2675647669324D+00
176  1.7500000000000D+00  8.5557091928895D-02  1.2837143755423D+00
177  1.7600000000000D+00  6.0179622560277D-02  1.2985217584797D+00
178  1.7700000000000D+00  3.5445170789914D-02  1.3119366287739D+00
179  1.7800000000000D+00  1.1397383739678D-02  1.3239121668089D+00
180  1.7900000000000D+00 -1.1922064083311D-02  1.3344052105374D+00
181  1.8000000000000D+00 -3.4473600640061D-02  1.3433764341995D+00
182  1.8100000000000D+00 -5.6219879809119D-02  1.3507905153124D+00
183  1.8200000000000D+00 -7.7125897535153D-02  1.3566162884445D+00
184  1.8300000000000D+00 -9.7159100804545D-02  1.3608268860514D+00
185  1.8400000000000D+00 -1.1628948834248D-01  1.3633998645353D+00
186  1.8500000000000D+00 -1.3448970338485D-01  1.3643173161849D+00
187  1.8600000000000D+00 -1.5173511743611D-01  1.3635659651929D+00
188  1.8700000000000D+00 -1.6800390531172D-01  1.3611372483081D+00
189  1.8800000000000D+00 -1.8327711066651D-01  1.3570273788177D+00
190  1.8900000000000D+00 -1.9753870202508D-01  1.3512373939348D+00
191  1.9000000000000D+00 -2.1077561903531D-01  1.3437731851683D+00
192  1.9100000000000D+00 -2.2297780845328D-01  1.3346455108915D+00
193  1.9200000000000D+00 -2.3413825032009D-01  1.3238699919339D+00
194  1.9300000000000D+00 -2.4425297320348D-01  1.3114670883432D+00
195  1.9400000000000D+00 -2.5332105962954D-01  1.2974620592599D+00
196  1.9500000000000D+00 -2.6134464033314D-01  1.2818849036423D+00
197  1.9600000000000D+00 -2.6832887842138D-01  1.2647702837299D+00
198  1.9700000000000D+00 -2.7428194270641D-01  1.2461574300402D+00
199  1.9800000000000D+00 -2.7921497045069D-01  1.2260900283553D+00
200  1.9900000000000D+00 -2.8314201999654D-01  1.2046160895331D+00
201  2.0000000000000D+00 -2.8608001240434D-01  1.1817878007262D+00
202  2.0100000000000D+00 -2.8804866365535D-01  1.1576613606528D+00
203  2.0200000000000D+00 -2.8907040605330D-01  1.1322967966898D+00
204  2.0300000000000D+00 -2.8917030031985D-01  1.1057577663251D+00
205  2.0400000000000D+00 -2.8837593793317D-01  1.0781113420206D+00
206  2.0500000000000D+00 -2.8671733370054D-01  1.0494277779738D+00
207  2.0600000000000D+00 -2.8422681144828D-01  1.0197802794640D+00
208  2.0700000000000D+00 -2.8093887478763D-01  9.8924469920509D-01
209  2.0800000000000D+00 -2.7689008322058D-01  9.5789934784978D-01
210  2.0900000000000D+00 -2.7211890641592D-01  9.2582466553668D-01
211  2.1000000000000D+00 -2.6666557045852D-01  8.9310287820714D-01
212  2.1100000000000D+00 -2.6057189163470D-01  8.5981751636066D-01
213  2.1200000000000D+00 -2.5388115405899D-01  8.2605357275520D-01
214  2.1300000000000D+00 -2.4663795338285D-01  7.9189734472271D-01
215  2.1400000000000D+00 -2.3888805985490D-01  7.5743638311945D-01
216  2.1500000000000D+00 -2.3067827962726D-01  7.2275940854965D-01
217  2.1600000000000D+00 -2.2205633372636D-01  6.8795649157874D-01
218  2.1700000000000D+00 -2.1307067496404D-01  6.5311851363114D-01
219  2.1800000000000D+00 -2.0377032860848D-01  6.1833688426616D-01
220  2.1900000000000D+00 -1.9420472837513D-01  5.8370325340726D-01
221  2.2000000000000D+00 -1.8442355448470D-01  5.4930928800854D-01
222  2.2100000000000D+00 -1.7447656530588D-01  5.1524635066326D-01
223  2.2200000000000D+00 -1.6441343219414D-01  4.8160523253050D-01
224  2.2300000000000D+00 -1.5428357323566D-01  4.4847586902866D-01
225  2.2400000000000D+00 -1.4413598784782D-01  4.1594705914560D-01
226  2.2500000000000D+00 -1.3401909279747D-01  3.8410618769631D-01
227  2.2600000000000D+00 -1.2398055976532D-01  3.5303895041981D-01
228  2.2700000000000D+00 -1.1406715542785D-01  3.2282908350359D-01
229  2.2800000000000D+00 -1.0432458443609D-01  2.9355809816490D-01
230  2.2900000000000D+00 -9.4797335246900D-02  2.6530502022677D-01
231  2.3000000000000D+00 -8.5528530484859D-02  2.3814613743184D-01
232  2.3100000000000D+00 -7.6559781189250D-02  2.1215475345178D-01
233  2.3200000000000D+00 -6.7931045639587D-02  1.8740094973116D-01
234  2.3300000000000D+00 -5.9680494183582D-02  1.6395135749961D-01
235  2.3400000000000D+00 -5.1844378927795D-02  1.4186893809729D-01
236  2.3500000000000D+00 -4.4456909822557D-02  1.2121277412446D-01
237  2.3600000000000D+00 -3.7550137759773D-02  1.0203787243445D-01
238  2.3700000000000D+00 -3.1153843455398D-02  8.4394976964986D-02
239  2.3800000000000D+00 -2.5295434493562D-02  6.8330395307901D-02
240  2.3900000000000D+00 -2.0004534625107D-02  5.3898300863697D-02
241  2.4000000000000D+00 -1.5295239608233D-02  4.1113613872777D-02
242  2.4100000000000D+00 -1.1184092413478D-02  2.9999898778314D-02
243  2.4200000000000D+00 -7.6692761106858D-03  2.0534148902473D-02
244  2.4300000000000D+00 -4.8183154052202D-03  1.2879890767125D-02
245  2.4400000000000D+00 -2.6638306210876D-03  7.1102233497929D-03
246  2.4500000000000D+00 -1.2181613696898D-03  3.2467311311631D-03
247  2.4600000000000D+00 -3.6044325730919D-04  9.5909549888779D-04
248  2.4700000000000D+00  4.1909698803085D-05 -1.1185114861830D-04
249  2.4800000000000D+00  1.4148644234524D-04 -3.7632301605429D-04
250  2.4900000000000D+00  8.0332520363200D-05 -2.1346311686499D-04
251  2.5000000000000D+00 -1.2604635987737D-05  3.3559750718916D-05
252  2.5100000000000D+00 -4.3770172484767D-05  1.1650366709694D-04
253  2.5200000000000D+00 -2.9311371865419D-05  7.7999597468251D-05
254  2.5300000000000D+00  2.0853130075083D-06 -5.5697957074663D-06
255  2.5400000000000D+00  7.8018100584757D-06 -2.0837862272709D-05
256  2.5500000000000D+00  5.7094041501716D-06 -1.5248982296038D-05
257  2.5600000000000D+00  1.7869257695619D-09 -4.5250447328418D-09
258  2.5700000000000D+00  7.8333872229842D-09 -1.9836541728515D-08
259  2.5800000000000D+00  6.1201207311545D-09 -1.5498024904334D-08
260  2.5900000000000D+00  0.0000000000000D+00  0.0000000000000D+00
261  2.6000000000000D+00  0.0000000000000D+00  0.0000000000000D+00
262  2.6100000000000D+00  0.0000000000000D+00  0.0000000000000D+00
263  2.6200000000000D+00  0.0000000000000D+00  0.0000000000000D+00
264  2.6300000000000D+00  0.0000000000000D+00  0.0000000000000D+00
265  2.6400000000000D+00  0.0000000000000D+00  0.0000000000000D+00
266  2.6500000000000D+00  0.0000000000000D+00  0.0000000000000D+00
267  2.6600000000000D+00  0.0000000000000D+00  0.0000000000000D+00
268  2.6700000000000D+00  0.0000000000000D+00  0.0000000000000D+00
269  2.6800000000000D+00  0.0000000000000D+00  0.0000000000000D+00
270  2.6900000000000D+00  0.0000000000000D+00  0.0000000000000D+00
271  2.7000000000000D+00  0.0000000000000D+00  0.0000000000000D+00
272  2.7100000000000D+00  0.0000000000000D+00  0.0000000000000D+00
273  2.7200000000000D+00  0.0000000000000D+00  0.0000000000000D+00
274  2.7300000000000D+00  0.0000000000000D+00  0.0000000000000D+00
275  2.7400000000000D+00  0.0000000000000D+00  0.0000000000000D+00
276  2.7500000000000D+00  0.0000000000000D+00  0.0000000000000D+00
277  2.7600000000000D+00  0.0000000000000D+00  0.0000000000000D+00
278  2.7700000000000D+00  0.0000000000000D+00  0.0000000000000D+00
279  2.7800000000000D+00  0.0000000000000D+00  0.0000000000000D+00
280  2.7900000000000D+00  0.0000000000000D+00  0.0000000000000D+00
281  2.8000000000000D+00  0.0000000000000D+00  0.0000000000000D+00
282  2.8100000000000D+00  0.0000000000000D+00  0.0000000000000D+00
283  2.8200000000000D+00  0.0000000000000D+00  0.0000000000000D+00
284  2.8300000000000D+00  0.0000000000000D+00  0.0000000000000D+00
285  2.8400000000000D+00  0.0000000000000D+00  0.0000000000000D+00
286  2.8500000000000D+00  0.0000000000000D+00  0.0000000000000D+00
287  2.8600000000000D+00  0.0000000000000D+00  0.0000000000000D+00
288  2.8700000000000D+00  0.0000000000000D+00  0.0000000000000D+00
289  2.8800000000000D+00  0.0000000000000D+00  0.0000000000000D+00
290  2.8900000000000D+00  0.0000000000000D+00  0.0000000000000D+00
291  2.9000000000000D+00  0.0000000000000D+00  0.0000000000000D+00
292  2.9100000000000D+00  0.0000000000000D+00  0.0000000000000D+00
293  2.9200000000000D+00  0.0000000000000D+00  0.0000000000000D+00
294  2.9300000000000D+00  0.0000000000000D+00  0.0000000000000D+00
295  2.9400000000000D+00  0.0000000000000D+00  0.0000000000000D+00
296  2.9500000000000D+00  0.0000000000000D+00  0.0000000000000D+00
297  2.9600000000000D+00  0.0000000000000D+00  0.0000000000000D+00
298  2.9700000000000D+00  0.0000000000000D+00  0.0000000000000D+00
299  2.9800000000000D+00  0.0000000000000D+00  0.0000000000000D+00
300  2.9900000000000D+00  0.0000000000000D+00  0.0000000000000D+00
301  3.0000000000000D+00  0.0000000000000D+00  0.0000000000000D+00
302  3.0100000000000D+00  0.0000000000000D+00  0.0000000000000D+00
303  3.0200000000000D+00  0.0000000000000D+00  0.0000000000000D+00
304  3.0300000000000D+00  0.0000000000000D+00  0.0000000000000D+00
305  3.0400000000000D+00  0.0000000000000D+00  0.0000000000000D+00
306  3.0500000000000D+00  0.0000000000000D+00  0.0000000000000D+00
307  3.0600000000000D+00  0.0000000000000D+00  0.0000000000000D+00
308  3.0700000000000D+00  0.0000000000000D+00  0.0000000000000D+00
309  3.0800000000000D+00  0.0000000000000D+00  0.0000000000000D+00
310  3.0900000000000D+00  0.0000000000000D+00  0.0000000000000D+00
311  3.1000000000000D+00  0.0000000000000D+00  0.0000000000000D+00
312  3.1100000000000D+00  0.0000000000000D+00  0.0000000000000D+00
313  3.1200000000000D+00  0.0000000000000D+00  0.0000000000000D+00
314  3.1300000000000D+00  0.0000000000000D+00  0.0000000000000D+00
315  3.1400000000000D+00  0.0000000000000D+00  0.0000000000000D+00
316  3.1500000000000D+00  0.0000000000000D+00  0.0000000000000D+00
317  3.1600000000000D+00  0.0000000000000D+00  0.0000000000000D+00
318  3.1700000000000D+00  0.0000000000000D+00  0.0000000000000D+00
319  3.1800000000000D+00  0.0000000000000D+00  0.0000000000000D+00
320  3.1900000000000D+00  0.0000000000000D+00  0.0000000000000D+00
321  3.2000000000000D+00  0.0000000000000D+00  0.0000000000000D+00
322  3.2100000000000D+00  0.0000000000000D+00  0.0000000000000D+00
323  3.2200000000000D+00  0.0000000000000D+00  0.0000000000000D+00
324  3.2300000000000D+00  0.0000000000000D+00  0.0000000000000D+00
325  3.2400000000000D+00  0.0000000000000D+00  0.0000000000000D+00
326  3.2500000000000D+00  0.0000000000000D+00  0.0000000000000D+00
327  3.2600000000000D+00  0.0000000000000D+00  0.0000000000000D+00
328  3.2700000000000D+00  0.0000000000000D+00  0.0000000000000D+00
329  3.2800000000000D+00  0.0000000000000D+00  0.0000000000000D+00
330  3.2900000000000D+00  0.0000000000000D+00  0.0000000000000D+00
331  3.3000000000000D+00  0.0000000000000D+00  0.0000000000000D+00
332  3.3100000000000D+00  0.0000000000000D+00  0.0000000000000D+00
333  3.3200000000000D+00  0.0000000000000D+00  0.0000000000000D+00
334  3.3300000000000D+00  0.0000000000000D+00  0.0000000000000D+00
335  3.3400000000000D+00  0.0000000000000D+00  0.0000000000000D+00
336  3.3500000000000D+00  0.0000000000000D+00  0.0000000000000D+00
337  3.3600000000000D+00  0.0000000000000D+00  0.0000000000000D+00
338  3.3700000000000D+00  0.0000000000000D+00  0.0000000000000D+00
339  3.3800000000000D+00  0.0000000000000D+00  0.0000000000000D+00
340  3.3900000000000D+00  0.0000000000000D+00  0.0000000000000D+00
341  3.4000000000000D+00  0.0000000000000D+00  0.0000000000000D+00
342  3.4100000000000D+00  0.0000000000000D+00  0.0000000000000D+00
343  3.4200000000000D+00  0.0000000000000D+00  0.0000000000000D+00
344  3.4300000000000D+00  0.0000000000000D+00  0.0000000000000D+00
345  3.4400000000000D+00  0.0000000000000D+00  0.0000000000000D+00
346  3.4500000000000D+00  0.0000000000000D+00  0.0000000000000D+00
347  3.4600000000000D+00  0.0000000000000D+00  0.0000000000000D+00
348  3.4700000000000D+00  0.0000000000000D+00  0.0000000000000D+00
349  3.4800000000000D+00  0.0000000000000D+00  0.0000000000000D+00
350  3.4900000000000D+00  0.0000000000000D+00  0.0000000000000D+00
351  3.5000000000000D+00  0.0000000000000D+00  0.0000000000000D+00
352  3.5100000000000D+00  0.0000000000000D+00  0.0000000000000D+00
353  3.5200000000000D+00  0.0000000000000D+00  0.0000000000000D+00
354  3.5300000000000D+00  0.0000000000000D+00  0.0000000000000D+00
355  3.5400000000000D+00  0.0000000000000D+00  0.0000000000000D+00
356  3.5500000000000D+00  0.0000000000000D+00  0.0000000000000D+00
357  3.5600000000000D+00  0.0000000000000D+00  0.0000000000000D+00
358  3.5700000000000D+00  0.0000000000000D+00  0.0000000000000D+00
359  3.5800000000000D+00  0.0000000000000D+00  0.0000000000000D+00
360  3.5900000000000D+00  0.0000000000000D+00  0.0000000000000D+00
361  3.6000000000000D+00  0.0000000000000D+00  0.0000000000000D+00
362  3.6100000000000D+00  0.0000000000000D+00  0.0000000000000D+00
363  3.6200000000000D+00  0.0000000000000D+00  0.0000000000000D+00
364  3.6300000000000D+00  0.0000000000000D+00  0.0000000000000D+00
365  3.6400000000000D+00  0.0000000000000D+00  0.0000000000000D+00
366  3.6500000000000D+00  0.0000000000000D+00  0.0000000000000D+00
367  3.6600000000000D+00  0.0000000000000D+00  0.0000000000000D+00
368  3.6700000000000D+00  0.0000000000000D+00  0.0000000000000D+00
369  3.6800000000000D+00  0.0000000000000D+00  0.0000000000000D+00
370  3.6900000000000D+00  0.0000000000000D+00  0.0000000000000D+00
371  3.7000000000000D+00  0.0000000000000D+00  0.0000000000000D+00
372  3.7100000000000D+00  0.0000000000000D+00  0.0000000000000D+00
373  3.7200000000000D+00  0.0000000000000D+00  0.0000000000000D+00
374  3.7300000000000D+00  0.0000000000000D+00  0.0000000000000D+00
375  3.7400000000000D+00  0.0000000000000D+00  0.0000000000000D+00
376  3.7500000000000D+00  0.0000000000000D+00  0.0000000000000D+00
377  3.7600000000000D+00  0.0000000000000D+00  0.0000000000000D+00
378  3.7700000000000D+00  0.0000000000000D+00  0.0000000000000D+00
379  3.7800000000000D+00  0.0000000000000D+00  0.0000000000000D+00
380  3.7900000000000D+00  0.0000000000000D+00  0.0000000000000D+00
381  3.8000000000000D+00  0.0000000000000D+00  0.0000000000000D+00
382  3.8100000000000D+00  0.0000000000000D+00  0.0000000000000D+00
383  3.8200000000000D+00  0.0000000000000D+00  0.0000000000000D+00
384  3.8300000000000D+00  0.0000000000000D+00  0.0000000000000D+00
385  3.8400000000000D+00  0.0000000000000D+00  0.0000000000000D+00
386  3.8500000000000D+00  0.0000000000000D+00  0.0000000000000D+00
387  3.8600000000000D+00  0.0000000000000D+00  0.0000000000000D+00
388  3.8700000000000D+00  0.0000000000000D+00  0.0000000000000D+00
389  3.8800000000000D+00  0.0000000000000D+00  0.0000000000000D+00
390  3.8900000000000D+00  0.0000000000000D+00  0.0000000000000D+00
391  3.9000000000000D+00  0.0000000000000D+00  0.0000000000000D+00
392  3.9100000000000D+00  0.0000000000000D+00  0.0000000000000D+00
393  3.9200000000000D+00  0.0000000000000D+00  0.0000000000000D+00
394  3.9300000000000D+00  0.0000000000000D+00  0.0000000000000D+00
395  3.9400000000000D+00  0.0000000000000D+00  0.0000000000000D+00
396  3.9500000000000D+00  0.0000000000000D+00  0.0000000000000D+00
397  3.9600000000000D+00  0.0000000000000D+00  0.0000000000000D+00
398  3.9700000000000D+00  0.0000000000000D+00  0.0000000000000D+00
399  3.9800000000000D+00  0.0000000000000D+00  0.0000000000000D+00
400  3.9900000000000D+00  0.0000000000000D+00  0.0000000000000D+00
401  4.0000000000000D+00  0.0000000000000D+00  0.0000000000000D+00
402  4.0100000000000D+00  0.0000000000000D+00  0.0000000000000D+00
403  4.0200000000000D+00  0.0000000000000D+00  0.0000000000000D+00
404  4.0300000000000D+00  0.0000000000000D+00  0.0000000000000D+00
405  4.0400000000000D+00  0.0000000000000D+00  0.0000000000000D+00
406  4.0500000000000D+00  0.0000000000000D+00  0.0000000000000D+00
407  4.0600000000000D+00  0.0000000000000D+00  0.0000000000000D+00
408  4.0700000000000D+00  0.0000000000000D+00  0.0000000000000D+00
409  4.0800000000000D+00  0.0000000000000D+00  0.0000000000000D+00
410  4.0900000000000D+00  0.0000000000000D+00  0.0000000000000D+00
411  4.1000000000000D+00  0.0000000000000D+00  0.0000000000000D+00
412  4.1100000000000D+00  0.0000000000000D+00  0.0000000000000D+00
413  4.1200000000000D+00  0.0000000000000D+00  0.0000000000000D+00
414  4.1300000000000D+00  0.0000000000000D+00  0.0000000000000D+00
415  4.1400000000000D+00  0.0000000000000D+00  0.0000000000000D+00
416  4.1500000000000D+00  0.0000000000000D+00  0.0000000000000D+00
417  4.1600000000000D+00  0.0000000000000D+00  0.0000000000000D+00
418  4.1700000000000D+00  0.0000000000000D+00  0.0000000000000D+00
419  4.1800000000000D+00  0.0000000000000D+00  0.0000000000000D+00
420  4.1900000000000D+00  0.0000000000000D+00  0.0000000000000D+00
421  4.2000000000000D+00  0.0000000000000D+00  0.0000000000000D+00
422  4.2100000000000D+00  0.0000000000000D+00  0.0000000000000D+00
423  4.2200000000000D+00  0.0000000000000D+00  0.0000000000000D+00
424  4.2300000000000D+00  0.0000000000000D+00  0.0000000000000D+00
425  4.2400000000000D+00  0.0000000000000D+00  0.0000000000000D+00
426  4.2500000000000D+00  0.0000000000000D+00  0.0000000000000D+00
427  4.2600000000000D+00  0.0000000000000D+00  0.0000000000000D+00
428  4.2700000000000D+00  0.0000000000000D+00  0.0000000000000D+00
429  4.2800000000000D+00  0.0000000000000D+00  0.0000000000000D+00
430  4.2900000000000D+00  0.0000000000000D+00  0.0000000000000D+00
431  4.3000000000000D+00  0.0000000000000D+00  0.0000000000000D+00
432  4.3100000000000D+00  0.0000000000000D+00  0.0000000000000D+00
433  4.3200000000000D+00  0.0000000000000D+00  0.0000000000000D+00
434  4.3300000000000D+00  0.0000000000000D+00  0.0000000000000D+00
435  4.3400000000000D+00  0.0000000000000D+00  0.0000000000000D+00
436  4.3500000000000D+00  0.0000000000000D+00  0.0000000000000D+00
437  4.3600000000000D+00  0.0000000000000D+00  0.0000000000000D+00
438  4.3700000000000D+00  0.0000000000000D+00  0.0000000000000D+00
439  4.3800000000000D+00  0.0000000000000D+00  0.0000000000000D+00
440  4.3900000000000D+00  0.0000000000000D+00  0.0000000000000D+00
441  4.4000000000000D+00  0.0000000000000D+00  0.0000000000000D+00
442  4.4100000000000D+00  0.0000000000000D+00  0.0000000000000D+00
443  4.4200000000000D+00  0.0000000000000D+00  0.0000000000000D+00
444  4.4300000000000D+00  0.0000000000000D+00  0.0000000000000D+00