Os    ONCVPSP  r_core=  1.61  1.67  1.61  2.27
76.0000     16.0000      160719    zatom,zion,pspd
8      11   3     4   600     0    pspcod,pspxc,lmax,lloc,mmax,r2well
5.99000000  5.00000000  0.00000000    rchrg fchrg qchrg
2     2     2     2     0    nproj
1                 extension_switch
0                         1.3174042662577D+01  1.8625552393498D+00
1  0.0000000000000D+00 -9.4576013687231D-12  1.4201964604332D-10
2  1.0000000000000D-02  5.7265108260265D-02 -2.0436319233574D-02
3  2.0000000000000D-02  1.1445701636426D-01 -4.0791380245977D-02
4  3.0000000000000D-02  1.7150255259685D-01 -6.0984205239253D-02
5  4.0000000000000D-02  2.2832860236571D-01 -8.0934374548298D-02
6  5.0000000000000D-02  2.8486213736652D-01 -1.0056229895973D-01
7  6.0000000000000D-02  3.4103024547965D-01 -1.1978948403532D-01
8  7.0000000000000D-02  3.9676016165356D-01 -1.3853878394307D-01
9  8.0000000000000D-02  4.5197930003949D-01 -1.5673464244102D-01
10  9.0000000000000D-02  5.0661528765362D-01 -1.7430331883373D-01
11  1.0000000000000D-01  5.6059599985591D-01 -1.9117309692697D-01
12  1.1000000000000D-01  6.1384959794956D-01 -2.0727447524090D-01
13  1.2000000000000D-01  6.6630456922060D-01 -2.2254033700268D-01
14  1.3000000000000D-01  7.1788976975375D-01 -2.3690609872401D-01
15  1.4000000000000D-01  7.6853447037699D-01 -2.5030983647366D-01
16  1.5000000000000D-01  8.1816840610397D-01 -2.6269238927692D-01
17  1.6000000000000D-01  8.6672182945891D-01 -2.7399743940876D-01
18  1.7000000000000D-01  9.1412556808267D-01 -2.8417156969191D-01
19  1.8000000000000D-01  9.6031108703116D-01 -2.9316429826044D-01
20  1.9000000000000D-01  1.0052105561868D+00 -3.0092809160003D-01
21  2.0000000000000D-01  1.0487569232097D+00 -3.0741835702238D-01
22  2.1000000000000D-01  1.0908839924586D+00 -3.1259341607009D-01
23  2.2000000000000D-01  1.1315265103067D+00 -3.1641446067353D-01
24  2.3000000000000D-01  1.1706202572736D+00 -3.1884549418898D-01
25  2.4000000000000D-01  1.2081021473762D+00 -3.1985325973304D-01
26  2.5000000000000D-01  1.2439103350838D+00 -3.1940715848665D-01
27  2.6000000000000D-01  1.2779843302333D+00 -3.1747916086916D-01
28  2.7000000000000D-01  1.3102651212235D+00 -3.1404371367459D-01
29  2.8000000000000D-01  1.3406953067639D+00 -3.0907764641382D-01
30  2.9000000000000D-01  1.3692192363987D+00 -3.0256008021503D-01
31  3.0000000000000D-01  1.3957831599631D+00 -2.9447234269663D-01
32  3.1000000000000D-01  1.4203353860565D+00 -2.8479789223897D-01
33  3.2000000000000D-01  1.4428264495348D+00 -2.7352225504206D-01
34  3.3000000000000D-01  1.4632092879291D+00 -2.6063297826287D-01
35  3.4000000000000D-01  1.4814394265989D+00 -2.4611960237832D-01
36  3.5000000000000D-01  1.4974751723124D+00 -2.2997365571634D-01
37  3.6000000000000D-01  1.5112778148289D+00 -2.1218867383916D-01
38  3.7000000000000D-01  1.5228118359256D+00 -1.9276024615058D-01
39  3.8000000000000D-01  1.5320451251784D+00 -1.7168609173324D-01
40  3.9000000000000D-01  1.5389492016573D+00 -1.4896616600755D-01
41  4.0000000000000D-01  1.5434994405552D+00 -1.2460279934164D-01
42  4.1000000000000D-01  1.5456753036092D+00 -9.8600868237187D-02
43  4.2000000000000D-01  1.5454605720233D+00 -7.0967999174455D-02
44  4.3000000000000D-01  1.5428435804435D+00 -4.1714804624474D-02
45  4.4000000000000D-01  1.5378174503813D+00 -1.0855150137399D-02
46  4.5000000000000D-01  1.5303803213319D+00  2.1593549203726D-02
47  4.6000000000000D-01  1.5205355776856D+00  5.5610005304080D-02
48  4.7000000000000D-01  1.5082920693929D+00  9.1168709526357D-02
49  4.8000000000000D-01  1.4936643242173D+00  1.2823956470901D-01
50  4.9000000000000D-01  1.4766727492921D+00  1.6678750094675D-01
51  5.0000000000000D-01  1.4573438195967D+00  2.0677207993571D-01
52  5.1000000000000D-01  1.4357102508855D+00  2.4814709324102D-01
53  5.2000000000000D-01  1.4118111545384D+00  2.9086016035816D-01
54  5.3000000000000D-01  1.3856921717590D+00  3.3485233290045D-01
55  5.4000000000000D-01  1.3574055845300D+00  3.8005771164572D-01
56  5.5000000000000D-01  1.3270104007428D+00  4.2640308350655D-01
57  5.6000000000000D-01  1.2945724109575D+00  4.7380758574183D-01
58  5.7000000000000D-01  1.2601642143100D+00  5.2218240489679D-01
59  5.8000000000000D-01  1.2238652111868D+00  5.7143051803519D-01
60  5.9000000000000D-01  1.1857615604111D+00  6.2144648380846D-01
61  6.0000000000000D-01  1.1459460988480D+00  6.7211629078393D-01
62  6.1000000000000D-01  1.1045182215306D+00  7.2331727022759D-01
63  6.2000000000000D-01  1.0615837206330D+00  7.7491808020276D-01
64  6.3000000000000D-01  1.0172545818791D+00  8.2677876740154D-01
65  6.4000000000000D-01  9.7164873726154D-01  8.7875091257585D-01
66  6.5000000000000D-01  9.2488977326754D-01  9.3067786477810D-01
67  6.6000000000000D-01  8.7710659415466D-01  9.8239506885980D-01
68  6.7000000000000D-01  8.2843304019237D-01  1.0337304898215D+00
69  6.8000000000000D-01  7.7900746118015D-01  1.0845051366591D+00
70  6.9000000000000D-01  7.2897224596857D-01  1.1345336873177D+00
71  7.0000000000000D-01  6.7847330914012D-01  1.1836252152617D+00
72  7.1000000000000D-01  6.2765953644804D-01  1.2315840170023D+00
73  7.2000000000000D-01  5.7668219106250D-01  1.2782105387028D+00
74  7.3000000000000D-01  5.2569428312577D-01  1.3233023987269D+00
75  7.4000000000000D-01  4.7484990556821D-01  1.3666555017153D+00
76  7.5000000000000D-01  4.2430353958048D-01  1.4080652384880D+00
77  7.6000000000000D-01  3.7420933356862D-01  1.4473277647861D+00
78  7.7000000000000D-01  3.2472035982974D-01  1.4842413506157D+00
79  7.8000000000000D-01  2.7598785357830D-01  1.5186077907303D+00
80  7.9000000000000D-01  2.2816043931196D-01  1.5502338656351D+00
81  8.0000000000000D-01  1.8138334983384D-01  1.5789328414046D+00
82  8.1000000000000D-01  1.3579764353658D-01  1.6045259956080D+00
83  8.2000000000000D-01  9.1539425797996D-02  1.6268441557437D+00
84  8.3000000000000D-01  4.8739080535167D-02  1.6457292358103D+00
85  8.4000000000000D-01  7.5205181084820D-03  1.6610357559988D+00
86  8.5000000000000D-01 -3.1999554143733D-02  1.6726323299988D+00
87  8.6000000000000D-01 -6.9712332428636D-02  1.6804031040695D+00
88  8.7000000000000D-01 -1.0551758179942D-01  1.6842491318553D+00
89  8.8000000000000D-01 -1.3932426004513D-01  1.6840896689262D+00
90  8.9000000000000D-01 -1.7105109413879D-01  1.6798633712010D+00
91  9.0000000000000D-01 -2.0062710343420D-01  1.6715293817744D+00
92  9.1000000000000D-01 -2.2799206408646D-01  1.6590682912129D+00
93  9.2000000000000D-01 -2.5309690951899D-01  1.6424829571102D+00
94  9.3000000000000D-01 -2.7590406216808D-01  1.6217991696020D+00
95  9.4000000000000D-01 -2.9638769220226D-01  1.5970661506144D+00
96  9.5000000000000D-01 -3.1453389943379D-01  1.5683568758654D+00
97  9.6000000000000D-01 -3.3034081521301D-01  1.5357682100424D+00
98  9.7000000000000D-01 -3.4381862171117D-01  1.4994208471140D+00
99  9.8000000000000D-01 -3.5498948664742D-01  1.4594590493866D+00
100  9.9000000000000D-01 -3.6388741221832D-01  1.4160501807297D+00
101  1.0000000000000D+00 -3.7055799769286D-01  1.3693840312297D+00
102  1.0100000000000D+00 -3.7505811587694D-01  1.3196719324910D+00
103  1.0200000000000D+00 -3.7745550439566D-01  1.2671456647862D+00
104  1.0300000000000D+00 -3.7782827350374D-01  1.2120561593056D+00
105  1.0400000000000D+00 -3.7626433286527D-01  1.1546720007396D+00
106  1.0500000000000D+00 -3.7286074048130D-01  1.0952777374416D+00
107  1.0600000000000D+00 -3.6772297767849D-01  1.0341720084407D+00
108  1.0700000000000D+00 -3.6096415473009D-01  9.7166549840038D-01
109  1.0800000000000D+00 -3.5270415234875D-01  9.0807873348413D-01
110  1.0900000000000D+00 -3.4306870488184D-01  8.4373973275340D-01
111  1.1000000000000D+00 -3.3218843157511D-01  7.7898153123826D-01
112  1.1100000000000D+00 -3.2019782281136D-01  7.1413959236894D-01
113  1.1200000000000D+00 -3.0723418860879D-01  6.4954912855005D-01
114  1.1300000000000D+00 -2.9343657705256D-01  5.8554234980055D-01
115  1.1400000000000D+00 -2.7894467056666D-01  5.2244566107292D-01
116  1.1500000000000D+00 -2.6389766820833D-01  4.6057682971014D-01
117  1.1600000000000D+00 -2.4843316222944D-01  4.0024214471947D-01
118  1.1700000000000D+00 -2.3268601717524D-01  3.4173358968732D-01
119  1.1800000000000D+00 -2.1678725980596D-01  2.8532605124165D-01
120  1.1900000000000D+00 -2.0086298793366D-01  2.3127458451783D-01
121  1.2000000000000D+00 -1.8503330602711D-01  1.7981175645637D-01
122  1.2100000000000D+00 -1.6941129418216D-01  1.3114508269616D-01
123  1.2200000000000D+00 -1.5410202434308D-01  8.5454606431860D-02
124  1.2300000000000D+00 -1.3920160171619D-01  4.2890513084360D-02
125  1.2400000000000D+00 -1.2479637218669D-01  3.5713733576147D-03
126  1.2500000000000D+00 -1.1096182361665D-01 -3.2419026137688D-02
127  1.2600000000000D+00 -9.7762321365882D-02 -6.5031333947193D-02
128  1.2700000000000D+00 -8.5251878208499D-02 -9.4245880982263D-02
129  1.2800000000000D+00 -7.3475245793520D-02 -1.2006726924788D-01
130  1.2900000000000D+00 -6.2468536565649D-02 -1.4252133411721D-01
131  1.3000000000000D+00 -5.2258973181998D-02 -1.6165623958297D-01
132  1.3100000000000D+00 -4.2865082062562D-02 -1.7754166645962D-01
133  1.3200000000000D+00 -3.4296857613358D-02 -1.9026827581957D-01
134  1.3300000000000D+00 -2.6556023532281D-02 -1.9994686125279D-01
135  1.3400000000000D+00 -1.9636353622292D-02 -2.0670735650849D-01
136  1.3500000000000D+00 -1.3524059856335D-02 -2.1069765695331D-01
137  1.3600000000000D+00 -8.1982429122844D-03 -2.1208227077332D-01
138  1.3700000000000D+00 -3.6314008375231D-03 -2.1104081174647D-01
139  1.3800000000000D+00  2.1000936346612D-04 -2.0776634786732D-01
140  1.3900000000000D+00  3.3649616861355D-03 -2.0246361795155D-01
141  1.4000000000000D+00  5.8772091782990D-03 -1.9534713445428D-01
142  1.4100000000000D+00  7.7945959406481D-03 -1.8663918877356D-01
143  1.4200000000000D+00  9.1683394155263D-03 -1.7656777653856D-01
144  1.4300000000000D+00  1.0052290078721D-02 -1.6536446279409D-01
145  1.4400000000000D+00  1.0502176874878D-02 -1.5326221195299D-01
146  1.4500000000000D+00  1.0574843548004D-02 -1.4049319481581D-01
147  1.4600000000000D+00  1.0327480304632D-02 -1.2728658285711D-01
148  1.4700000000000D+00  9.8168677134102D-03 -1.1386638566685D-01
149  1.4800000000000D+00  9.0986378411871D-03 -1.0044934421745D-01
150  1.4900000000000D+00  8.2265469057064D-03 -8.7242851593938D-02
151  1.5000000000000D+00  7.2517775465383D-03 -7.4442963224760D-02
152  1.5100000000000D+00  6.2222826420972D-03 -6.2232534185814D-02
153  1.5200000000000D+00  5.1821675698907D-03 -5.0779467039672D-02
154  1.5300000000000D+00  4.1711179387325D-03 -4.0235091131755D-02
155  1.5400000000000D+00  3.2238823566963D-03 -3.0732703321997D-02
156  1.5500000000000D+00  2.3698121844830D-03 -2.2386274667888D-02
157  1.5600000000000D+00  1.6330735341442D-03 -1.5295011378600D-02
158  1.5700000000000D+00  1.0284170262720D-03 -9.5070379268051D-03
159  1.5800000000000D+00  5.6683549825392D-04 -5.0736622475029D-03
160  1.5900000000000D+00  2.6843618745848D-04 -2.1465787829594D-03
161  1.6000000000000D+00  1.2023074920476D-04 -6.4569958779607D-04
162  1.6100000000000D+00  5.2367537562591D-05 -8.5583131860612D-05
163  1.6200000000000D+00  1.3028171530728D-05  1.9070563034443D-05
164  1.6300000000000D+00 -3.1801075662531D-06 -1.0845611619251D-05
165  1.6400000000000D+00 -2.3214240510098D-06 -1.2299087627525D-05
166  1.6500000000000D+00  7.9366539226516D-07  1.4071620143913D-06
167  1.6600000000000D+00  6.6090543714004D-07  1.5387066702691D-06
168  1.6700000000000D+00 -1.5633822582778D-07  4.5514926522103D-07
169  1.6800000000000D+00 -1.3967382581174D-07  4.0663400682859D-07
170  1.6900000000000D+00  0.0000000000000D+00  0.0000000000000D+00
171  1.7000000000000D+00  0.0000000000000D+00  0.0000000000000D+00
172  1.7100000000000D+00  0.0000000000000D+00  0.0000000000000D+00
173  1.7200000000000D+00  0.0000000000000D+00  0.0000000000000D+00
174  1.7300000000000D+00  0.0000000000000D+00  0.0000000000000D+00
175  1.7400000000000D+00  0.0000000000000D+00  0.0000000000000D+00
176  1.7500000000000D+00  0.0000000000000D+00  0.0000000000000D+00
177  1.7600000000000D+00  0.0000000000000D+00  0.0000000000000D+00
178  1.7700000000000D+00  0.0000000000000D+00  0.0000000000000D+00
179  1.7800000000000D+00  0.0000000000000D+00  0.0000000000000D+00
180  1.7900000000000D+00  0.0000000000000D+00  0.0000000000000D+00
181  1.8000000000000D+00  0.0000000000000D+00  0.0000000000000D+00
182  1.8100000000000D+00  0.0000000000000D+00  0.0000000000000D+00
183  1.8200000000000D+00  0.0000000000000D+00  0.0000000000000D+00
184  1.8300000000000D+00  0.0000000000000D+00  0.0000000000000D+00
185  1.8400000000000D+00  0.0000000000000D+00  0.0000000000000D+00
186  1.8500000000000D+00  0.0000000000000D+00  0.0000000000000D+00
187  1.8600000000000D+00  0.0000000000000D+00  0.0000000000000D+00
188  1.8700000000000D+00  0.0000000000000D+00  0.0000000000000D+00
189  1.8800000000000D+00  0.0000000000000D+00  0.0000000000000D+00
190  1.8900000000000D+00  0.0000000000000D+00  0.0000000000000D+00
191  1.9000000000000D+00  0.0000000000000D+00  0.0000000000000D+00
192  1.9100000000000D+00  0.0000000000000D+00  0.0000000000000D+00
193  1.9200000000000D+00  0.0000000000000D+00  0.0000000000000D+00
194  1.9300000000000D+00  0.0000000000000D+00  0.0000000000000D+00
195  1.9400000000000D+00  0.0000000000000D+00  0.0000000000000D+00
196  1.9500000000000D+00  0.0000000000000D+00  0.0000000000000D+00
197  1.9600000000000D+00  0.0000000000000D+00  0.0000000000000D+00
198  1.9700000000000D+00  0.0000000000000D+00  0.0000000000000D+00
199  1.9800000000000D+00  0.0000000000000D+00  0.0000000000000D+00
200  1.9900000000000D+00  0.0000000000000D+00  0.0000000000000D+00
201  2.0000000000000D+00  0.0000000000000D+00  0.0000000000000D+00
202  2.0100000000000D+00  0.0000000000000D+00  0.0000000000000D+00
203  2.0200000000000D+00  0.0000000000000D+00  0.0000000000000D+00
204  2.0300000000000D+00  0.0000000000000D+00  0.0000000000000D+00
205  2.0400000000000D+00  0.0000000000000D+00  0.0000000000000D+00
206  2.0500000000000D+00  0.0000000000000D+00  0.0000000000000D+00
207  2.0600000000000D+00  0.0000000000000D+00  0.0000000000000D+00
208  2.0700000000000D+00  0.0000000000000D+00  0.0000000000000D+00
209  2.0800000000000D+00  0.0000000000000D+00  0.0000000000000D+00
210  2.0900000000000D+00  0.0000000000000D+00  0.0000000000000D+00
211  2.1000000000000D+00  0.0000000000000D+00  0.0000000000000D+00
212  2.1100000000000D+00  0.0000000000000D+00  0.0000000000000D+00
213  2.1200000000000D+00  0.0000000000000D+00  0.0000000000000D+00
214  2.1300000000000D+00  0.0000000000000D+00  0.0000000000000D+00
215  2.1400000000000D+00  0.0000000000000D+00  0.0000000000000D+00
216  2.1500000000000D+00  0.0000000000000D+00  0.0000000000000D+00
217  2.1600000000000D+00  0.0000000000000D+00  0.0000000000000D+00
218  2.1700000000000D+00  0.0000000000000D+00  0.0000000000000D+00
219  2.1800000000000D+00  0.0000000000000D+00  0.0000000000000D+00
220  2.1900000000000D+00  0.0000000000000D+00  0.0000000000000D+00
221  2.2000000000000D+00  0.0000000000000D+00  0.0000000000000D+00
222  2.2100000000000D+00  0.0000000000000D+00  0.0000000000000D+00
223  2.2200000000000D+00  0.0000000000000D+00  0.0000000000000D+00
224  2.2300000000000D+00  0.0000000000000D+00  0.0000000000000D+00
225  2.2400000000000D+00  0.0000000000000D+00  0.0000000000000D+00
226  2.2500000000000D+00  0.0000000000000D+00  0.0000000000000D+00
227  2.2600000000000D+00  0.0000000000000D+00  0.0000000000000D+00
228  2.2700000000000D+00  0.0000000000000D+00  0.0000000000000D+00
229  2.2800000000000D+00  0.0000000000000D+00  0.0000000000000D+00
230  2.2900000000000D+00  0.0000000000000D+00  0.0000000000000D+00
231  2.3000000000000D+00  0.0000000000000D+00  0.0000000000000D+00
232  2.3100000000000D+00  0.0000000000000D+00  0.0000000000000D+00
233  2.3200000000000D+00  0.0000000000000D+00  0.0000000000000D+00
234  2.3300000000000D+00  0.0000000000000D+00  0.0000000000000D+00
235  2.3400000000000D+00  0.0000000000000D+00  0.0000000000000D+00
236  2.3500000000000D+00  0.0000000000000D+00  0.0000000000000D+00
237  2.3600000000000D+00  0.0000000000000D+00  0.0000000000000D+00
238  2.3700000000000D+00  0.0000000000000D+00  0.0000000000000D+00
239  2.3800000000000D+00  0.0000000000000D+00  0.0000000000000D+00
240  2.3900000000000D+00  0.0000000000000D+00  0.0000000000000D+00
241  2.4000000000000D+00  0.0000000000000D+00  0.0000000000000D+00
242  2.4100000000000D+00  0.0000000000000D+00  0.0000000000000D+00
243  2.4200000000000D+00  0.0000000000000D+00  0.0000000000000D+00
244  2.4300000000000D+00  0.0000000000000D+00  0.0000000000000D+00
245  2.4400000000000D+00  0.0000000000000D+00  0.0000000000000D+00
246  2.4500000000000D+00  0.0000000000000D+00  0.0000000000000D+00
247  2.4600000000000D+00  0.0000000000000D+00  0.0000000000000D+00
248  2.4700000000000D+00  0.0000000000000D+00  0.0000000000000D+00
249  2.4800000000000D+00  0.0000000000000D+00  0.0000000000000D+00
250  2.4900000000000D+00  0.0000000000000D+00  0.0000000000000D+00
251  2.5000000000000D+00  0.0000000000000D+00  0.0000000000000D+00
252  2.5100000000000D+00  0.0000000000000D+00  0.0000000000000D+00
253  2.5200000000000D+00  0.0000000000000D+00  0.0000000000000D+00
254  2.5300000000000D+00  0.0000000000000D+00  0.0000000000000D+00
255  2.5400000000000D+00  0.0000000000000D+00  0.0000000000000D+00
256  2.5500000000000D+00  0.0000000000000D+00  0.0000000000000D+00
257  2.5600000000000D+00  0.0000000000000D+00  0.0000000000000D+00
258  2.5700000000000D+00  0.0000000000000D+00  0.0000000000000D+00
259  2.5800000000000D+00  0.0000000000000D+00  0.0000000000000D+00
260  2.5900000000000D+00  0.0000000000000D+00  0.0000000000000D+00
261  2.6000000000000D+00  0.0000000000000D+00  0.0000000000000D+00
262  2.6100000000000D+00  0.0000000000000D+00  0.0000000000000D+00
263  2.6200000000000D+00  0.0000000000000D+00  0.0000000000000D+00
264  2.6300000000000D+00  0.0000000000000D+00  0.0000000000000D+00
265  2.6400000000000D+00  0.0000000000000D+00  0.0000000000000D+00
266  2.6500000000000D+00  0.0000000000000D+00  0.0000000000000D+00
267  2.6600000000000D+00  0.0000000000000D+00  0.0000000000000D+00
268  2.6700000000000D+00  0.0000000000000D+00  0.0000000000000D+00
269  2.6800000000000D+00  0.0000000000000D+00  0.0000000000000D+00
270  2.6900000000000D+00  0.0000000000000D+00  0.0000000000000D+00
271  2.7000000000000D+00  0.0000000000000D+00  0.0000000000000D+00
272  2.7100000000000D+00  0.0000000000000D+00  0.0000000000000D+00
273  2.7200000000000D+00  0.0000000000000D+00  0.0000000000000D+00
274  2.7300000000000D+00  0.0000000000000D+00  0.0000000000000D+00
275  2.7400000000000D+00  0.0000000000000D+00  0.0000000000000D+00
276  2.7500000000000D+00  0.0000000000000D+00  0.0000000000000D+00
277  2.7600000000000D+00  0.0000000000000D+00  0.0000000000000D+00
278  2.7700000000000D+00  0.0000000000000D+00  0.0000000000000D+00
279  2.7800000000000D+00  0.0000000000000D+00  0.0000000000000D+00
280  2.7900000000000D+00  0.0000000000000D+00  0.0000000000000D+00
281  2.8000000000000D+00  0.0000000000000D+00  0.0000000000000D+00
282  2.8100000000000D+00  0.0000000000000D+00  0.0000000000000D+00
283  2.8200000000000D+00  0.0000000000000D+00  0.0000000000000D+00
284  2.8300000000000D+00  0.0000000000000D+00  0.0000000000000D+00
285  2.8400000000000D+00  0.0000000000000D+00  0.0000000000000D+00
286  2.8500000000000D+00  0.0000000000000D+00  0.0000000000000D+00
287  2.8600000000000D+00  0.0000000000000D+00  0.0000000000000D+00
288  2.8700000000000D+00  0.0000000000000D+00  0.0000000000000D+00
289  2.8800000000000D+00  0.0000000000000D+00  0.0000000000000D+00
290  2.8900000000000D+00  0.0000000000000D+00  0.0000000000000D+00
291  2.9000000000000D+00  0.0000000000000D+00  0.0000000000000D+00
292  2.9100000000000D+00  0.0000000000000D+00  0.0000000000000D+00
293  2.9200000000000D+00  0.0000000000000D+00  0.0000000000000D+00
294  2.9300000000000D+00  0.0000000000000D+00  0.0000000000000D+00
295  2.9400000000000D+00  0.0000000000000D+00  0.0000000000000D+00
296  2.9500000000000D+00  0.0000000000000D+00  0.0000000000000D+00
297  2.9600000000000D+00  0.0000000000000D+00  0.0000000000000D+00
298  2.9700000000000D+00  0.0000000000000D+00  0.0000000000000D+00
299  2.9800000000000D+00  0.0000000000000D+00  0.0000000000000D+00
300  2.9900000000000D+00  0.0000000000000D+00  0.0000000000000D+00
301  3.0000000000000D+00  0.0000000000000D+00  0.0000000000000D+00
302  3.0100000000000D+00  0.0000000000000D+00  0.0000000000000D+00
303  3.0200000000000D+00  0.0000000000000D+00  0.0000000000000D+00
304  3.0300000000000D+00  0.0000000000000D+00  0.0000000000000D+00
305  3.0400000000000D+00  0.0000000000000D+00  0.0000000000000D+00
306  3.0500000000000D+00  0.0000000000000D+00  0.0000000000000D+00
307  3.0600000000000D+00  0.0000000000000D+00  0.0000000000000D+00
308  3.0700000000000D+00  0.0000000000000D+00  0.0000000000000D+00
309  3.0800000000000D+00  0.0000000000000D+00  0.0000000000000D+00
310  3.0900000000000D+00  0.0000000000000D+00  0.0000000000000D+00
311  3.1000000000000D+00  0.0000000000000D+00  0.0000000000000D+00
312  3.1100000000000D+00  0.0000000000000D+00  0.0000000000000D+00
313  3.1200000000000D+00  0.0000000000000D+00  0.0000000000000D+00
314  3.1300000000000D+00  0.0000000000000D+00  0.0000000000000D+00
315  3.1400000000000D+00  0.0000000000000D+00  0.0000000000000D+00
316  3.1500000000000D+00  0.0000000000000D+00  0.0000000000000D+00
317  3.1600000000000D+00  0.0000000000000D+00  0.0000000000000D+00
318  3.1700000000000D+00  0.0000000000000D+00  0.0000000000000D+00
319  3.1800000000000D+00  0.0000000000000D+00  0.0000000000000D+00
320  3.1900000000000D+00  0.0000000000000D+00  0.0000000000000D+00
321  3.2000000000000D+00  0.0000000000000D+00  0.0000000000000D+00
322  3.2100000000000D+00  0.0000000000000D+00  0.0000000000000D+00
323  3.2200000000000D+00  0.0000000000000D+00  0.0000000000000D+00
324  3.2300000000000D+00  0.0000000000000D+00  0.0000000000000D+00
325  3.2400000000000D+00  0.0000000000000D+00  0.0000000000000D+00
326  3.2500000000000D+00  0.0000000000000D+00  0.0000000000000D+00
327  3.2600000000000D+00  0.0000000000000D+00  0.0000000000000D+00
328  3.2700000000000D+00  0.0000000000000D+00  0.0000000000000D+00
329  3.2800000000000D+00  0.0000000000000D+00  0.0000000000000D+00
330  3.2900000000000D+00  0.0000000000000D+00  0.0000000000000D+00
331  3.3000000000000D+00  0.0000000000000D+00  0.0000000000000D+00
332  3.3100000000000D+00  0.0000000000000D+00  0.0000000000000D+00
333  3.3200000000000D+00  0.0000000000000D+00  0.0000000000000D+00
334  3.3300000000000D+00  0.0000000000000D+00  0.0000000000000D+00
335  3.3400000000000D+00  0.0000000000000D+00  0.0000000000000D+00
336  3.3500000000000D+00  0.0000000000000D+00  0.0000000000000D+00
337  3.3600000000000D+00  0.0000000000000D+00  0.0000000000000D+00
338  3.3700000000000D+00  0.0000000000000D+00  0.0000000000000D+00
339  3.3800000000000D+00  0.0000000000000D+00  0.0000000000000D+00
340  3.3900000000000D+00  0.0000000000000D+00  0.0000000000000D+00
341  3.4000000000000D+00  0.0000000000000D+00  0.0000000000000D+00
342  3.4100000000000D+00  0.0000000000000D+00  0.0000000000000D+00
343  3.4200000000000D+00  0.0000000000000D+00  0.0000000000000D+00
344  3.4300000000000D+00  0.0000000000000D+00  0.0000000000000D+00
345  3.4400000000000D+00  0.0000000000000D+00  0.0000000000000D+00
346  3.4500000000000D+00  0.0000000000000D+00  0.0000000000000D+00
347  3.4600000000000D+00  0.0000000000000D+00  0.0000000000000D+00
348  3.4700000000000D+00  0.0000000000000D+00  0.0000000000000D+00
349  3.4800000000000D+00  0.0000000000000D+00  0.0000000000000D+00
350  3.4900000000000D+00  0.0000000000000D+00  0.0000000000000D+00
351  3.5000000000000D+00  0.0000000000000D+00  0.0000000000000D+00
352  3.5100000000000D+00  0.0000000000000D+00  0.0000000000000D+00
353  3.5200000000000D+00  0.0000000000000D+00  0.0000000000000D+00
354  3.5300000000000D+00  0.0000000000000D+00  0.0000000000000D+00
355  3.5400000000000D+00  0.0000000000000D+00  0.0000000000000D+00
356  3.5500000000000D+00  0.0000000000000D+00  0.0000000000000D+00
357  3.5600000000000D+00  0.0000000000000D+00  0.0000000000000D+00
358  3.5700000000000D+00  0.0000000000000D+00  0.0000000000000D+00
359  3.5800000000000D+00  0.0000000000000D+00  0.0000000000000D+00
360  3.5900000000000D+00  0.0000000000000D+00  0.0000000000000D+00
361  3.6000000000000D+00  0.0000000000000D+00  0.0000000000000D+00
362  3.6100000000000D+00  0.0000000000000D+00  0.0000000000000D+00
363  3.6200000000000D+00  0.0000000000000D+00  0.0000000000000D+00
364  3.6300000000000D+00  0.0000000000000D+00  0.0000000000000D+00
365  3.6400000000000D+00  0.0000000000000D+00  0.0000000000000D+00
366  3.6500000000000D+00  0.0000000000000D+00  0.0000000000000D+00
367  3.6600000000000D+00  0.0000000000000D+00  0.0000000000000D+00
368  3.6700000000000D+00  0.0000000000000D+00  0.0000000000000D+00
369  3.6800000000000D+00  0.0000000000000D+00  0.0000000000000D+00
370  3.6900000000000D+00  0.0000000000000D+00  0.0000000000000D+00
371  3.7000000000000D+00  0.0000000000000D+00  0.0000000000000D+00
372  3.7100000000000D+00  0.0000000000000D+00  0.0000000000000D+00
373  3.7200000000000D+00  0.0000000000000D+00  0.0000000000000D+00
374  3.7300000000000D+00  0.0000000000000D+00  0.0000000000000D+00
375  3.7400000000000D+00  0.0000000000000D+00  0.0000000000000D+00
376  3.7500000000000D+00  0.0000000000000D+00  0.0000000000000D+00
377  3.7600000000000D+00  0.0000000000000D+00  0.0000000000000D+00
378  3.7700000000000D+00  0.0000000000000D+00  0.0000000000000D+00
379  3.7800000000000D+00  0.0000000000000D+00  0.0000000000000D+00
380  3.7900000000000D+00  0.0000000000000D+00  0.0000000000000D+00
381  3.8000000000000D+00  0.0000000000000D+00  0.0000000000000D+00
382  3.8100000000000D+00  0.0000000000000D+00  0.0000000000000D+00
383  3.8200000000000D+00  0.0000000000000D+00  0.0000000000000D+00
384  3.8300000000000D+00  0.0000000000000D+00  0.0000000000000D+00
385  3.8400000000000D+00  0.0000000000000D+00  0.0000000000000D+00
386  3.8500000000000D+00  0.0000000000000D+00  0.0000000000000D+00
387  3.8600000000000D+00  0.0000000000000D+00  0.0000000000000D+00
388  3.8700000000000D+00  0.0000000000000D+00  0.0000000000000D+00
389  3.8800000000000D+00  0.0000000000000D+00  0.0000000000000D+00
390  3.8900000000000D+00  0.0000000000000D+00  0.0000000000000D+00
391  3.9000000000000D+00  0.0000000000000D+00  0.0000000000000D+00
392  3.9100000000000D+00  0.0000000000000D+00  0.0000000000000D+00
393  3.9200000000000D+00  0.0000000000000D+00  0.0000000000000D+00
394  3.9300000000000D+00  0.0000000000000D+00  0.0000000000000D+00
395  3.9400000000000D+00  0.0000000000000D+00  0.0000000000000D+00
396  3.9500000000000D+00  0.0000000000000D+00  0.0000000000000D+00
397  3.9600000000000D+00  0.0000000000000D+00  0.0000000000000D+00
398  3.9700000000000D+00  0.0000000000000D+00  0.0000000000000D+00
399  3.9800000000000D+00  0.0000000000000D+00  0.0000000000000D+00
400  3.9900000000000D+00  0.0000000000000D+00  0.0000000000000D+00
401  4.0000000000000D+00  0.0000000000000D+00  0.0000000000000D+00
402  4.0100000000000D+00  0.0000000000000D+00  0.0000000000000D+00
403  4.0200000000000D+00  0.0000000000000D+00  0.0000000000000D+00
404  4.0300000000000D+00  0.0000000000000D+00  0.0000000000000D+00
405  4.0400000000000D+00  0.0000000000000D+00  0.0000000000000D+00
406  4.0500000000000D+00  0.0000000000000D+00  0.0000000000000D+00
407  4.0600000000000D+00  0.0000000000000D+00  0.0000000000000D+00
408  4.0700000000000D+00  0.0000000000000D+00  0.0000000000000D+00
409  4.0800000000000D+00  0.0000000000000D+00  0.0000000000000D+00
410  4.0900000000000D+00  0.0000000000000D+00  0.0000000000000D+00
411  4.1000000000000D+00  0.0000000000000D+00  0.0000000000000D+00
412  4.1100000000000D+00  0.0000000000000D+00  0.0000000000000D+00
413  4.1200000000000D+00  0.0000000000000D+00  0.0000000000000D+00
414  4.1300000000000D+00  0.0000000000000D+00  0.0000000000000D+00
415  4.1400000000000D+00  0.0000000000000D+00  0.0000000000000D+00
416  4.1500000000000D+00  0.0000000000000D+00  0.0000000000000D+00
417  4.1600000000000D+00  0.0000000000000D+00  0.0000000000000D+00
418  4.1700000000000D+00  0.0000000000000D+00  0.0000000000000D+00
419  4.1800000000000D+00  0.0000000000000D+00  0.0000000000000D+00
420  4.1900000000000D+00  0.0000000000000D+00  0.0000000000000D+00
421  4.2000000000000D+00  0.0000000000000D+00  0.0000000000000D+00
422  4.2100000000000D+00  0.0000000000000D+00  0.0000000000000D+00
423  4.2200000000000D+00  0.0000000000000D+00  0.0000000000000D+00
424  4.2300000000000D+00  0.0000000000000D+00  0.0000000000000D+00
425  4.2400000000000D+00  0.0000000000000D+00  0.0000000000000D+00
426  4.2500000000000D+00  0.0000000000000D+00  0.0000000000000D+00
427  4.2600000000000D+00  0.0000000000000D+00  0.0000000000000D+00
428  4.2700000000000D+00  0.0000000000000D+00  0.0000000000000D+00
429  4.2800000000000D+00  0.0000000000000D+00  0.0000000000000D+00
430  4.2900000000000D+00  0.0000000000000D+00  0.0000000000000D+00
431  4.3000000000000D+00  0.0000000000000D+00  0.0000000000000D+00
432  4.3100000000000D+00  0.0000000000000D+00  0.0000000000000D+00
433  4.3200000000000D+00  0.0000000000000D+00  0.0000000000000D+00
434  4.3300000000000D+00  0.0000000000000D+00  0.0000000000000D+00
435  4.3400000000000D+00  0.0000000000000D+00  0.0000000000000D+00
436  4.3500000000000D+00  0.0000000000000D+00  0.0000000000000D+00
437  4.3600000000000D+00  0.0000000000000D+00  0.0000000000000D+00
438  4.3700000000000D+00  0.0000000000000D+00  0.0000000000000D+00
439  4.3800000000000D+00  0.0000000000000D+00  0.0000000000000D+00
440  4.3900000000000D+00  0.0000000000000D+00  0.0000000000000D+00
441  4.4000000000000D+00  0.0000000000000D+00  0.0000000000000D+00
442  4.4100000000000D+00  0.0000000000000D+00  0.0000000000000D+00
443  4.4200000000000D+00  0.0000000000000D+00  0.0000000000000D+00