Os    ONCVPSP  r_core=  1.51  1.55  1.55  2.27
76.0000     16.0000      160720    zatom,zion,pspd
8      11   3     4   600     0    pspcod,pspxc,lmax,lloc,mmax,r2well
5.99000000  5.00000000  0.00000000    rchrg fchrg qchrg
2     2     2     2     0    nproj
1                 extension_switch
0                         7.9108945266274D+00 -1.2477379019105D+00
1  0.0000000000000D+00  3.9461572898247D-10  3.4245316027359D-09
2  1.0000000000000D-02  5.6585290474491D-02 -6.6613088402388D-02
3  2.0000000000000D-02  1.1311349830680D-01 -1.3275540041307D-01
4  3.0000000000000D-02  1.6952718073753D-01 -1.9796117289279D-01
5  4.0000000000000D-02  2.2576818202831D-01 -2.6177460356351D-01
6  5.0000000000000D-02  2.8177729500914D-01 -3.2375466821480D-01
7  6.0000000000000D-02  3.3749394398564D-01 -3.8347974450737D-01
8  7.0000000000000D-02  3.9285589565680D-01 -4.4055198198150D-01
9  8.0000000000000D-02  4.4779900429891D-01 -4.9460136130277D-01
10  9.0000000000000D-02  5.0225699698813D-01 -5.4528938997213D-01
11  1.0000000000000D-01  5.5616130406774D-01 -5.9231238663849D-01
12  1.1000000000000D-01  6.0944093942516D-01 -6.3540431171318D-01
13  1.2000000000000D-01  6.6202243443553D-01 -6.7433910812467D-01
14  1.3000000000000D-01  7.1382982866324D-01 -7.0893252268722D-01
15  1.4000000000000D-01  7.6478471959975D-01 -7.3904338560033D-01
16  1.5000000000000D-01  8.1480637286650D-01 -7.6457433295468D-01
17  1.6000000000000D-01  8.6381189343630D-01 -7.8547196469546D-01
18  1.7000000000000D-01  9.1171645753784D-01 -8.0172643818542D-01
19  1.8000000000000D-01  9.5843360401669D-01 -8.1337050521487D-01
20  1.9000000000000D-01  1.0038755830448D+00 -8.2047800791964D-01
21  2.0000000000000D-01  1.0479537592113D+00 -8.2316185648979D-01
22  2.1000000000000D-01  1.0905790651996D+00 -8.2157151867994D-01
23  2.2000000000000D-01  1.1316625014765D+00 -8.1589005786919D-01
24  2.3000000000000D-01  1.1711156766890D+00 -8.0633076267444D-01
25  2.4000000000000D-01  1.2088513828043D+00 -7.9313341680646D-01
26  2.5000000000000D-01  1.2447841984421D+00 -7.7656026289617D-01
27  2.6000000000000D-01  1.2788311133404D+00 -7.5689171833735D-01
28  2.7000000000000D-01  1.3109121664857D+00 -7.3442190472993D-01
29  2.8000000000000D-01  1.3409510901144D+00 -7.0945405521255D-01
30  2.9000000000000D-01  1.3688759515788D+00 -6.8229586580415D-01
31  3.0000000000000D-01  1.3946197849567D+00 -6.5325485780187D-01
32  3.1000000000000D-01  1.4181212042757D+00 -6.2263381828766D-01
33  3.2000000000000D-01  1.4393249903262D+00 -5.9072638487485D-01
34  3.3000000000000D-01  1.4581826432486D+00 -5.5781283898361D-01
35  3.4000000000000D-01  1.4746528933885D+00 -5.2415616919029D-01
36  3.5000000000000D-01  1.4887021633374D+00 -4.8999846258089D-01
37  3.6000000000000D-01  1.5003049745856D+00 -4.5555767759728D-01
38  3.7000000000000D-01  1.5094442928221D+00 -4.2102484664845D-01
39  3.8000000000000D-01  1.5161118066063D+00 -3.8656175083705D-01
40  3.9000000000000D-01  1.5203081349018D+00 -3.5229910259343D-01
41  4.0000000000000D-01  1.5220429597968D+00 -3.1833526490671D-01
42  4.1000000000000D-01  1.5213350816238D+00 -2.8473552827944D-01
43  4.2000000000000D-01  1.5182123946260D+00 -2.5153195861667D-01
44  4.3000000000000D-01  1.5127117822848D+00 -2.1872382108965D-01
45  4.4000000000000D-01  1.5048789324120D+00 -1.8627857670429D-01
46  4.5000000000000D-01  1.4947680731066D+00 -1.5413343996191D-01
47  4.6000000000000D-01  1.4824416316651D+00 -1.2219747774451D-01
48  4.7000000000000D-01  1.4679698195113D+00 -9.0354221496048D-02
49  4.8000000000000D-01  1.4514301471509D+00 -5.8464757024704D-02
50  4.9000000000000D-01  1.4329068740559D+00 -2.6371248920292D-02
51  5.0000000000000D-01  1.4124903992276D+00  6.0991502200383D-03
52  5.1000000000000D-01  1.3902765989607D+00  3.9130061746942D-02
53  5.2000000000000D-01  1.3663661190306D+00  7.2911375548006D-02
54  5.3000000000000D-01  1.3408636291343D+00  1.0763454338905D-01
55  5.4000000000000D-01  1.3138770479292D+00  1.4348774092191D-01
56  5.5000000000000D-01  1.2855167474217D+00  1.8065097113397D-01
57  5.6000000000000D-01  1.2558947457563D+00  2.1929118389069D-01
58  5.7000000000000D-01  1.2251238976390D+00  2.5955748707880D-01
59  5.8000000000000D-01  1.1933170916916D+00  3.0157652466760D-01
60  5.9000000000000D-01  1.1605864639790D+00  3.4544809575726D-01
61  6.0000000000000D-01  1.1270426367703D+00  3.9124108638998D-01
62  6.1000000000000D-01  1.0927939913021D+00  4.3898978255333D-01
63  6.2000000000000D-01  1.0579459828944D+00  4.8869062849283D-01
64  6.3000000000000D-01  1.0226005062465D+00  5.4029948913094D-01
65  6.4000000000000D-01  9.8685531810594D-01  5.9372946922669D-01
66  6.5000000000000D-01  9.5080352377619D-01  6.4884933489399D-01
67  6.6000000000000D-01  9.1453313310404D-01  7.0548257533247D-01
68  6.7000000000000D-01  8.7812669069179D-01  7.6340713425666D-01
69  6.8000000000000D-01  8.4166098410998D-01  8.2235583157293D-01
70  6.9000000000000D-01  8.0520683286155D-01  8.8201748649344D-01
71  7.0000000000000D-01  7.6882895978212D-01  9.4203874362842D-01
72  7.1000000000000D-01  7.3258594546806D-01  1.0020265937956D+00
73  7.2000000000000D-01  6.9653026521154D-01  1.0615515713900D+00
74  7.3000000000000D-01  6.6070840681380D-01  1.1201516003949D+00
75  7.4000000000000D-01  6.2516106655431D-01  1.1773364515702D+00
76  7.5000000000000D-01  5.8992341953001D-01  1.2325927641623D+00
77  7.6000000000000D-01  5.5502545955839D-01  1.2853895767698D+00
78  7.7000000000000D-01  5.2049240288229D-01  1.3351843039458D+00
79  7.8000000000000D-01  4.8634514902083D-01  1.3814290877172D+00
80  7.9000000000000D-01  4.5260079131290D-01  1.4235774467296D+00
81  8.0000000000000D-01  4.1927316899132D-01  1.4610911401434D+00
82  8.1000000000000D-01  3.8637345202703D-01  1.4934471588749D+00
83  8.2000000000000D-01  3.5391074949938D-01  1.5201447533505D+00
84  8.3000000000000D-01  3.2189273188900D-01  1.5407124046848D+00
85  8.4000000000000D-01  2.9032625745953D-01  1.5547146451592D+00
86  8.5000000000000D-01  2.5921799279838D-01  1.5617586340834D+00
87  8.6000000000000D-01  2.2857501762685D-01  1.5615003966069D+00
88  8.7000000000000D-01  1.9840540416732D-01  1.5536506357772D+00
89  8.8000000000000D-01  1.6871876166826D-01  1.5379800321338D+00
90  8.9000000000000D-01  1.3952673713431D-01  1.5143239503123D+00
91  9.0000000000000D-01  1.1084346388265D-01  1.4825864784845D+00
92  9.1000000000000D-01  8.2685950242894D-02  1.4427437338929D+00
93  9.2000000000000D-01  5.5074401526588D-02  1.3948463761777D+00
94  9.3000000000000D-01  2.8032469304414D-02  1.3390212795347D+00
95  9.4000000000000D-01  1.5874230330660D-03  1.2754723248784D+00
96  9.5000000000000D-01 -2.4229759844619D-02  1.2044802839739D+00
97  9.6000000000000D-01 -4.9384388051109D-02  1.1264017788778D+00
98  9.7000000000000D-01 -7.3838136407507D-02  1.0416673117216D+00
99  9.8000000000000D-01 -9.7549211857977D-02  9.5077837173765D-01
100  9.9000000000000D-01 -1.2047260462257D-01  8.5430363869558D-01
101  1.0000000000000D+00 -1.4256042228744D-01  7.5287431368373D-01
102  1.0100000000000D+00 -1.6376230339996D-01  6.4717861998729D-01
103  1.0200000000000D+00 -1.8402590594119D-01  5.3795552811565D-01
104  1.0300000000000D+00 -2.0329746488611D-01  4.2598776994010D-01
105  1.0400000000000D+00 -2.2152241200450D-01  3.1209421676176D-01
106  1.0500000000000D+00 -2.3864605004494D-01  1.9712170547634D-01
107  1.0600000000000D+00 -2.5461427251956D-01  8.1936405460535D-02
108  1.0700000000000D+00 -2.6937431954472D-01 -3.2585174302542D-02
109  1.0800000000000D+00 -2.8287555949952D-01 -1.4556543217994D-01
110  1.0900000000000D+00 -2.9507028574343D-01 -2.5613506475281D-01
111  1.1000000000000D+00 -3.0591451722504D-01 -3.6344248797948D-01
112  1.1100000000000D+00 -3.1536879154857D-01 -4.6666317309975D-01
113  1.1200000000000D+00 -3.2339893898364D-01 -5.6500878143246D-01
114  1.1300000000000D+00 -3.2997682600433D-01 -6.5773598379653D-01
115  1.1400000000000D+00 -3.3508105704335D-01 -7.4415485164704D-01
116  1.1500000000000D+00 -3.3869762363289D-01 -8.2363671238013D-01
117  1.1600000000000D+00 -3.4082049055597D-01 -8.9562136598877D-01
118  1.1700000000000D+00 -3.4145210944023D-01 -9.5962356857813D-01
119  1.1800000000000D+00 -3.4060385069345D-01 -1.0152386930627D+00
120  1.1900000000000D+00 -3.3829634602219D-01 -1.0621474908716D+00
121  1.2000000000000D+00 -3.3455973468854D-01 -1.1001198875492D+00
122  1.2100000000000D+00 -3.2943380766899D-01 -1.1290177551695D+00
123  1.2200000000000D+00 -3.2296804520501D-01 -1.1487966175992D+00
124  1.2300000000000D+00 -3.1522154479662D-01 -1.1595062599457D+00
125  1.2400000000000D+00 -3.0626283792070D-01 -1.1612902255469D+00
126  1.2500000000000D+00 -2.9616959470862D-01 -1.1543841932154D+00
127  1.2600000000000D+00 -2.8502821820756D-01 -1.1391132506815D+00
128  1.2700000000000D+00 -2.7293333084968D-01 -1.1158880898387D+00
129  1.2800000000000D+00 -2.5998715641676D-01 -1.0852001558823D+00
130  1.2900000000000D+00 -2.4629880371574D-01 -1.0476158107221D+00
131  1.3000000000000D+00 -2.3198345858400D-01 -1.0037695748866D+00
132  1.3100000000000D+00 -2.1716149156164D-01 -9.5435651912650D-01
133  1.3200000000000D+00 -2.0195749138215D-01 -9.0012390395625D-01
134  1.3300000000000D+00 -1.8649923407860D-01 -8.4186216193830D-01
135  1.3400000000000D+00 -1.7091659871276D-01 -7.8039532917420D-01
136  1.3500000000000D+00 -1.5534044246707D-01 -7.1657104899580D-01
137  1.3600000000000D+00 -1.3990144713791D-01 -6.5125026414310D-01
138  1.3700000000000D+00 -1.2472895070902D-01 -5.8529672939928D-01
139  1.3800000000000D+00 -1.0994977747067D-01 -5.1956647449824D-01
140  1.3900000000000D+00 -9.5687080422495D-02 -4.5489734982027D-01
141  1.4000000000000D+00 -8.2059209972053D-02 -3.9209878981447D-01
142  1.4100000000000D+00 -6.9178622071494D-02 -3.3194192080988D-01
143  1.4200000000000D+00 -5.7150840087490D-02 -2.7515015087476D-01
144  1.4300000000000D+00 -4.6073481647139D-02 -2.2239034999801D-01
145  1.4400000000000D+00 -3.6035364438573D-02 -1.7426475520067D-01
146  1.4500000000000D+00 -2.7115700836525D-02 -1.3130369562778D-01
147  1.4600000000000D+00 -1.9383391915818D-02 -9.3959239401999D-02
148  1.4700000000000D+00 -1.2901291044773D-02 -6.2623615473496D-02
149  1.4800000000000D+00 -7.6914770234662D-03 -3.7456056748035D-02
150  1.4900000000000D+00 -3.8048871175682D-03 -1.8725477027181D-02
151  1.5000000000000D+00 -1.3746213089655D-03 -7.0938379292221D-03
152  1.5100000000000D+00 -2.4621550076512D-04 -1.7098298582564D-03
153  1.5200000000000D+00  6.0519010055234D-05 -4.7348267749017D-05
154  1.5300000000000D+00  1.5556858528670D-05  3.4664585702536D-05
155  1.5400000000000D+00 -2.6361230895038D-05 -7.2334195186780D-05
156  1.5500000000000D+00 -2.2995499239336D-07 -6.8804215716580D-07
157  1.5600000000000D+00  4.3923935692625D-06  9.3316661050166D-06
158  1.5700000000000D+00  5.3990200787373D-08  6.2884130675795D-07
159  1.5800000000000D+00  1.9120733477141D-07  2.2270535857588D-06
160  1.5900000000000D+00  0.0000000000000D+00  0.0000000000000D+00
161  1.6000000000000D+00  0.0000000000000D+00  0.0000000000000D+00
162  1.6100000000000D+00  0.0000000000000D+00  0.0000000000000D+00
163  1.6200000000000D+00  0.0000000000000D+00  0.0000000000000D+00
164  1.6300000000000D+00  0.0000000000000D+00  0.0000000000000D+00
165  1.6400000000000D+00  0.0000000000000D+00  0.0000000000000D+00
166  1.6500000000000D+00  0.0000000000000D+00  0.0000000000000D+00
167  1.6600000000000D+00  0.0000000000000D+00  0.0000000000000D+00
168  1.6700000000000D+00  0.0000000000000D+00  0.0000000000000D+00
169  1.6800000000000D+00  0.0000000000000D+00  0.0000000000000D+00
170  1.6900000000000D+00  0.0000000000000D+00  0.0000000000000D+00
171  1.7000000000000D+00  0.0000000000000D+00  0.0000000000000D+00
172  1.7100000000000D+00  0.0000000000000D+00  0.0000000000000D+00
173  1.7200000000000D+00  0.0000000000000D+00  0.0000000000000D+00
174  1.7300000000000D+00  0.0000000000000D+00  0.0000000000000D+00
175  1.7400000000000D+00  0.0000000000000D+00  0.0000000000000D+00
176  1.7500000000000D+00  0.0000000000000D+00  0.0000000000000D+00
177  1.7600000000000D+00  0.0000000000000D+00  0.0000000000000D+00
178  1.7700000000000D+00  0.0000000000000D+00  0.0000000000000D+00
179  1.7800000000000D+00  0.0000000000000D+00  0.0000000000000D+00
180  1.7900000000000D+00  0.0000000000000D+00  0.0000000000000D+00
181  1.8000000000000D+00  0.0000000000000D+00  0.0000000000000D+00
182  1.8100000000000D+00  0.0000000000000D+00  0.0000000000000D+00
183  1.8200000000000D+00  0.0000000000000D+00  0.0000000000000D+00
184  1.8300000000000D+00  0.0000000000000D+00  0.0000000000000D+00
185  1.8400000000000D+00  0.0000000000000D+00  0.0000000000000D+00
186  1.8500000000000D+00  0.0000000000000D+00  0.0000000000000D+00
187  1.8600000000000D+00  0.0000000000000D+00  0.0000000000000D+00
188  1.8700000000000D+00  0.0000000000000D+00  0.0000000000000D+00
189  1.8800000000000D+00  0.0000000000000D+00  0.0000000000000D+00
190  1.8900000000000D+00  0.0000000000000D+00  0.0000000000000D+00
191  1.9000000000000D+00  0.0000000000000D+00  0.0000000000000D+00
192  1.9100000000000D+00  0.0000000000000D+00  0.0000000000000D+00
193  1.9200000000000D+00  0.0000000000000D+00  0.0000000000000D+00
194  1.9300000000000D+00  0.0000000000000D+00  0.0000000000000D+00
195  1.9400000000000D+00  0.0000000000000D+00  0.0000000000000D+00
196  1.9500000000000D+00  0.0000000000000D+00  0.0000000000000D+00
197  1.9600000000000D+00  0.0000000000000D+00  0.0000000000000D+00
198  1.9700000000000D+00  0.0000000000000D+00  0.0000000000000D+00
199  1.9800000000000D+00  0.0000000000000D+00  0.0000000000000D+00
200  1.9900000000000D+00  0.0000000000000D+00  0.0000000000000D+00
201  2.0000000000000D+00  0.0000000000000D+00  0.0000000000000D+00
202  2.0100000000000D+00  0.0000000000000D+00  0.0000000000000D+00
203  2.0200000000000D+00  0.0000000000000D+00  0.0000000000000D+00
204  2.0300000000000D+00  0.0000000000000D+00  0.0000000000000D+00
205  2.0400000000000D+00  0.0000000000000D+00  0.0000000000000D+00
206  2.0500000000000D+00  0.0000000000000D+00  0.0000000000000D+00
207  2.0600000000000D+00  0.0000000000000D+00  0.0000000000000D+00
208  2.0700000000000D+00  0.0000000000000D+00  0.0000000000000D+00
209  2.0800000000000D+00  0.0000000000000D+00  0.0000000000000D+00
210  2.0900000000000D+00  0.0000000000000D+00  0.0000000000000D+00
211  2.1000000000000D+00  0.0000000000000D+00  0.0000000000000D+00
212  2.1100000000000D+00  0.0000000000000D+00  0.0000000000000D+00
213  2.1200000000000D+00  0.0000000000000D+00  0.0000000000000D+00
214  2.1300000000000D+00  0.0000000000000D+00  0.0000000000000D+00
215  2.1400000000000D+00  0.0000000000000D+00  0.0000000000000D+00
216  2.1500000000000D+00  0.0000000000000D+00  0.0000000000000D+00
217  2.1600000000000D+00  0.0000000000000D+00  0.0000000000000D+00
218  2.1700000000000D+00  0.0000000000000D+00  0.0000000000000D+00
219  2.1800000000000D+00  0.0000000000000D+00  0.0000000000000D+00
220  2.1900000000000D+00  0.0000000000000D+00  0.0000000000000D+00
221  2.2000000000000D+00  0.0000000000000D+00  0.0000000000000D+00
222  2.2100000000000D+00  0.0000000000000D+00  0.0000000000000D+00
223  2.2200000000000D+00  0.0000000000000D+00  0.0000000000000D+00
224  2.2300000000000D+00  0.0000000000000D+00  0.0000000000000D+00
225  2.2400000000000D+00  0.0000000000000D+00  0.0000000000000D+00
226  2.2500000000000D+00  0.0000000000000D+00  0.0000000000000D+00
227  2.2600000000000D+00  0.0000000000000D+00  0.0000000000000D+00
228  2.2700000000000D+00  0.0000000000000D+00  0.0000000000000D+00
229  2.2800000000000D+00  0.0000000000000D+00  0.0000000000000D+00
230  2.2900000000000D+00  0.0000000000000D+00  0.0000000000000D+00
231  2.3000000000000D+00  0.0000000000000D+00  0.0000000000000D+00
232  2.3100000000000D+00  0.0000000000000D+00  0.0000000000000D+00
233  2.3200000000000D+00  0.0000000000000D+00  0.0000000000000D+00
234  2.3300000000000D+00  0.0000000000000D+00  0.0000000000000D+00
235  2.3400000000000D+00  0.0000000000000D+00  0.0000000000000D+00
236  2.3500000000000D+00  0.0000000000000D+00  0.0000000000000D+00
237  2.3600000000000D+00  0.0000000000000D+00  0.0000000000000D+00
238  2.3700000000000D+00  0.0000000000000D+00  0.0000000000000D+00
239  2.3800000000000D+00  0.0000000000000D+00  0.0000000000000D+00
240  2.3900000000000D+00  0.0000000000000D+00  0.0000000000000D+00
241  2.4000000000000D+00  0.0000000000000D+00  0.0000000000000D+00
242  2.4100000000000D+00  0.0000000000000D+00  0.0000000000000D+00
243  2.4200000000000D+00  0.0000000000000D+00  0.0000000000000D+00
244  2.4300000000000D+00  0.0000000000000D+00  0.0000000000000D+00
245  2.4400000000000D+00  0.0000000000000D+00  0.0000000000000D+00
246  2.4500000000000D+00  0.0000000000000D+00  0.0000000000000D+00
247  2.4600000000000D+00  0.0000000000000D+00  0.0000000000000D+00
248  2.4700000000000D+00  0.0000000000000D+00  0.0000000000000D+00
249  2.4800000000000D+00  0.0000000000000D+00  0.0000000000000D+00
250  2.4900000000000D+00  0.0000000000000D+00  0.0000000000000D+00
251  2.5000000000000D+00  0.0000000000000D+00  0.0000000000000D+00
252  2.5100000000000D+00  0.0000000000000D+00  0.0000000000000D+00
253  2.5200000000000D+00  0.0000000000000D+00  0.0000000000000D+00
254  2.5300000000000D+00  0.0000000000000D+00  0.0000000000000D+00
255  2.5400000000000D+00  0.0000000000000D+00  0.0000000000000D+00
256  2.5500000000000D+00  0.0000000000000D+00  0.0000000000000D+00
257  2.5600000000000D+00  0.0000000000000D+00  0.0000000000000D+00
258  2.5700000000000D+00  0.0000000000000D+00  0.0000000000000D+00
259  2.5800000000000D+00  0.0000000000000D+00  0.0000000000000D+00
260  2.5900000000000D+00  0.0000000000000D+00  0.0000000000000D+00
261  2.6000000000000D+00  0.0000000000000D+00  0.0000000000000D+00
262  2.6100000000000D+00  0.0000000000000D+00  0.0000000000000D+00
263  2.6200000000000D+00  0.0000000000000D+00  0.0000000000000D+00
264  2.6300000000000D+00  0.0000000000000D+00  0.0000000000000D+00
265  2.6400000000000D+00  0.0000000000000D+00  0.0000000000000D+00
266  2.6500000000000D+00  0.0000000000000D+00  0.0000000000000D+00
267  2.6600000000000D+00  0.0000000000000D+00  0.0000000000000D+00
268  2.6700000000000D+00  0.0000000000000D+00  0.0000000000000D+00
269  2.6800000000000D+00  0.0000000000000D+00  0.0000000000000D+00
270  2.6900000000000D+00  0.0000000000000D+00  0.0000000000000D+00
271  2.7000000000000D+00  0.0000000000000D+00  0.0000000000000D+00
272  2.7100000000000D+00  0.0000000000000D+00  0.0000000000000D+00
273  2.7200000000000D+00  0.0000000000000D+00  0.0000000000000D+00
274  2.7300000000000D+00  0.0000000000000D+00  0.0000000000000D+00
275  2.7400000000000D+00  0.0000000000000D+00  0.0000000000000D+00
276  2.7500000000000D+00  0.0000000000000D+00  0.0000000000000D+00
277  2.7600000000000D+00  0.0000000000000D+00  0.0000000000000D+00
278  2.7700000000000D+00  0.0000000000000D+00  0.0000000000000D+00
279  2.7800000000000D+00  0.0000000000000D+00  0.0000000000000D+00
280  2.7900000000000D+00  0.0000000000000D+00  0.0000000000000D+00
281  2.8000000000000D+00  0.0000000000000D+00  0.0000000000000D+00
282  2.8100000000000D+00  0.0000000000000D+00  0.0000000000000D+00
283  2.8200000000000D+00  0.0000000000000D+00  0.0000000000000D+00
284  2.8300000000000D+00  0.0000000000000D+00  0.0000000000000D+00
285  2.8400000000000D+00  0.0000000000000D+00  0.0000000000000D+00
286  2.8500000000000D+00  0.0000000000000D+00  0.0000000000000D+00
287  2.8600000000000D+00  0.0000000000000D+00  0.0000000000000D+00
288  2.8700000000000D+00  0.0000000000000D+00  0.0000000000000D+00
289  2.8800000000000D+00  0.0000000000000D+00  0.0000000000000D+00
290  2.8900000000000D+00  0.0000000000000D+00  0.0000000000000D+00
291  2.9000000000000D+00  0.0000000000000D+00  0.0000000000000D+00
292  2.9100000000000D+00  0.0000000000000D+00  0.0000000000000D+00
293  2.9200000000000D+00  0.0000000000000D+00  0.0000000000000D+00
294  2.9300000000000D+00  0.0000000000000D+00  0.0000000000000D+00
295  2.9400000000000D+00  0.0000000000000D+00  0.0000000000000D+00
296  2.9500000000000D+00  0.0000000000000D+00  0.0000000000000D+00
297  2.9600000000000D+00  0.0000000000000D+00  0.0000000000000D+00
298  2.9700000000000D+00  0.0000000000000D+00  0.0000000000000D+00
299  2.9800000000000D+00  0.0000000000000D+00  0.0000000000000D+00
300  2.9900000000000D+00  0.0000000000000D+00  0.0000000000000D+00
301  3.0000000000000D+00  0.0000000000000D+00  0.0000000000000D+00
302  3.0100000000000D+00  0.0000000000000D+00  0.0000000000000D+00
303  3.0200000000000D+00  0.0000000000000D+00  0.0000000000000D+00
304  3.0300000000000D+00  0.0000000000000D+00  0.0000000000000D+00
305  3.0400000000000D+00  0.0000000000000D+00  0.0000000000000D+00
306  3.0500000000000D+00  0.0000000000000D+00  0.0000000000000D+00
307  3.0600000000000D+00  0.0000000000000D+00  0.0000000000000D+00
308  3.0700000000000D+00  0.0000000000000D+00  0.0000000000000D+00
309  3.0800000000000D+00  0.0000000000000D+00  0.0000000000000D+00
310  3.0900000000000D+00  0.0000000000000D+00  0.0000000000000D+00
311  3.1000000000000D+00  0.0000000000000D+00  0.0000000000000D+00
312  3.1100000000000D+00  0.0000000000000D+00  0.0000000000000D+00
313  3.1200000000000D+00  0.0000000000000D+00  0.0000000000000D+00
314  3.1300000000000D+00  0.0000000000000D+00  0.0000000000000D+00
315  3.1400000000000D+00  0.0000000000000D+00  0.0000000000000D+00
316  3.1500000000000D+00  0.0000000000000D+00  0.0000000000000D+00
317  3.1600000000000D+00  0.0000000000000D+00  0.0000000000000D+00
318  3.1700000000000D+00  0.0000000000000D+00  0.0000000000000D+00
319  3.1800000000000D+00  0.0000000000000D+00  0.0000000000000D+00
320  3.1900000000000D+00  0.0000000000000D+00  0.0000000000000D+00
321  3.2000000000000D+00  0.0000000000000D+00  0.0000000000000D+00
322  3.2100000000000D+00  0.0000000000000D+00  0.0000000000000D+00
323  3.2200000000000D+00  0.0000000000000D+00  0.0000000000000D+00
324  3.2300000000000D+00  0.0000000000000D+00  0.0000000000000D+00
325  3.2400000000000D+00  0.0000000000000D+00  0.0000000000000D+00
326  3.2500000000000D+00  0.0000000000000D+00  0.0000000000000D+00
327  3.2600000000000D+00  0.0000000000000D+00  0.0000000000000D+00
328  3.2700000000000D+00  0.0000000000000D+00  0.0000000000000D+00
329  3.2800000000000D+00  0.0000000000000D+00  0.0000000000000D+00
330  3.2900000000000D+00  0.0000000000000D+00  0.0000000000000D+00
331  3.3000000000000D+00  0.0000000000000D+00  0.0000000000000D+00
332  3.3100000000000D+00  0.0000000000000D+00  0.0000000000000D+00
333  3.3200000000000D+00  0.0000000000000D+00  0.0000000000000D+00
334  3.3300000000000D+00  0.0000000000000D+00  0.0000000000000D+00
335  3.3400000000000D+00  0.0000000000000D+00  0.0000000000000D+00
336  3.3500000000000D+00  0.0000000000000D+00  0.0000000000000D+00
337  3.3600000000000D+00  0.0000000000000D+00  0.0000000000000D+00
338  3.3700000000000D+00  0.0000000000000D+00  0.0000000000000D+00
339  3.3800000000000D+00  0.0000000000000D+00  0.0000000000000D+00
340  3.3900000000000D+00  0.0000000000000D+00  0.0000000000000D+00
341  3.4000000000000D+00  0.0000000000000D+00  0.0000000000000D+00
342  3.4100000000000D+00  0.0000000000000D+00  0.0000000000000D+00
343  3.4200000000000D+00  0.0000000000000D+00  0.0000000000000D+00
344  3.4300000000000D+00  0.0000000000000D+00  0.0000000000000D+00
345  3.4400000000000D+00  0.0000000000000D+00  0.0000000000000D+00
346  3.4500000000000D+00  0.0000000000000D+00  0.0000000000000D+00
347  3.4600000000000D+00  0.0000000000000D+00  0.0000000000000D+00
348  3.4700000000000D+00  0.0000000000000D+00  0.0000000000000D+00
349  3.4800000000000D+00  0.0000000000000D+00  0.0000000000000D+00
350  3.4900000000000D+00  0.0000000000000D+00  0.0000000000000D+00
351  3.5000000000000D+00  0.0000000000000D+00  0.0000000000000D+00
352  3.5100000000000D+00  0.0000000000000D+00  0.0000000000000D+00
353  3.5200000000000D+00  0.0000000000000D+00  0.0000000000000D+00
354  3.5300000000000D+00  0.0000000000000D+00  0.0000000000000D+00
355  3.5400000000000D+00  0.0000000000000D+00  0.0000000000000D+00
356  3.5500000000000D+00  0.0000000000000D+00  0.0000000000000D+00
357  3.5600000000000D+00  0.0000000000000D+00  0.0000000000000D+00
358  3.5700000000000D+00  0.0000000000000D+00  0.0000000000000D+00
359  3.5800000000000D+00  0.0000000000000D+00  0.0000000000000D+00
360  3.5900000000000D+00  0.0000000000000D+00  0.0000000000000D+00
361  3.6000000000000D+00  0.0000000000000D+00  0.0000000000000D+00
362  3.6100000000000D+00  0.0000000000000D+00  0.0000000000000D+00
363  3.6200000000000D+00  0.0000000000000D+00  0.0000000000000D+00
364  3.6300000000000D+00  0.0000000000000D+00  0.0000000000000D+00
365  3.6400000000000D+00  0.0000000000000D+00  0.0000000000000D+00
366  3.6500000000000D+00  0.0000000000000D+00  0.0000000000000D+00
367  3.6600000000000D+00  0.0000000000000D+00  0.0000000000000D+00
368  3.6700000000000D+00  0.0000000000000D+00  0.0000000000000D+00
369  3.6800000000000D+00  0.0000000000000D+00  0.0000000000000D+00
370  3.6900000000000D+00  0.0000000000000D+00  0.0000000000000D+00
371  3.7000000000000D+00  0.0000000000000D+00  0.0000000000000D+00
372  3.7100000000000D+00  0.0000000000000D+00  0.0000000000000D+00
373  3.7200000000000D+00  0.0000000000000D+00  0.0000000000000D+00
374  3.7300000000000D+00  0.0000000000000D+00  0.0000000000000D+00
375  3.7400000000000D+00  0.0000000000000D+00  0.0000000000000D+00
376  3.7500000000000D+00  0.0000000000000D+00  0.0000000000000D+00
377  3.7600000000000D+00  0.0000000000000D+00  0.0000000000000D+00
378  3.7700000000000D+00  0.0000000000000D+00  0.0000000000000D+00
379  3.7800000000000D+00  0.0000000000000D+00  0.0000000000000D+00
380  3.7900000000000D+00  0.0000000000000D+00  0.0000000000000D+00
381  3.8000000000000D+00  0.0000000000000D+00  0.0000000000000D+00
382  3.8100000000000D+00  0.0000000000000D+00  0.0000000000000D+00
383  3.8200000000000D+00  0.0000000000000D+00  0.0000000000000D+00
384  3.8300000000000D+00  0.0000000000000D+00  0.0000000000000D+00
385  3.8400000000000D+00  0.0000000000000D+00  0.0000000000000D+00
386  3.8500000000000D+00  0.0000000000000D+00  0.0000000000000D+00
387  3.8600000000000D+00  0.0000000000000D+00  0.0000000000000D+00
388  3.8700000000000D+00  0.0000000000000D+00  0.0000000000000D+00
389  3.8800000000000D+00  0.0000000000000D+00  0.0000000000000D+00
390  3.8900000000000D+00  0.0000000000000D+00  0.0000000000000D+00
391  3.9000000000000D+00  0.0000000000000D+00  0.0000000000000D+00
392  3.9100000000000D+00  0.0000000000000D+00  0.0000000000000D+00
393  3.9200000000000D+00  0.0000000000000D+00  0.0000000000000D+00
394  3.9300000000000D+00  0.0000000000000D+00  0.0000000000000D+00
395  3.9400000000000D+00  0.0000000000000D+00  0.0000000000000D+00
396  3.9500000000000D+00  0.0000000000000D+00  0.0000000000000D+00
397  3.9600000000000D+00  0.0000000000000D+00  0.0000000000000D+00
398  3.9700000000000D+00  0.0000000000000D+00  0.0000000000000D+00
399  3.9800000000000D+00  0.0000000000000D+00  0.0000000000000D+00
400  3.9900000000000D+00  0.0000000000000D+00  0.0000000000000D+00
401  4.0000000000000D+00  0.0000000000000D+00  0.0000000000000D+00
402  4.0100000000000D+00  0.0000000000000D+00  0.0000000000000D+00
403  4.0200000000000D+00  0.0000000000000D+00  0.0000000000000D+00
404  4.0300000000000D+00  0.0000000000000D+00  0.0000000000000D+00
405  4.0400000000000D+00  0.0000000000000D+00  0.0000000000000D+00
406  4.0500000000000D+00  0.0000000000000D+00  0.0000000000000D+00
407  4.0600000000000D+00  0.0000000000000D+00  0.0000000000000D+00
408  4.0700000000000D+00  0.0000000000000D+00  0.0000000000000D+00
409  4.0800000000000D+00  0.0000000000000D+00  0.0000000000000D+00
410  4.0900000000000D+00  0.0000000000000D+00  0.0000000000000D+00
411  4.1000000000000D+00  0.0000000000000D+00  0.0000000000000D+00
412  4.1100000000000D+00  0.0000000000000D+00  0.0000000000000D+00
413  4.1200000000000D+00  0.0000000000000D+00  0.0000000000000D+00
414  4.1300000000000D+00  0.0000000000000D+00  0.0000000000000D+00
415  4.1400000000000D+00  0.0000000000000D+00  0.0000000000000D+00
416  4.1500000000000D+00  0.0000000000000D+00  0.0000000000000D+00
417  4.1600000000000D+00  0.0000000000000D+00  0.0000000000000D+00
418  4.1700000000000D+00  0.0000000000000D+00  0.0000000000000D+00
419  4.1800000000000D+00  0.0000000000000D+00  0.0000000000000D+00
420  4.1900000000000D+00  0.0000000000000D+00  0.0000000000000D+00
421  4.2000000000000D+00  0.0000000000000D+00  0.0000000000000D+00
422  4.2100000000000D+00  0.0000000000000D+00  0.0000000000000D+00
423  4.2200000000000D+00  0.0000000000000D+00  0.0000000000000D+00
424  4.2300000000000D+00  0.0000000000000D+00  0.0000000000000D+00
425  4.2400000000000D+00  0.0000000000000D+00  0.0000000000000D+00
426  4.2500000000000D+00  0.0000000000000D+00  0.0000000000000D+00
427  4.2600000000000D+00  0.0000000000000D+00  0.0000000000000D+00
428  4.2700000000000D+00  0.0000000000000D+00  0.0000000000000D+00
429  4.2800000000000D+00  0.0000000000000D+00  0.0000000000000D+00
430  4.2900000000000D+00  0.0000000000000D+00  0.0000000000000D+00
431  4.3000000000000D+00  0.0000000000000D+00  0.0000000000000D+00
432  4.3100000000000D+00  0.0000000000000D+00  0.0000000000000D+00
433  4.3200000000000D+00  0.0000000000000D+00  0.0000000000000D+00
434  4.3300000000000D+00  0.0000000000000D+00  0.0000000000000D+00
435  4.3400000000000D+00  0.0000000000000D+00  0.0000000000000D+00
436  4.3500000000000D+00  0.0000000000000D+00  0.0000000000000D+00
437  4.3600000000000D+00  0.0000000000000D+00  0.0000000000000D+00
438  4.3700000000000D+00  0.0000000000000D+00  0.0000000000000D+00
439  4.3800000000000D+00  0.0000000000000D+00  0.0000000000000D+00
440  4.3900000000000D+00  0.0000000000000D+00  0.0000000000000D+00
441  4.4000000000000D+00  0.0000000000000D+00  0.0000000000000D+00
442  4.4100000000000D+00  0.0000000000000D+00  0.0000000000000D+00
443  4.4200000000000D+00  0.0000000000000D+00  0.0000000000000D+00