Sn    ONCVPSP-3.2.3  r_core=   2.27326   2.62311   1.85601
50.0000     14.0000      170222    zatom,zion,pspd
8      11   2     4   600     0    pspcod,pspxc,lmax,lloc,mmax,r2well
5.99000000  6.50000000  0.00000000    rchrg fchrg qchrg
2     4     2     0    nproj
3     1           extension_switch
4     4     0    nprojso
0                         6.8077815847583D-01  5.4602922614646D+00
1  0.0000000000000D+00 -5.2617836303337D-12  5.6679660964676D-13
2  1.0000000000000D-02  3.8447613611147D-04  1.5875249201500D-02
3  2.0000000000000D-02  7.3577734787336D-04  3.1756503981964D-02
4  3.0000000000000D-02  1.0208736019997D-03  4.7649739684204D-02
5  4.0000000000000D-02  1.2070241758234D-03  6.3560871247276D-02
6  5.0000000000000D-02  1.2619211351261D-03  7.9495723175843D-02
7  6.0000000000000D-02  1.1538314026689D-03  9.5459999714637D-02
8  7.0000000000000D-02  8.5173695372049D-04  1.1145925529574D-01
9  8.0000000000000D-02  3.2547268014059D-04  1.2749886532588D-01
10  9.0000000000000D-02 -4.5413852900921D-04  1.4358399738020D-01
11  1.0000000000000D-01 -1.5151539345102D-03  1.5971958286823D-01
12  1.1000000000000D-01 -2.8843827569689D-03  1.7591028923675D-01
13  1.2000000000000D-01 -4.5872620746713D-03  1.9216049277328D-01
14  1.3000000000000D-01 -6.6477372228664D-03  2.0847425207257D-01
15  1.4000000000000D-01 -9.0881470953875D-03  2.2485528222737D-01
16  1.5000000000000D-01 -1.1929114735625D-02  2.4130692980318D-01
17  1.6000000000000D-01 -1.5189443589091D-02  2.5783214865509D-01
18  1.7000000000000D-01 -1.8886019773625D-02  2.7443347664343D-01
19  1.8000000000000D-01 -2.3033720706262D-02  2.9111301330292D-01
20  1.9000000000000D-01 -2.7645330407604D-02  3.0787239851824D-01
21  2.0000000000000D-01 -3.2731461785547D-02  3.2471279225720D-01
22  2.1000000000000D-01 -3.8300486179885D-02  3.4163485541027D-01
23  2.2000000000000D-01 -4.4358470428655D-02  3.5863873178362D-01
24  2.3000000000000D-01 -5.0909121695030D-02  3.7572403129011D-01
25  2.4000000000000D-01 -5.7953740271039D-02  3.9288981438074D-01
26  2.5000000000000D-01 -6.5491180551084D-02  4.1013457775683D-01
27  2.6000000000000D-01 -7.3517820343889D-02  4.2745624140032D-01
28  2.7000000000000D-01 -8.2027538667346D-02  4.4485213695778D-01
29  2.8000000000000D-01 -9.1011702144767D-02  4.6231899751066D-01
30  2.9000000000000D-01 -1.0045916009584D-01  4.7985294876218D-01
31  3.0000000000000D-01 -1.1035624838913D-01  4.9744950166838D-01
32  3.1000000000000D-01 -1.2068680209620D-01  5.1510354653846D-01
33  3.2000000000000D-01 -1.3143217696096D-01  5.3280934862665D-01
34  3.3000000000000D-01 -1.4257127967013D-01  5.5056054523550D-01
35  3.4000000000000D-01 -1.5408060688391D-01  5.6835014434729D-01
36  3.5000000000000D-01 -1.6593429295819D-01  5.8617052479812D-01
37  3.6000000000000D-01 -1.7810416626242D-01  6.0401343800597D-01
38  3.7000000000000D-01 -1.9055981396982D-01  6.2187001126163D-01
39  3.8000000000000D-01 -2.0326865516945D-01  6.3973075258835D-01
40  3.9000000000000D-01 -2.1619602212263D-01  6.5758555717366D-01
41  4.0000000000000D-01 -2.2930524945964D-01  6.7542371537352D-01
42  4.1000000000000D-01 -2.4255777108626D-01  6.9323392228671D-01
43  4.2000000000000D-01 -2.5591322454389D-01  7.1100428889419D-01
44  4.3000000000000D-01 -2.6932956254189D-01  7.2872235475561D-01
45  4.4000000000000D-01 -2.8276317135583D-01  7.4637510225220D-01
46  4.5000000000000D-01 -2.9616899576197D-01  7.6394897236279D-01
47  4.6000000000000D-01 -3.0950067015457D-01  7.8142988195644D-01
48  4.7000000000000D-01 -3.2271065547078D-01  7.9880324258297D-01
49  4.8000000000000D-01 -3.3575038152669D-01  8.1605398073954D-01
50  4.9000000000000D-01 -3.4857039434736D-01  8.3316655958871D-01
51  5.0000000000000D-01 -3.6112050805514D-01  8.5012500210092D-01
52  5.1000000000000D-01 -3.7334996086217D-01  8.6691291559134D-01
53  5.2000000000000D-01 -3.8520757469654D-01  8.8351351761832D-01
54  5.3000000000000D-01 -3.9664191797598D-01  8.9990966320824D-01
55  5.4000000000000D-01 -4.0760147102921D-01  9.1608387336844D-01
56  5.5000000000000D-01 -4.1803479365222D-01  9.3201836484758D-01
57  5.6000000000000D-01 -4.2789069427616D-01  9.4769508109990D-01
58  5.7000000000000D-01 -4.3711840021347D-01  9.6309572440720D-01
59  5.8000000000000D-01 -4.4566772844145D-01  9.7820178910978D-01
60  5.9000000000000D-01 -4.5348925637624D-01  9.9299459589484D-01
61  6.0000000000000D-01 -4.6053449208521D-01  1.0074553270884D+00
62  6.1000000000000D-01 -4.6675604338365D-01  1.0215650628936D+00
63  6.2000000000000D-01 -4.7210778526002D-01  1.0353048185173D+00
64  6.3000000000000D-01 -4.7654502507509D-01  1.0486555821211D+00
65  6.4000000000000D-01 -4.8002466498305D-01  1.0615983535347D+00
66  6.5000000000000D-01 -4.8250536102633D-01  1.0741141836632D+00
67  6.6000000000000D-01 -4.8394767836324D-01  1.0861842145196D+00
68  6.7000000000000D-01 -4.8431424209434D-01  1.0977897198102D+00
69  6.8000000000000D-01 -4.8356988316428D-01  1.1089121460002D+00
70  6.9000000000000D-01 -4.8168177882718D-01  1.1195331537806D+00
71  7.0000000000000D-01 -4.7861958717697D-01  1.1296346598599D+00
72  7.1000000000000D-01 -4.7435557525955D-01  1.1391988789986D+00
73  7.2000000000000D-01 -4.6886474030071D-01  1.1482083662031D+00
74  7.3000000000000D-01 -4.6212492360214D-01  1.1566460589941D+00
75  7.4000000000000D-01 -4.5411691667854D-01  1.1644953196632D+00
76  7.5000000000000D-01 -4.4482455923058D-01  1.1717399774260D+00
77  7.6000000000000D-01 -4.3423482857210D-01  1.1783643703843D+00
78  7.7000000000000D-01 -4.2233792015475D-01  1.1843533872020D+00
79  7.8000000000000D-01 -4.0912731886000D-01  1.1896925084017D+00
80  7.9000000000000D-01 -3.9459986075584D-01  1.1943678471865D+00
81  8.0000000000000D-01 -3.7875578504461D-01  1.1983661896902D+00
82  8.1000000000000D-01 -3.6159877595884D-01  1.2016750345570D+00
83  8.2000000000000D-01 -3.4313599439263D-01  1.2042826317534D+00
84  8.3000000000000D-01 -3.2337809908893D-01  1.2061780205111D+00
85  8.4000000000000D-01 -3.0233925723586D-01  1.2073510663014D+00
86  8.5000000000000D-01 -2.8003714435900D-01  1.2077924967405D+00
87  8.6000000000000D-01 -2.5649293343110D-01  1.2074939363240D+00
88  8.7000000000000D-01 -2.3173127315615D-01  1.2064479398905D+00
89  8.8000000000000D-01 -2.0578025541946D-01  1.2046480247148D+00
90  8.9000000000000D-01 -1.7867137193171D-01  1.2020887011276D+00
91  9.0000000000000D-01 -1.5043946013062D-01  1.1987655015663D+00
92  9.1000000000000D-01 -1.2112263843992D-01  1.1946750079558D+00
93  9.2000000000000D-01 -9.0762231021313D-02  1.1898148773246D+00
94  9.3000000000000D-01 -5.9402682190398D-02  1.1841838655594D+00
95  9.4000000000000D-01 -2.7091460703372D-02  1.1777818492069D+00
96  9.5000000000000D-01  6.1210458441650D-03  1.1706098452294D+00
97  9.6000000000000D-01  4.0181646230448D-02  1.1626700286284D+00
98  9.7000000000000D-01  7.5034470124021D-02  1.1539657478491D+00
99  9.8000000000000D-01  1.1062110156098D-01  1.1445015378838D+00
100  9.9000000000000D-01  1.4688072100968D-01  1.1342831309962D+00
101  1.0000000000000D+00  1.8375025561855D-01  1.1233174649905D+00
102  1.0100000000000D+00  2.2116453721346D-01  1.1116126889560D+00
103  1.0200000000000D+00  2.5905646758285D-01  1.0991781664205D+00
104  1.0300000000000D+00  2.9735719056199D-01  1.0860244758512D+00
105  1.0400000000000D+00  3.3599627040386D-01  1.0721634084476D+00
106  1.0500000000000D+00  3.7490187589874D-01  1.0576079631762D+00
107  1.0600000000000D+00  4.1400096968456D-01  1.0423723390019D+00
108  1.0700000000000D+00  4.5321950216937D-01  1.0264719242784D+00
109  1.0800000000000D+00  4.9248260946921D-01  1.0099232832667D+00
110  1.0900000000000D+00  5.3171481474990D-01  9.9274413975552D-01
111  1.1000000000000D+00  5.7084023234558D-01  9.7495335776639D-01
112  1.1100000000000D+00  6.0978277401599D-01  9.5657091933425D-01
113  1.1200000000000D+00  6.4846635669473D-01  9.3761789936003D-01
114  1.1300000000000D+00  6.8681511107348D-01  9.1811643754098D-01
115  1.1400000000000D+00  7.2475359036131D-01  8.9808970739216D-01
116  1.1500000000000D+00  7.6220697855553D-01  8.7756188238135D-01
117  1.1600000000000D+00  7.9910129756024D-01  8.5655809920824D-01
118  1.1700000000000D+00  8.3536361249014D-01  8.3510441826672D-01
119  1.1800000000000D+00  8.7092223450013D-01  8.1322778133840D-01
120  1.1900000000000D+00  9.0570692048844D-01  7.9095596657489D-01
121  1.2000000000000D+00  9.3964906903130D-01  7.6831754083629D-01
122  1.2100000000000D+00  9.7268191191203D-01  7.4534180945864D-01
123  1.2200000000000D+00  1.0047407006259D+00  7.2205876353705D-01
124  1.2300000000000D+00  1.0357628872572D+00  6.9849902481883D-01
125  1.2400000000000D+00  1.0656882991374D+00  6.7469378830779D-01
126  1.2500000000000D+00  1.0944593067130D+00  6.5067476269215D-01
127  1.2600000000000D+00  1.1220209840819D+00  6.2647410871878D-01
128  1.2700000000000D+00  1.1483212616680D+00  6.0212437564223D-01
129  1.2800000000000D+00  1.1733110705295D+00  5.7765843588580D-01
130  1.2900000000000D+00  1.1969444778372D+00  5.5310941806509D-01
131  1.3000000000000D+00  1.2191788130710D+00  5.2851063852672D-01
132  1.3100000000000D+00  1.2399747845100D+00  5.0389553156423D-01
133  1.3200000000000D+00  1.2592965856495D+00  4.7929757848628D-01
134  1.3300000000000D+00  1.2771119911754D+00  4.5475023571064D-01
135  1.3400000000000D+00  1.2933924421720D+00  4.3028686206984D-01
136  1.3500000000000D+00  1.3081131203075D+00  4.0594064552362D-01
137  1.3600000000000D+00  1.3212530107007D+00  3.8174452946877D-01
138  1.3700000000000D+00  1.3327949532866D+00  3.5773113885446D-01
139  1.3800000000000D+00  1.3427256825074D+00  3.3393270631015D-01
140  1.3900000000000D+00  1.3510358551411D+00  3.1038099849414D-01
141  1.4000000000000D+00  1.3577200662273D+00  2.8710724288491D-01
142  1.4100000000000D+00  1.3627768529716D+00  2.6414205522904D-01
143  1.4200000000000D+00  1.3662086866103D+00  2.4151536787071D-01
144  1.4300000000000D+00  1.3680219522831D+00  2.1925635918527D-01
145  1.4400000000000D+00  1.3682269168722D+00  1.9739338434180D-01
146  1.4500000000000D+00  1.3668376849906D+00  1.7595390762032D-01
147  1.4600000000000D+00  1.3638721431513D+00  1.5496443650837D-01
148  1.4700000000000D+00  1.3593518923111D+00  1.3445045780316D-01
149  1.4800000000000D+00  1.3533021689878D+00  1.1443637593654D-01
150  1.4900000000000D+00  1.3457517551020D+00  9.4945453753456D-02
151  1.5000000000000D+00  1.3367328769103D+00  7.5999755944101D-02
152  1.5100000000000D+00  1.3262810931718D+00  5.7620095364119D-02
153  1.5200000000000D+00  1.3144351729998D+00  3.9825982428729D-02
154  1.5300000000000D+00  1.3012369636300D+00  2.2635577801383D-02
155  1.5400000000000D+00  1.2867312485430D+00  6.0656485635744D-03
156  1.5500000000000D+00  1.2709655963081D+00 -9.8684719468976D-03
157  1.5600000000000D+00  1.2539902005536D+00 -2.5152920431629D-02
158  1.5700000000000D+00  1.2358577115509D+00 -3.9775335921350D-02
159  1.5800000000000D+00  1.2166230597953D+00 -5.3724887844232D-02
160  1.5900000000000D+00  1.1963432721606D+00 -6.6992299791381D-02
161  1.6000000000000D+00  1.1750772810090D+00 -7.9569868744593D-02
162  1.6100000000000D+00  1.1528857268818D+00 -9.1451479742249D-02
163  1.6200000000000D+00  1.1298307551820D+00 -1.0263261574605D-01
164  1.6300000000000D+00  1.1059758074749D+00 -1.1311036272204D-01
165  1.6400000000000D+00  1.0813854078716D+00 -1.2288340972173D-01
166  1.6500000000000D+00  1.0561249450968D+00 -1.3195204399880D-01
167  1.6600000000000D+00  1.0302604507529D+00 -1.4031814098138D-01
168  1.6700000000000D+00  1.0038583743559D+00 -1.4798514915748D-01
169  1.6800000000000D+00  9.7698535568699D-01 -1.5495806972699D-01
170  1.6900000000000D+00  9.4970799500663D-01 -1.6124343110643D-01
171  1.7000000000000D+00  9.2209262169584D-01 -1.6684925816733D-01
172  1.7100000000000D+00  8.9420506183428D-01 -1.7178503633337D-01
173  1.7200000000000D+00  8.6611040530030D-01 -1.7606167043442D-01
174  1.7300000000000D+00  8.3787277284597D-01 -1.7969143849537D-01
175  1.7400000000000D+00  8.0955508376155D-01 -1.8268794036029D-01
176  1.7500000000000D+00  7.8121882449889D-01 -1.8506604139978D-01
177  1.7600000000000D+00  7.5292381891796D-01 -1.8684181118676D-01
178  1.7700000000000D+00  7.2472800040329D-01 -1.8803245747620D-01
179  1.7800000000000D+00  6.9668718659702D-01 -1.8865625534054D-01
180  1.7900000000000D+00  6.6885485682755D-01 -1.8873247189853D-01
181  1.8000000000000D+00  6.4128192871073D-01 -1.8828128587816D-01
182  1.8100000000000D+00  6.1401656271164D-01 -1.8732370631003D-01
183  1.8200000000000D+00  5.8710388856901D-01 -1.8588147572594D-01
184  1.8300000000000D+00  5.6058594345854D-01 -1.8397699916251D-01
185  1.8400000000000D+00  5.3450137662080D-01 -1.8163323312787D-01
186  1.8500000000000D+00  5.0888497606617D-01 -1.7887355263510D-01
187  1.8600000000000D+00  4.8376785362667D-01 -1.7572169819137D-01
188  1.8700000000000D+00  4.5917791748637D-01 -1.7220175252039D-01
189  1.8800000000000D+00  4.3514022975506D-01 -1.6833811149698D-01
190  1.8900000000000D+00  4.1167749097666D-01 -1.6415548989378D-01
191  1.9000000000000D+00  3.8881069556321D-01 -1.5967894273899D-01
192  1.9100000000000D+00  3.6655883409657D-01 -1.5493376593948D-01
193  1.9200000000000D+00  3.4493877687833D-01 -1.4994542652150D-01
194  1.9300000000000D+00  3.2396545018119D-01 -1.4473951859162D-01
195  1.9400000000000D+00  3.0365182737472D-01 -1.3934169892880D-01
196  1.9500000000000D+00  2.8400896652319D-01 -1.3377762671538D-01
197  1.9600000000000D+00  2.6504606272332D-01 -1.2807290404699D-01
198  1.9700000000000D+00  2.4677049644691D-01 -1.2225301529639D-01
199  1.9800000000000D+00  2.2918788990503D-01 -1.1634326691567D-01
200  1.9900000000000D+00  2.1230216782512D-01 -1.1036872744408D-01
201  2.0000000000000D+00  1.9611562287294D-01 -1.0435416796351D-01
202  2.0100000000000D+00  1.8062898465633D-01 -9.8324003026534D-02
203  2.0200000000000D+00  1.6584149210406D-01 -9.2302232265522D-02
204  2.0300000000000D+00  1.5175096863915D-01 -8.6312382778181D-02
205  2.0400000000000D+00  1.3835389960762D-01 -8.0377452395635D-02
206  2.0500000000000D+00  1.2564551140049D-01 -7.4519854023862D-02
207  2.0600000000000D+00  1.1361985197015D-01 -6.8761361078803D-02
208  2.0700000000000D+00  1.0226987186460D-01 -6.3123054243156D-02
209  2.0800000000000D+00  9.1587505650495D-02 -5.7625269578167D-02
210  2.0900000000000D+00  8.1563753097412D-02 -5.2287548132554D-02
211  2.1000000000000D+00  7.2188759364562D-02 -4.7128587208765D-02
212  2.1100000000000D+00  6.3451894507115D-02 -4.2166193273911D-02
213  2.1200000000000D+00  5.5341830768453D-02 -3.7417236791766D-02
214  2.1300000000000D+00  4.7846618227062D-02 -3.2897608928432D-02
215  2.1400000000000D+00  4.0953757985863D-02 -2.8622180297031D-02
216  2.1500000000000D+00  3.4650272092460D-02 -2.4604761909941D-02
217  2.1600000000000D+00  2.8922771051132D-02 -2.0858068229705D-02
218  2.1700000000000D+00  2.3757517016072D-02 -1.7393682684223D-02
219  2.1800000000000D+00  1.9140483581176D-02 -1.4222025512986D-02
220  2.1900000000000D+00  1.5057411685724D-02 -1.1352324060098D-02
221  2.2000000000000D+00  1.1495642371606D-02 -8.7941979197681D-03
222  2.2100000000000D+00  8.4377983426433D-03 -6.5518755621514D-03
223  2.2200000000000D+00  5.8664107840357D-03 -4.6283074280258D-03
224  2.2300000000000D+00  3.7601282769345D-03 -3.0214091292919D-03
225  2.2400000000000D+00  2.1296618579242D-03 -1.7578272787891D-03
226  2.2500000000000D+00  9.7129787825105D-04 -8.5010706274968D-04
227  2.2600000000000D+00  2.5263562060460D-04 -2.8170700137799D-04
228  2.2700000000000D+00 -1.0491925323856D-04  1.0392656402377D-05
229  2.2800000000000D+00 -1.8909982983905D-04  9.8706223936956D-05
230  2.2900000000000D+00 -1.1754950533066D-04  6.9345760302017D-05
231  2.3000000000000D+00 -5.4400849910953D-06  3.3477132450873D-06
232  2.3100000000000D+00  3.7954645322089D-05 -2.3572939486101D-05
233  2.3200000000000D+00  2.8363601474175D-05 -1.7897485281536D-05
234  2.3300000000000D+00 -2.0155777565262D-06  1.1851974564941D-06
235  2.3400000000000D+00 -7.9844148847949D-06  4.7425641964041D-06
236  2.3500000000000D+00 -4.7445783663025D-06  2.8400720886850D-06
237  2.3600000000000D+00  2.1537215759719D-07 -7.8776709070886D-08
238  2.3700000000000D+00  4.4920567809701D-07 -1.6430603384966D-07
239  2.3800000000000D+00  1.9783844143466D-07 -7.2363398861817D-08
240  2.3900000000000D+00  0.0000000000000D+00  0.0000000000000D+00
241  2.4000000000000D+00  0.0000000000000D+00  0.0000000000000D+00
242  2.4100000000000D+00  0.0000000000000D+00  0.0000000000000D+00
243  2.4200000000000D+00  0.0000000000000D+00  0.0000000000000D+00
244  2.4300000000000D+00  0.0000000000000D+00  0.0000000000000D+00
245  2.4400000000000D+00  0.0000000000000D+00  0.0000000000000D+00
246  2.4500000000000D+00  0.0000000000000D+00  0.0000000000000D+00
247  2.4600000000000D+00  0.0000000000000D+00  0.0000000000000D+00
248  2.4700000000000D+00  0.0000000000000D+00  0.0000000000000D+00
249  2.4800000000000D+00  0.0000000000000D+00  0.0000000000000D+00
250  2.4900000000000D+00  0.0000000000000D+00  0.0000000000000D+00
251  2.5000000000000D+00  0.0000000000000D+00  0.0000000000000D+00
252  2.5100000000000D+00  0.0000000000000D+00  0.0000000000000D+00
253  2.5200000000000D+00  0.0000000000000D+00  0.0000000000000D+00
254  2.5300000000000D+00  0.0000000000000D+00  0.0000000000000D+00
255  2.5400000000000D+00  0.0000000000000D+00  0.0000000000000D+00
256  2.5500000000000D+00  0.0000000000000D+00  0.0000000000000D+00
257  2.5600000000000D+00  0.0000000000000D+00  0.0000000000000D+00
258  2.5700000000000D+00  0.0000000000000D+00  0.0000000000000D+00
259  2.5800000000000D+00  0.0000000000000D+00  0.0000000000000D+00
260  2.5900000000000D+00  0.0000000000000D+00  0.0000000000000D+00
261  2.6000000000000D+00  0.0000000000000D+00  0.0000000000000D+00
262  2.6100000000000D+00  0.0000000000000D+00  0.0000000000000D+00
263  2.6200000000000D+00  0.0000000000000D+00  0.0000000000000D+00
264  2.6300000000000D+00  0.0000000000000D+00  0.0000000000000D+00
265  2.6400000000000D+00  0.0000000000000D+00  0.0000000000000D+00
266  2.6500000000000D+00  0.0000000000000D+00  0.0000000000000D+00
267  2.6600000000000D+00  0.0000000000000D+00  0.0000000000000D+00
268  2.6700000000000D+00  0.0000000000000D+00  0.0000000000000D+00
269  2.6800000000000D+00  0.0000000000000D+00  0.0000000000000D+00
270  2.6900000000000D+00  0.0000000000000D+00  0.0000000000000D+00
271  2.7000000000000D+00  0.0000000000000D+00  0.0000000000000D+00
272  2.7100000000000D+00  0.0000000000000D+00  0.0000000000000D+00
273  2.7200000000000D+00  0.0000000000000D+00  0.0000000000000D+00
274  2.7300000000000D+00  0.0000000000000D+00  0.0000000000000D+00
275  2.7400000000000D+00  0.0000000000000D+00  0.0000000000000D+00
276  2.7500000000000D+00  0.0000000000000D+00  0.0000000000000D+00
277  2.7600000000000D+00  0.0000000000000D+00  0.0000000000000D+00
278  2.7700000000000D+00  0.0000000000000D+00  0.0000000000000D+00
279  2.7800000000000D+00  0.0000000000000D+00  0.0000000000000D+00
280  2.7900000000000D+00  0.0000000000000D+00  0.0000000000000D+00
281  2.8000000000000D+00  0.0000000000000D+00  0.0000000000000D+00
282  2.8100000000000D+00  0.0000000000000D+00  0.0000000000000D+00
283  2.8200000000000D+00  0.0000000000000D+00  0.0000000000000D+00
284  2.8300000000000D+00  0.0000000000000D+00  0.0000000000000D+00
285  2.8400000000000D+00  0.0000000000000D+00  0.0000000000000D+00
286  2.8500000000000D+00  0.0000000000000D+00  0.0000000000000D+00
287  2.8600000000000D+00  0.0000000000000D+00  0.0000000000000D+00
288  2.8700000000000D+00  0.0000000000000D+00  0.0000000000000D+00
289  2.8800000000000D+00  0.0000000000000D+00  0.0000000000000D+00
290  2.8900000000000D+00  0.0000000000000D+00  0.0000000000000D+00
291  2.9000000000000D+00  0.0000000000000D+00  0.0000000000000D+00
292  2.9100000000000D+00  0.0000000000000D+00  0.0000000000000D+00
293  2.9200000000000D+00  0.0000000000000D+00  0.0000000000000D+00
294  2.9300000000000D+00  0.0000000000000D+00  0.0000000000000D+00
295  2.9400000000000D+00  0.0000000000000D+00  0.0000000000000D+00
296  2.9500000000000D+00  0.0000000000000D+00  0.0000000000000D+00
297  2.9600000000000D+00  0.0000000000000D+00  0.0000000000000D+00
298  2.9700000000000D+00  0.0000000000000D+00  0.0000000000000D+00
299  2.9800000000000D+00  0.0000000000000D+00  0.0000000000000D+00
300  2.9900000000000D+00  0.0000000000000D+00  0.0000000000000D+00
301  3.0000000000000D+00  0.0000000000000D+00  0.0000000000000D+00
302  3.0100000000000D+00  0.0000000000000D+00  0.0000000000000D+00
303  3.0200000000000D+00  0.0000000000000D+00  0.0000000000000D+00
304  3.0300000000000D+00  0.0000000000000D+00  0.0000000000000D+00
305  3.0400000000000D+00  0.0000000000000D+00  0.0000000000000D+00
306  3.0500000000000D+00  0.0000000000000D+00  0.0000000000000D+00
307  3.0600000000000D+00  0.0000000000000D+00  0.0000000000000D+00
308  3.0700000000000D+00  0.0000000000000D+00  0.0000000000000D+00
309  3.0800000000000D+00  0.0000000000000D+00  0.0000000000000D+00
310  3.0900000000000D+00  0.0000000000000D+00  0.0000000000000D+00
311  3.1000000000000D+00  0.0000000000000D+00  0.0000000000000D+00
312  3.1100000000000D+00  0.0000000000000D+00  0.0000000000000D+00
313  3.1200000000000D+00  0.0000000000000D+00  0.0000000000000D+00
314  3.1300000000000D+00  0.0000000000000D+00  0.0000000000000D+00
315  3.1400000000000D+00  0.0000000000000D+00  0.0000000000000D+00
316  3.1500000000000D+00  0.0000000000000D+00  0.0000000000000D+00
317  3.1600000000000D+00  0.0000000000000D+00  0.0000000000000D+00
318  3.1700000000000D+00  0.0000000000000D+00  0.0000000000000D+00
319  3.1800000000000D+00  0.0000000000000D+00  0.0000000000000D+00
320  3.1900000000000D+00  0.0000000000000D+00  0.0000000000000D+00
321  3.2000000000000D+00  0.0000000000000D+00  0.0000000000000D+00
322  3.2100000000000D+00  0.0000000000000D+00  0.0000000000000D+00
323  3.2200000000000D+00  0.0000000000000D+00  0.0000000000000D+00
324  3.2300000000000D+00  0.0000000000000D+00  0.0000000000000D+00
325  3.2400000000000D+00  0.0000000000000D+00  0.0000000000000D+00
326  3.2500000000000D+00  0.0000000000000D+00  0.0000000000000D+00
327  3.2600000000000D+00  0.0000000000000D+00  0.0000000000000D+00
328  3.2700000000000D+00  0.0000000000000D+00  0.0000000000000D+00
329  3.2800000000000D+00  0.0000000000000D+00  0.0000000000000D+00
330  3.2900000000000D+00  0.0000000000000D+00  0.0000000000000D+00
331  3.3000000000000D+00  0.0000000000000D+00  0.0000000000000D+00
332  3.3100000000000D+00  0.0000000000000D+00  0.0000000000000D+00
333  3.3200000000000D+00  0.0000000000000D+00  0.0000000000000D+00
334  3.3300000000000D+00  0.0000000000000D+00  0.0000000000000D+00
335  3.3400000000000D+00  0.0000000000000D+00  0.0000000000000D+00
336  3.3500000000000D+00  0.0000000000000D+00  0.0000000000000D+00
337  3.3600000000000D+00  0.0000000000000D+00  0.0000000000000D+00
338  3.3700000000000D+00  0.0000000000000D+00  0.0000000000000D+00
339  3.3800000000000D+00  0.0000000000000D+00  0.0000000000000D+00
340  3.3900000000000D+00  0.0000000000000D+00  0.0000000000000D+00
341  3.4000000000000D+00  0.0000000000000D+00  0.0000000000000D+00
342  3.4100000000000D+00  0.0000000000000D+00  0.0000000000000D+00
343  3.4200000000000D+00  0.0000000000000D+00  0.0000000000000D+00
344  3.4300000000000D+00  0.0000000000000D+00  0.0000000000000D+00
345  3.4400000000000D+00  0.0000000000000D+00  0.0000000000000D+00
346  3.4500000000000D+00  0.0000000000000D+00  0.0000000000000D+00
347  3.4600000000000D+00  0.0000000000000D+00  0.0000000000000D+00
348  3.4700000000000D+00  0.0000000000000D+00  0.0000000000000D+00
349  3.4800000000000D+00  0.0000000000000D+00  0.0000000000000D+00
350  3.4900000000000D+00  0.0000000000000D+00  0.0000000000000D+00
351  3.5000000000000D+00  0.0000000000000D+00  0.0000000000000D+00
352  3.5100000000000D+00  0.0000000000000D+00  0.0000000000000D+00
353  3.5200000000000D+00  0.0000000000000D+00  0.0000000000000D+00
354  3.5300000000000D+00  0.0000000000000D+00  0.0000000000000D+00
355  3.5400000000000D+00  0.0000000000000D+00  0.0000000000000D+00
356  3.5500000000000D+00  0.0000000000000D+00  0.0000000000000D+00
357  3.5600000000000D+00  0.0000000000000D+00  0.0000000000000D+00
358  3.5700000000000D+00  0.0000000000000D+00  0.0000000000000D+00
359  3.5800000000000D+00  0.0000000000000D+00  0.0000000000000D+00
360  3.5900000000000D+00  0.0000000000000D+00  0.0000000000000D+00
361  3.6000000000000D+00  0.0000000000000D+00  0.0000000000000D+00
362  3.6100000000000D+00  0.0000000000000D+00  0.0000000000000D+00
363  3.6200000000000D+00  0.0000000000000D+00  0.0000000000000D+00
364  3.6300000000000D+00  0.0000000000000D+00  0.0000000000000D+00
365  3.6400000000000D+00  0.0000000000000D+00  0.0000000000000D+00
366  3.6500000000000D+00  0.0000000000000D+00  0.0000000000000D+00
367  3.6600000000000D+00  0.0000000000000D+00  0.0000000000000D+00
368  3.6700000000000D+00  0.0000000000000D+00  0.0000000000000D+00
369  3.6800000000000D+00  0.0000000000000D+00  0.0000000000000D+00
370  3.6900000000000D+00  0.0000000000000D+00  0.0000000000000D+00
371  3.7000000000000D+00  0.0000000000000D+00  0.0000000000000D+00
372  3.7100000000000D+00  0.0000000000000D+00  0.0000000000000D+00
373  3.7200000000000D+00  0.0000000000000D+00  0.0000000000000D+00
374  3.7300000000000D+00  0.0000000000000D+00  0.0000000000000D+00
375  3.7400000000000D+00  0.0000000000000D+00  0.0000000000000D+00
376  3.7500000000000D+00  0.0000000000000D+00  0.0000000000000D+00
377  3.7600000000000D+00  0.0000000000000D+00  0.0000000000000D+00
378  3.7700000000000D+00  0.0000000000000D+00  0.0000000000000D+00
379  3.7800000000000D+00  0.0000000000000D+00  0.0000000000000D+00
380  3.7900000000000D+00  0.0000000000000D+00  0.0000000000000D+00
381  3.8000000000000D+00  0.0000000000000D+00  0.0000000000000D+00
382  3.8100000000000D+00  0.0000000000000D+00  0.0000000000000D+00
383  3.8200000000000D+00  0.0000000000000D+00  0.0000000000000D+00
384  3.8300000000000D+00  0.0000000000000D+00  0.0000000000000D+00
385  3.8400000000000D+00  0.0000000000000D+00  0.0000000000000D+00
386  3.8500000000000D+00  0.0000000000000D+00  0.0000000000000D+00
387  3.8600000000000D+00  0.0000000000000D+00  0.0000000000000D+00
388  3.8700000000000D+00  0.0000000000000D+00  0.0000000000000D+00
389  3.8800000000000D+00  0.0000000000000D+00  0.0000000000000D+00
390  3.8900000000000D+00  0.0000000000000D+00  0.0000000000000D+00
391  3.9000000000000D+00  0.0000000000000D+00  0.0000000000000D+00
392  3.9100000000000D+00  0.0000000000000D+00  0.0000000000000D+00
393  3.9200000000000D+00  0.0000000000000D+00  0.0000000000000D+00
394  3.9300000000000D+00  0.0000000000000D+00  0.0000000000000D+00
395  3.9400000000000D+00  0.0000000000000D+00  0.0000000000000D+00
396  3.9500000000000D+00  0.0000000000000D+00  0.0000000000000D+00
397  3.9600000000000D+00  0.0000000000000D+00  0.0000000000000D+00
398  3.9700000000000D+00  0.0000000000000D+00  0.0000000000000D+00
399  3.9800000000000D+00  0.0000000000000D+00  0.0000000000000D+00
400  3.9900000000000D+00  0.0000000000000D+00  0.0000000000000D+00
401  4.0000000000000D+00  0.0000000000000D+00  0.0000000000000D+00
402  4.0100000000000D+00  0.0000000000000D+00  0.0000000000000D+00
403  4.0200000000000D+00  0.0000000000000D+00  0.0000000000000D+00
404  4.0300000000000D+00  0.0000000000000D+00  0.0000000000000D+00
405  4.0400000000000D+00  0.0000000000000D+00  0.0000000000000D+00
406  4.0500000000000D+00  0.0000000000000D+00  0.0000000000000D+00
407  4.0600000000000D+00  0.0000000000000D+00  0.0000000000000D+00
408  4.0700000000000D+00  0.0000000000000D+00  0.0000000000000D+00
409  4.0800000000000D+00  0.0000000000000D+00  0.0000000000000D+00
410  4.0900000000000D+00  0.0000000000000D+00  0.0000000000000D+00
411  4.1000000000000D+00  0.0000000000000D+00  0.0000000000000D+00
412  4.1100000000000D+00  0.0000000000000D+00  0.0000000000000D+00
413  4.1200000000000D+00  0.0000000000000D+00  0.0000000000000D+00
414  4.1300000000000D+00  0.0000000000000D+00  0.0000000000000D+00
415  4.1400000000000D+00  0.0000000000000D+00  0.0000000000000D+00
416  4.1500000000000D+00  0.0000000000000D+00  0.0000000000000D+00
417  4.1600000000000D+00  0.0000000000000D+00  0.0000000000000D+00
418  4.1700000000000D+00  0.0000000000000D+00  0.0000000000000D+00
419  4.1800000000000D+00  0.0000000000000D+00  0.0000000000000D+00
420  4.1900000000000D+00  0.0000000000000D+00  0.0000000000000D+00
421  4.2000000000000D+00  0.0000000000000D+00  0.0000000000000D+00
422  4.2100000000000D+00  0.0000000000000D+00  0.0000000000000D+00
423  4.2200000000000D+00  0.0000000000000D+00  0.0000000000000D+00
424  4.2300000000000D+00  0.0000000000000D+00  0.0000000000000D+00
425  4.2400000000000D+00  0.0000000000000D+00  0.0000000000000D+00
426  4.2500000000000D+00  0.0000000000000D+00  0.0000000000000D+00
427  4.2600000000000D+00  0.0000000000000D+00  0.0000000000000D+00
428  4.2700000000000D+00  0.0000000000000D+00  0.0000000000000D+00
429  4.2800000000000D+00  0.0000000000000D+00  0.0000000000000D+00
430  4.2900000000000D+00  0.0000000000000D+00  0.0000000000000D+00
431  4.3000000000000D+00  0.0000000000000D+00  0.0000000000000D+00
432  4.3100000000000D+00  0.0000000000000D+00  0.0000000000000D+00
433  4.3200000000000D+00  0.0000000000000D+00  0.0000000000000D+00
434  4.3300000000000D+00  0.0000000000000D+00  0.0000000000000D+00
435  4.3400000000000D+00  0.0000000000000D+00  0.0000000000000D+00
436  4.3500000000000D+00  0.0000000000000D+00  0.0000000000000D+00
437  4.3600000000000D+00  0.0000000000000D+00  0.0000000000000D+00
438  4.3700000000000D+00  0.0000000000000D+00  0.0000000000000D+00
439  4.3800000000000D+00  0.0000000000000D+00  0.0000000000000D+00
440  4.3900000000000D+00  0.0000000000000D+00  0.0000000000000D+00
441  4.4000000000000D+00  0.0000000000000D+00  0.0000000000000D+00
442  4.4100000000000D+00  0.0000000000000D+00  0.0000000000000D+00
443  4.4200000000000D+00  0.0000000000000D+00  0.0000000000000D+00