Pd    ONCVPSP-3.2.3  r_core=   1.41052   1.46191   1.55175
46.0000     18.0000      161006    zatom,zion,pspd
8   -1012   2     4   600     0    pspcod,pspxc,lmax,lloc,mmax,r2well
5.99000000  7.00000000  0.00000000    rchrg fchrg qchrg
2     2     2     0     0    nproj
1     1           extension_switch
0                         8.0967951757026D+00 -1.8913021449614D+00
1  0.0000000000000D+00 -8.9787732804325D-11 -8.8570456524550D-10
2  1.0000000000000D-02  6.5858257408876D-02 -5.7118217331855D-02
3  2.0000000000000D-02  1.3158426553794D-01 -1.1408589258265D-01
4  3.0000000000000D-02  1.9704621861334D-01 -1.7075177551065D-01
5  4.0000000000000D-02  2.6211319519460D-01 -2.2696321746547D-01
6  5.0000000000000D-02  3.2665559366799D-01 -2.8256551673841D-01
7  6.0000000000000D-02  3.9054555979592D-01 -3.3740131674417D-01
8  7.0000000000000D-02  4.5365740378065D-01 -3.9131007359498D-01
9  8.0000000000000D-02  5.1586800439008D-01 -4.4412760874221D-01
10  9.0000000000000D-02  5.7705719780451D-01 -4.9568576127123D-01
11  1.0000000000000D-01  6.3710814897316D-01 -5.4581215315296D-01
12  1.1000000000000D-01  6.9590770341933D-01 -5.9433007929419D-01
13  1.2000000000000D-01  7.5334671759893D-01 -6.4105853260405D-01
14  1.3000000000000D-01  8.0932036610007D-01 -6.8581237252199D-01
15  1.4000000000000D-01  8.6372842416792D-01 -7.2840264355358D-01
16  1.5000000000000D-01  9.1647552424785D-01 -7.6863704835328D-01
17  1.6000000000000D-01  9.6747138545935D-01 -8.0632057780061D-01
18  1.7000000000000D-01  1.0166310151412D+00 -8.4125629835970D-01
19  1.8000000000000D-01  1.0638748818420D+00 -8.7324629481604D-01
20  1.9000000000000D-01  1.1091290593690D+00 -9.0209276427220D-01
21  2.0000000000000D-01  1.1523253417470D+00 -9.2759925508072D-01
22  2.1000000000000D-01  1.1934013291804D+00 -9.4957204222286D-01
23  2.2000000000000D-01  1.2323004853469D+00 -9.6782162852879D-01
24  2.3000000000000D-01  1.2689721665842D+00 -9.8216435910648D-01
25  2.4000000000000D-01  1.3033716237553D+00 -9.9242413442121D-01
26  2.5000000000000D-01  1.3354599777945D+00 -9.9843420567391D-01
27  2.6000000000000D-01  1.3652041701396D+00 -1.0000390344820D+00
28  2.7000000000000D-01  1.3925768894458D+00 -9.9709619739421D-01
29  2.8000000000000D-01  1.4175564761544D+00 -9.8947831448829D-01
30  2.9000000000000D-01  1.4401268066445D+00 -9.7707498022871D-01
31  3.0000000000000D-01  1.4602771588398D+00 -9.5979467390860D-01
32  3.1000000000000D-01  1.4780020612564D+00 -9.3756662639037D-01
33  3.2000000000000D-01  1.4933011275824D+00 -9.1034261949245D-01
34  3.3000000000000D-01  1.5061788789501D+00 -8.7809869426406D-01
35  3.4000000000000D-01  1.5166445561175D+00 -8.4083674454542D-01
36  3.5000000000000D-01  1.5247119238038D+00 -7.9858597263408D-01
37  3.6000000000000D-01  1.5303990694275D+00 -7.5140418457027D-01
38  3.7000000000000D-01  1.5337281984779D+00 -6.9937890351099D-01
39  3.8000000000000D-01  1.5347254287033D+00 -6.4262828088316D-01
40  3.9000000000000D-01  1.5334205852357D+00 -5.8130178647849D-01
41  4.0000000000000D-01  1.5298469986776D+00 -5.1558066037163D-01
42  4.1000000000000D-01  1.5240413080642D+00 -4.4567811149068D-01
43  4.2000000000000D-01  1.5160432704800D+00 -3.7183924983365D-01
44  4.3000000000000D-01  1.5058955789535D+00 -2.9434074168570D-01
45  4.4000000000000D-01  1.4936436900809D+00 -2.1349017972934D-01
46  4.5000000000000D-01  1.4793356626414D+00 -1.2962516263164D-01
47  4.6000000000000D-01  1.4630220082596D+00 -4.3112081512996D-02
48  4.7000000000000D-01  1.4447555549580D+00  4.5655386375549D-02
49  4.8000000000000D-01  1.4245913242127D+00  1.3625807344303D-01
50  4.9000000000000D-01  1.4025864218920D+00  2.2825340065327D-01
51  5.0000000000000D-01  1.3787999432201D+00  3.2117773010587D-01
52  5.1000000000000D-01  1.3532928916635D+00  4.1454897884987D-01
53  5.2000000000000D-01  1.3261281113987D+00  5.0786947849096D-01
54  5.3000000000000D-01  1.2973702327819D+00  6.0062906225119D-01
55  5.4000000000000D-01  1.2670856300065D+00  6.9230835835015D-01
56  5.5000000000000D-01  1.2353423899159D+00  7.8238226593352D-01
57  5.6000000000000D-01  1.2022102907226D+00  8.7032358731209D-01
58  5.7000000000000D-01  1.1677607891903D+00  9.5560678800748D-01
59  5.8000000000000D-01  1.1320670146544D+00  1.0377118540821D+00
60  5.9000000000000D-01  1.0952037680933D+00  1.1161282144561D+00
61  6.0000000000000D-01  1.0572475243251D+00  1.1903586944385D+00
62  6.1000000000000D-01  1.0182764352868D+00  1.2599234655152D+00
63  6.2000000000000D-01  9.7837033225946D-01  1.3243639555879D+00
64  6.3000000000000D-01  9.3761072484345D-01  1.3832466833408D+00
65  6.4000000000000D-01  8.9608079444566D-01  1.4361669802518D+00
66  6.5000000000000D-01  8.5386538003801D-01  1.4827525639621D+00
67  6.6000000000000D-01  8.1105095396675D-01  1.5226669272884D+00
68  6.7000000000000D-01  7.6772558564617D-01  1.5556125080955D+00
69  6.8000000000000D-01  7.2397889105301D-01  1.5813336065475D+00
70  6.9000000000000D-01  6.7990196605175D-01  1.5996190179248D+00
71  7.0000000000000D-01  6.3558730172353D-01  1.6103043512072D+00
72  7.1000000000000D-01  5.9112868004263D-01  1.6132740059789D+00
73  7.2000000000000D-01  5.4662104844235D-01  1.6084627828810D+00
74  7.3000000000000D-01  5.0216037203664D-01  1.5958571058224D+00
75  7.4000000000000D-01  4.5784346251036D-01  1.5754958374047D+00
76  7.5000000000000D-01  4.1376778295964D-01  1.5474706725160D+00
77  7.6000000000000D-01  3.7003122825079D-01  1.5119260987693D+00
78  7.7000000000000D-01  3.2673188076886D-01  1.4690589163587D+00
79  7.8000000000000D-01  2.8396774174191D-01  1.4191173139479D+00
80  7.9000000000000D-01  2.4183643865239D-01  1.3623995013771D+00
81  8.0000000000000D-01  2.0043490957715D-01  1.2992519041833D+00
82  8.1000000000000D-01  1.5985906563021D-01  1.2300669291884D+00
83  8.2000000000000D-01  1.2020343301390D-01  1.1552803146432D+00
84  8.3000000000000D-01  8.1560776509664D-02  1.0753680825904D+00
85  8.4000000000000D-01  4.4021706556620D-02  9.9084311518263D-01
86  8.5000000000000D-01  7.6742723696118D-03  9.0225138061875D-01
87  8.6000000000000D-01 -2.7396456164639D-02  8.1016783809852D-01
88  8.7000000000000D-01 -6.1108814808148D-02  7.1519205470362D-01
89  8.8000000000000D-01 -9.3384976261561D-02  6.1794357035073D-01
90  8.9000000000000D-01 -1.2415138296053D-01  5.1905704989422D-01
91  9.0000000000000D-01 -1.5333917773124D-01  4.1917726404419D-01
92  9.1000000000000D-01 -1.8088462850641D-01  3.1895394298123D-01
93  9.2000000000000D-01 -2.0672954318733D-01  2.1903654836299D-01
94  9.3000000000000D-01 -2.3082167066038D-01  1.2006901080288D-01
95  9.4000000000000D-01 -2.5311508393883D-01  2.2684480840266D-02
96  9.5000000000000D-01 -2.7357054140452D-01 -7.2499858103260D-02
97  9.6000000000000D-01 -2.9215582217159D-01 -1.6488786629952D-01
98  9.7000000000000D-01 -3.0884603168092D-01 -2.5390936579933D-01
99  9.8000000000000D-01 -3.2362387377008D-01 -3.3902485300332D-01
100  9.9000000000000D-01 -3.3647988563658D-01 -4.1972996012943D-01
101  1.0000000000000D+00 -3.4741263233099D-01 -4.9555962191964D-01
102  1.0100000000000D+00 -3.5642885767422D-01 -5.6609190631593D-01
103  1.0200000000000D+00 -3.6354358878884D-01 -6.3095147064115D-01
104  1.0300000000000D+00 -3.6878019178323D-01 -6.8981260822241D-01
105  1.0400000000000D+00 -3.7217037646096D-01 -7.4240185368208D-01
106  1.0500000000000D+00 -3.7375414837173D-01 -7.8850011956715D-01
107  1.0600000000000D+00 -3.7357970691803D-01 -8.2794434101707D-01
108  1.0700000000000D+00 -3.7170328869093D-01 -8.6062860985369D-01
109  1.0800000000000D+00 -3.6818895570234D-01 -8.8650478456438D-01
110  1.0900000000000D+00 -3.6310832861572D-01 -9.0558256714491D-01
111  1.1000000000000D+00 -3.5654026563249D-01 -9.1792904355826D-01
112  1.1100000000000D+00 -3.4857048816778D-01 -9.2366768955802D-01
113  1.1200000000000D+00 -3.3929115496712D-01 -9.2297684909341D-01
114  1.1300000000000D+00 -3.2880038681034D-01 -9.1608769775416D-01
115  1.1400000000000D+00 -3.1720174441350D-01 -9.0328170866368D-01
116  1.1500000000000D+00 -3.0460366268821D-01 -8.8488764411110D-01
117  1.1600000000000D+00 -2.9111884493160D-01 -8.6127810070087D-01
118  1.1700000000000D+00 -2.7686362094570D-01 -8.3286564042102D-01
119  1.1800000000000D+00 -2.6195727349647D-01 -8.0009854453149D-01
120  1.1900000000000D+00 -2.4652133794187D-01 -7.6345623183014D-01
121  1.2000000000000D+00 -2.3067888016737D-01 -7.2344438636824D-01
122  1.2100000000000D+00 -2.1455375818710D-01 -6.8058984214783D-01
123  1.2200000000000D+00 -1.9826987316044D-01 -6.3543527688242D-01
124  1.2300000000000D+00 -1.8195041568228D-01 -5.8853376834062D-01
125  1.2400000000000D+00 -1.6571711334655D-01 -5.4044326854490D-01
126  1.2500000000000D+00 -1.4968948574789D-01 -4.9172105323143D-01
127  1.2600000000000D+00 -1.3398411308310D-01 -4.4291820446340D-01
128  1.2700000000000D+00 -1.1871392447957D-01 -3.9457418419541D-01
129  1.2800000000000D+00 -1.0398751221946D-01 -3.4721155739610D-01
130  1.2900000000000D+00 -8.9908477752072D-02 -3.0133092121259D-01
131  1.3000000000000D+00 -7.6574815284801D-02 -2.5740609574186D-01
132  1.3100000000000D+00 -6.4078338647420D-02 -2.1587963142985D-01
133  1.3200000000000D+00 -5.2504156476817D-02 -1.7715868229809D-01
134  1.3300000000000D+00 -4.1930200818765D-02 -1.4161129461906D-01
135  1.3400000000000D+00 -3.2426813796688D-02 -1.0956315675523D-01
136  1.3500000000000D+00 -2.4056396066270D-02 -8.1294847103028D-02
137  1.3600000000000D+00 -1.6873121279443D-02 -5.7039621864803D-02
138  1.3700000000000D+00 -1.0926883797247D-02 -3.6996185169188D-02
139  1.3800000000000D+00 -6.2309276160435D-03 -2.1214491584283D-02
140  1.3900000000000D+00 -2.8401918805398D-03 -9.8722180714971D-03
141  1.4000000000000D+00 -8.7098358967615D-04 -3.3611682163492D-03
142  1.4100000000000D+00 -7.9319832495967D-05 -7.1500767746955D-04
143  1.4200000000000D+00  5.4564300569924D-05 -1.6570110788477D-05
144  1.4300000000000D+00 -1.1992890239693D-05 -1.1060490652407D-05
145  1.4400000000000D+00 -1.5445811254838D-05 -2.0948446438545D-05
146  1.4500000000000D+00  3.3243954396946D-06  1.4467314656087D-06
147  1.4600000000000D+00  1.2377350155752D-06  8.6377883394074D-07
148  1.4700000000000D+00  1.7307054384867D-07  1.8367047832580D-06
149  1.4800000000000D+00  0.0000000000000D+00  0.0000000000000D+00
150  1.4900000000000D+00  0.0000000000000D+00  0.0000000000000D+00
151  1.5000000000000D+00  0.0000000000000D+00  0.0000000000000D+00
152  1.5100000000000D+00  0.0000000000000D+00  0.0000000000000D+00
153  1.5200000000000D+00  0.0000000000000D+00  0.0000000000000D+00
154  1.5300000000000D+00  0.0000000000000D+00  0.0000000000000D+00
155  1.5400000000000D+00  0.0000000000000D+00  0.0000000000000D+00
156  1.5500000000000D+00  0.0000000000000D+00  0.0000000000000D+00
157  1.5600000000000D+00  0.0000000000000D+00  0.0000000000000D+00
158  1.5700000000000D+00  0.0000000000000D+00  0.0000000000000D+00
159  1.5800000000000D+00  0.0000000000000D+00  0.0000000000000D+00
160  1.5900000000000D+00  0.0000000000000D+00  0.0000000000000D+00
161  1.6000000000000D+00  0.0000000000000D+00  0.0000000000000D+00
162  1.6100000000000D+00  0.0000000000000D+00  0.0000000000000D+00
163  1.6200000000000D+00  0.0000000000000D+00  0.0000000000000D+00
164  1.6300000000000D+00  0.0000000000000D+00  0.0000000000000D+00
165  1.6400000000000D+00  0.0000000000000D+00  0.0000000000000D+00
166  1.6500000000000D+00  0.0000000000000D+00  0.0000000000000D+00
167  1.6600000000000D+00  0.0000000000000D+00  0.0000000000000D+00
168  1.6700000000000D+00  0.0000000000000D+00  0.0000000000000D+00
169  1.6800000000000D+00  0.0000000000000D+00  0.0000000000000D+00
170  1.6900000000000D+00  0.0000000000000D+00  0.0000000000000D+00
171  1.7000000000000D+00  0.0000000000000D+00  0.0000000000000D+00
172  1.7100000000000D+00  0.0000000000000D+00  0.0000000000000D+00
173  1.7200000000000D+00  0.0000000000000D+00  0.0000000000000D+00
174  1.7300000000000D+00  0.0000000000000D+00  0.0000000000000D+00
175  1.7400000000000D+00  0.0000000000000D+00  0.0000000000000D+00
176  1.7500000000000D+00  0.0000000000000D+00  0.0000000000000D+00
177  1.7600000000000D+00  0.0000000000000D+00  0.0000000000000D+00
178  1.7700000000000D+00  0.0000000000000D+00  0.0000000000000D+00
179  1.7800000000000D+00  0.0000000000000D+00  0.0000000000000D+00
180  1.7900000000000D+00  0.0000000000000D+00  0.0000000000000D+00
181  1.8000000000000D+00  0.0000000000000D+00  0.0000000000000D+00
182  1.8100000000000D+00  0.0000000000000D+00  0.0000000000000D+00
183  1.8200000000000D+00  0.0000000000000D+00  0.0000000000000D+00
184  1.8300000000000D+00  0.0000000000000D+00  0.0000000000000D+00
185  1.8400000000000D+00  0.0000000000000D+00  0.0000000000000D+00
186  1.8500000000000D+00  0.0000000000000D+00  0.0000000000000D+00
187  1.8600000000000D+00  0.0000000000000D+00  0.0000000000000D+00
188  1.8700000000000D+00  0.0000000000000D+00  0.0000000000000D+00
189  1.8800000000000D+00  0.0000000000000D+00  0.0000000000000D+00
190  1.8900000000000D+00  0.0000000000000D+00  0.0000000000000D+00
191  1.9000000000000D+00  0.0000000000000D+00  0.0000000000000D+00
192  1.9100000000000D+00  0.0000000000000D+00  0.0000000000000D+00
193  1.9200000000000D+00  0.0000000000000D+00  0.0000000000000D+00
194  1.9300000000000D+00  0.0000000000000D+00  0.0000000000000D+00
195  1.9400000000000D+00  0.0000000000000D+00  0.0000000000000D+00
196  1.9500000000000D+00  0.0000000000000D+00  0.0000000000000D+00
197  1.9600000000000D+00  0.0000000000000D+00  0.0000000000000D+00
198  1.9700000000000D+00  0.0000000000000D+00  0.0000000000000D+00
199  1.9800000000000D+00  0.0000000000000D+00  0.0000000000000D+00
200  1.9900000000000D+00  0.0000000000000D+00  0.0000000000000D+00
201  2.0000000000000D+00  0.0000000000000D+00  0.0000000000000D+00
202  2.0100000000000D+00  0.0000000000000D+00  0.0000000000000D+00
203  2.0200000000000D+00  0.0000000000000D+00  0.0000000000000D+00
204  2.0300000000000D+00  0.0000000000000D+00  0.0000000000000D+00
205  2.0400000000000D+00  0.0000000000000D+00  0.0000000000000D+00
206  2.0500000000000D+00  0.0000000000000D+00  0.0000000000000D+00
207  2.0600000000000D+00  0.0000000000000D+00  0.0000000000000D+00
208  2.0700000000000D+00  0.0000000000000D+00  0.0000000000000D+00
209  2.0800000000000D+00  0.0000000000000D+00  0.0000000000000D+00
210  2.0900000000000D+00  0.0000000000000D+00  0.0000000000000D+00
211  2.1000000000000D+00  0.0000000000000D+00  0.0000000000000D+00
212  2.1100000000000D+00  0.0000000000000D+00  0.0000000000000D+00
213  2.1200000000000D+00  0.0000000000000D+00  0.0000000000000D+00
214  2.1300000000000D+00  0.0000000000000D+00  0.0000000000000D+00
215  2.1400000000000D+00  0.0000000000000D+00  0.0000000000000D+00
216  2.1500000000000D+00  0.0000000000000D+00  0.0000000000000D+00
217  2.1600000000000D+00  0.0000000000000D+00  0.0000000000000D+00
218  2.1700000000000D+00  0.0000000000000D+00  0.0000000000000D+00
219  2.1800000000000D+00  0.0000000000000D+00  0.0000000000000D+00
220  2.1900000000000D+00  0.0000000000000D+00  0.0000000000000D+00
221  2.2000000000000D+00  0.0000000000000D+00  0.0000000000000D+00
222  2.2100000000000D+00  0.0000000000000D+00  0.0000000000000D+00
223  2.2200000000000D+00  0.0000000000000D+00  0.0000000000000D+00
224  2.2300000000000D+00  0.0000000000000D+00  0.0000000000000D+00
225  2.2400000000000D+00  0.0000000000000D+00  0.0000000000000D+00
226  2.2500000000000D+00  0.0000000000000D+00  0.0000000000000D+00
227  2.2600000000000D+00  0.0000000000000D+00  0.0000000000000D+00
228  2.2700000000000D+00  0.0000000000000D+00  0.0000000000000D+00
229  2.2800000000000D+00  0.0000000000000D+00  0.0000000000000D+00
230  2.2900000000000D+00  0.0000000000000D+00  0.0000000000000D+00
231  2.3000000000000D+00  0.0000000000000D+00  0.0000000000000D+00
232  2.3100000000000D+00  0.0000000000000D+00  0.0000000000000D+00
233  2.3200000000000D+00  0.0000000000000D+00  0.0000000000000D+00
234  2.3300000000000D+00  0.0000000000000D+00  0.0000000000000D+00
235  2.3400000000000D+00  0.0000000000000D+00  0.0000000000000D+00
236  2.3500000000000D+00  0.0000000000000D+00  0.0000000000000D+00
237  2.3600000000000D+00  0.0000000000000D+00  0.0000000000000D+00
238  2.3700000000000D+00  0.0000000000000D+00  0.0000000000000D+00
239  2.3800000000000D+00  0.0000000000000D+00  0.0000000000000D+00
240  2.3900000000000D+00  0.0000000000000D+00  0.0000000000000D+00
241  2.4000000000000D+00  0.0000000000000D+00  0.0000000000000D+00
242  2.4100000000000D+00  0.0000000000000D+00  0.0000000000000D+00
243  2.4200000000000D+00  0.0000000000000D+00  0.0000000000000D+00
244  2.4300000000000D+00  0.0000000000000D+00  0.0000000000000D+00
245  2.4400000000000D+00  0.0000000000000D+00  0.0000000000000D+00
246  2.4500000000000D+00  0.0000000000000D+00  0.0000000000000D+00
247  2.4600000000000D+00  0.0000000000000D+00  0.0000000000000D+00
248  2.4700000000000D+00  0.0000000000000D+00  0.0000000000000D+00
249  2.4800000000000D+00  0.0000000000000D+00  0.0000000000000D+00
250  2.4900000000000D+00  0.0000000000000D+00  0.0000000000000D+00
251  2.5000000000000D+00  0.0000000000000D+00  0.0000000000000D+00
252  2.5100000000000D+00  0.0000000000000D+00  0.0000000000000D+00
253  2.5200000000000D+00  0.0000000000000D+00  0.0000000000000D+00
254  2.5300000000000D+00  0.0000000000000D+00  0.0000000000000D+00
255  2.5400000000000D+00  0.0000000000000D+00  0.0000000000000D+00
256  2.5500000000000D+00  0.0000000000000D+00  0.0000000000000D+00
257  2.5600000000000D+00  0.0000000000000D+00  0.0000000000000D+00
258  2.5700000000000D+00  0.0000000000000D+00  0.0000000000000D+00
259  2.5800000000000D+00  0.0000000000000D+00  0.0000000000000D+00
260  2.5900000000000D+00  0.0000000000000D+00  0.0000000000000D+00
261  2.6000000000000D+00  0.0000000000000D+00  0.0000000000000D+00
262  2.6100000000000D+00  0.0000000000000D+00  0.0000000000000D+00
263  2.6200000000000D+00  0.0000000000000D+00  0.0000000000000D+00
264  2.6300000000000D+00  0.0000000000000D+00  0.0000000000000D+00
265  2.6400000000000D+00  0.0000000000000D+00  0.0000000000000D+00
266  2.6500000000000D+00  0.0000000000000D+00  0.0000000000000D+00
267  2.6600000000000D+00  0.0000000000000D+00  0.0000000000000D+00
268  2.6700000000000D+00  0.0000000000000D+00  0.0000000000000D+00
269  2.6800000000000D+00  0.0000000000000D+00  0.0000000000000D+00
270  2.6900000000000D+00  0.0000000000000D+00  0.0000000000000D+00
271  2.7000000000000D+00  0.0000000000000D+00  0.0000000000000D+00
272  2.7100000000000D+00  0.0000000000000D+00  0.0000000000000D+00
273  2.7200000000000D+00  0.0000000000000D+00  0.0000000000000D+00
274  2.7300000000000D+00  0.0000000000000D+00  0.0000000000000D+00
275  2.7400000000000D+00  0.0000000000000D+00  0.0000000000000D+00
276  2.7500000000000D+00  0.0000000000000D+00  0.0000000000000D+00
277  2.7600000000000D+00  0.0000000000000D+00  0.0000000000000D+00
278  2.7700000000000D+00  0.0000000000000D+00  0.0000000000000D+00
279  2.7800000000000D+00  0.0000000000000D+00  0.0000000000000D+00
280  2.7900000000000D+00  0.0000000000000D+00  0.0000000000000D+00
281  2.8000000000000D+00  0.0000000000000D+00  0.0000000000000D+00
282  2.8100000000000D+00  0.0000000000000D+00  0.0000000000000D+00
283  2.8200000000000D+00  0.0000000000000D+00  0.0000000000000D+00
284  2.8300000000000D+00  0.0000000000000D+00  0.0000000000000D+00
285  2.8400000000000D+00  0.0000000000000D+00  0.0000000000000D+00
286  2.8500000000000D+00  0.0000000000000D+00  0.0000000000000D+00
287  2.8600000000000D+00  0.0000000000000D+00  0.0000000000000D+00
288  2.8700000000000D+00  0.0000000000000D+00  0.0000000000000D+00
289  2.8800000000000D+00  0.0000000000000D+00  0.0000000000000D+00
290  2.8900000000000D+00  0.0000000000000D+00  0.0000000000000D+00
291  2.9000000000000D+00  0.0000000000000D+00  0.0000000000000D+00
292  2.9100000000000D+00  0.0000000000000D+00  0.0000000000000D+00
293  2.9200000000000D+00  0.0000000000000D+00  0.0000000000000D+00
294  2.9300000000000D+00  0.0000000000000D+00  0.0000000000000D+00
295  2.9400000000000D+00  0.0000000000000D+00  0.0000000000000D+00
296  2.9500000000000D+00  0.0000000000000D+00  0.0000000000000D+00
297  2.9600000000000D+00  0.0000000000000D+00  0.0000000000000D+00
298  2.9700000000000D+00  0.0000000000000D+00  0.0000000000000D+00
299  2.9800000000000D+00  0.0000000000000D+00  0.0000000000000D+00
300  2.9900000000000D+00  0.0000000000000D+00  0.0000000000000D+00
301  3.0000000000000D+00  0.0000000000000D+00  0.0000000000000D+00
302  3.0100000000000D+00  0.0000000000000D+00  0.0000000000000D+00
303  3.0200000000000D+00  0.0000000000000D+00  0.0000000000000D+00
304  3.0300000000000D+00  0.0000000000000D+00  0.0000000000000D+00
305  3.0400000000000D+00  0.0000000000000D+00  0.0000000000000D+00
306  3.0500000000000D+00  0.0000000000000D+00  0.0000000000000D+00
307  3.0600000000000D+00  0.0000000000000D+00  0.0000000000000D+00
308  3.0700000000000D+00  0.0000000000000D+00  0.0000000000000D+00
309  3.0800000000000D+00  0.0000000000000D+00  0.0000000000000D+00
310  3.0900000000000D+00  0.0000000000000D+00  0.0000000000000D+00
311  3.1000000000000D+00  0.0000000000000D+00  0.0000000000000D+00
312  3.1100000000000D+00  0.0000000000000D+00  0.0000000000000D+00
313  3.1200000000000D+00  0.0000000000000D+00  0.0000000000000D+00
314  3.1300000000000D+00  0.0000000000000D+00  0.0000000000000D+00
315  3.1400000000000D+00  0.0000000000000D+00  0.0000000000000D+00
316  3.1500000000000D+00  0.0000000000000D+00  0.0000000000000D+00
317  3.1600000000000D+00  0.0000000000000D+00  0.0000000000000D+00
318  3.1700000000000D+00  0.0000000000000D+00  0.0000000000000D+00
319  3.1800000000000D+00  0.0000000000000D+00  0.0000000000000D+00
320  3.1900000000000D+00  0.0000000000000D+00  0.0000000000000D+00
321  3.2000000000000D+00  0.0000000000000D+00  0.0000000000000D+00
322  3.2100000000000D+00  0.0000000000000D+00  0.0000000000000D+00
323  3.2200000000000D+00  0.0000000000000D+00  0.0000000000000D+00
324  3.2300000000000D+00  0.0000000000000D+00  0.0000000000000D+00
325  3.2400000000000D+00  0.0000000000000D+00  0.0000000000000D+00
326  3.2500000000000D+00  0.0000000000000D+00  0.0000000000000D+00
327  3.2600000000000D+00  0.0000000000000D+00  0.0000000000000D+00
328  3.2700000000000D+00  0.0000000000000D+00  0.0000000000000D+00
329  3.2800000000000D+00  0.0000000000000D+00  0.0000000000000D+00
330  3.2900000000000D+00  0.0000000000000D+00  0.0000000000000D+00
331  3.3000000000000D+00  0.0000000000000D+00  0.0000000000000D+00
332  3.3100000000000D+00  0.0000000000000D+00  0.0000000000000D+00
333  3.3200000000000D+00  0.0000000000000D+00  0.0000000000000D+00
334  3.3300000000000D+00  0.0000000000000D+00  0.0000000000000D+00
335  3.3400000000000D+00  0.0000000000000D+00  0.0000000000000D+00
336  3.3500000000000D+00  0.0000000000000D+00  0.0000000000000D+00
337  3.3600000000000D+00  0.0000000000000D+00  0.0000000000000D+00
338  3.3700000000000D+00  0.0000000000000D+00  0.0000000000000D+00
339  3.3800000000000D+00  0.0000000000000D+00  0.0000000000000D+00
340  3.3900000000000D+00  0.0000000000000D+00  0.0000000000000D+00
341  3.4000000000000D+00  0.0000000000000D+00  0.0000000000000D+00
342  3.4100000000000D+00  0.0000000000000D+00  0.0000000000000D+00
343  3.4200000000000D+00  0.0000000000000D+00  0.0000000000000D+00
344  3.4300000000000D+00  0.0000000000000D+00  0.0000000000000D+00
345  3.4400000000000D+00  0.0000000000000D+00  0.0000000000000D+00
346  3.4500000000000D+00  0.0000000000000D+00  0.0000000000000D+00
347  3.4600000000000D+00  0.0000000000000D+00  0.0000000000000D+00
348  3.4700000000000D+00  0.0000000000000D+00  0.0000000000000D+00
349  3.4800000000000D+00  0.0000000000000D+00  0.0000000000000D+00
350  3.4900000000000D+00  0.0000000000000D+00  0.0000000000000D+00
351  3.5000000000000D+00  0.0000000000000D+00  0.0000000000000D+00
352  3.5100000000000D+00  0.0000000000000D+00  0.0000000000000D+00
353  3.5200000000000D+00  0.0000000000000D+00  0.0000000000000D+00
354  3.5300000000000D+00  0.0000000000000D+00  0.0000000000000D+00
355  3.5400000000000D+00  0.0000000000000D+00  0.0000000000000D+00
356  3.5500000000000D+00  0.0000000000000D+00  0.0000000000000D+00
357  3.5600000000000D+00  0.0000000000000D+00  0.0000000000000D+00
358  3.5700000000000D+00  0.0000000000000D+00  0.0000000000000D+00
359  3.5800000000000D+00  0.0000000000000D+00  0.0000000000000D+00
360  3.5900000000000D+00  0.0000000000000D+00  0.0000000000000D+00
361  3.6000000000000D+00  0.0000000000000D+00  0.0000000000000D+00
362  3.6100000000000D+00  0.0000000000000D+00  0.0000000000000D+00
363  3.6200000000000D+00  0.0000000000000D+00  0.0000000000000D+00
364  3.6300000000000D+00  0.0000000000000D+00  0.0000000000000D+00
365  3.6400000000000D+00  0.0000000000000D+00  0.0000000000000D+00
366  3.6500000000000D+00  0.0000000000000D+00  0.0000000000000D+00
367  3.6600000000000D+00  0.0000000000000D+00  0.0000000000000D+00
368  3.6700000000000D+00  0.0000000000000D+00  0.0000000000000D+00
369  3.6800000000000D+00  0.0000000000000D+00  0.0000000000000D+00
370  3.6900000000000D+00  0.0000000000000D+00  0.0000000000000D+00
371  3.7000000000000D+00  0.0000000000000D+00  0.0000000000000D+00
372  3.7100000000000D+00  0.0000000000000D+00  0.0000000000000D+00
373  3.7200000000000D+00  0.0000000000000D+00  0.0000000000000D+00
374  3.7300000000000D+00  0.0000000000000D+00  0.0000000000000D+00
375  3.7400000000000D+00  0.0000000000000D+00  0.0000000000000D+00
376  3.7500000000000D+00  0.0000000000000D+00  0.0000000000000D+00
377  3.7600000000000D+00  0.0000000000000D+00  0.0000000000000D+00
378  3.7700000000000D+00  0.0000000000000D+00  0.0000000000000D+00
379  3.7800000000000D+00  0.0000000000000D+00  0.0000000000000D+00
380  3.7900000000000D+00  0.0000000000000D+00  0.0000000000000D+00
381  3.8000000000000D+00  0.0000000000000D+00  0.0000000000000D+00
382  3.8100000000000D+00  0.0000000000000D+00  0.0000000000000D+00
383  3.8200000000000D+00  0.0000000000000D+00  0.0000000000000D+00
384  3.8300000000000D+00  0.0000000000000D+00  0.0000000000000D+00
385  3.8400000000000D+00  0.0000000000000D+00  0.0000000000000D+00
386  3.8500000000000D+00  0.0000000000000D+00  0.0000000000000D+00
387  3.8600000000000D+00  0.0000000000000D+00  0.0000000000000D+00
388  3.8700000000000D+00  0.0000000000000D+00  0.0000000000000D+00
389  3.8800000000000D+00  0.0000000000000D+00  0.0000000000000D+00
390  3.8900000000000D+00  0.0000000000000D+00  0.0000000000000D+00
391  3.9000000000000D+00  0.0000000000000D+00  0.0000000000000D+00
392  3.9100000000000D+00  0.0000000000000D+00  0.0000000000000D+00
393  3.9200000000000D+00  0.0000000000000D+00  0.0000000000000D+00
394  3.9300000000000D+00  0.0000000000000D+00  0.0000000000000D+00
395  3.9400000000000D+00  0.0000000000000D+00  0.0000000000000D+00
396  3.9500000000000D+00  0.0000000000000D+00  0.0000000000000D+00
397  3.9600000000000D+00  0.0000000000000D+00  0.0000000000000D+00
398  3.9700000000000D+00  0.0000000000000D+00  0.0000000000000D+00
399  3.9800000000000D+00  0.0000000000000D+00  0.0000000000000D+00
400  3.9900000000000D+00  0.0000000000000D+00  0.0000000000000D+00
401  4.0000000000000D+00  0.0000000000000D+00  0.0000000000000D+00
402  4.0100000000000D+00  0.0000000000000D+00  0.0000000000000D+00
403  4.0200000000000D+00  0.0000000000000D+00  0.0000000000000D+00
404  4.0300000000000D+00  0.0000000000000D+00  0.0000000000000D+00
405  4.0400000000000D+00  0.0000000000000D+00  0.0000000000000D+00
406  4.0500000000000D+00  0.0000000000000D+00  0.0000000000000D+00
407  4.0600000000000D+00  0.0000000000000D+00  0.0000000000000D+00
408  4.0700000000000D+00  0.0000000000000D+00  0.0000000000000D+00
409  4.0800000000000D+00  0.0000000000000D+00  0.0000000000000D+00
410  4.0900000000000D+00  0.0000000000000D+00  0.0000000000000D+00
411  4.1000000000000D+00  0.0000000000000D+00  0.0000000000000D+00
412  4.1100000000000D+00  0.0000000000000D+00  0.0000000000000D+00
413  4.1200000000000D+00  0.0000000000000D+00  0.0000000000000D+00
414  4.1300000000000D+00  0.0000000000000D+00  0.0000000000000D+00
415  4.1400000000000D+00  0.0000000000000D+00  0.0000000000000D+00
416  4.1500000000000D+00  0.0000000000000D+00  0.0000000000000D+00
417  4.1600000000000D+00  0.0000000000000D+00  0.0000000000000D+00
418  4.1700000000000D+00  0.0000000000000D+00  0.0000000000000D+00
419  4.1800000000000D+00  0.0000000000000D+00  0.0000000000000D+00
420  4.1900000000000D+00  0.0000000000000D+00  0.0000000000000D+00
421  4.2000000000000D+00  0.0000000000000D+00  0.0000000000000D+00
422  4.2100000000000D+00  0.0000000000000D+00  0.0000000000000D+00
423  4.2200000000000D+00  0.0000000000000D+00  0.0000000000000D+00
424  4.2300000000000D+00  0.0000000000000D+00  0.0000000000000D+00
425  4.2400000000000D+00  0.0000000000000D+00  0.0000000000000D+00
426  4.2500000000000D+00  0.0000000000000D+00  0.0000000000000D+00
427  4.2600000000000D+00  0.0000000000000D+00  0.0000000000000D+00
428  4.2700000000000D+00  0.0000000000000D+00  0.0000000000000D+00
429  4.2800000000000D+00  0.0000000000000D+00  0.0000000000000D+00
430  4.2900000000000D+00  0.0000000000000D+00  0.0000000000000D+00
431  4.3000000000000D+00  0.0000000000000D+00  0.0000000000000D+00
432  4.3100000000000D+00  0.0000000000000D+00  0.0000000000000D+00
433  4.3200000000000D+00  0.0000000000000D+00  0.0000000000000D+00
434  4.3300000000000D+00  0.0000000000000D+00  0.0000000000000D+00
435  4.3400000000000D+00  0.0000000000000D+00  0.0000000000000D+00
436  4.3500000000000D+00  0.0000000000000D+00  0.0000000000000D+00
437  4.3600000000000D+00  0.0000000000000D+00  0.0000000000000D+00
438  4.3700000000000D+00  0.0000000000000D+00  0.0000000000000D+00
439  4.3800000000000D+00  0.0000000000000D+00  0.0000000000000D+00
440  4.3900000000000D+00  0.0000000000000D+00  0.0000000000000D+00
441  4.4000000000000D+00  0.0000000000000D+00  0.0000000000000D+00
442  4.4100000000000D+00  0.0000000000000D+00  0.0000000000000D+00
443  4.4200000000000D+00  0.0000000000000D+00  0.0000000000000D+00