Cr    ONCVPSP-3.2.3.1  r_core=   1.30591   1.30591   1.71817
24.0000     14.0000      170429    zatom,zion,pspd
8      11   2     4   600     0    pspcod,pspxc,lmax,lloc,mmax,r2well
5.99000000  5.00000000  0.00000000    rchrg fchrg qchrg
2     2     2     0     0    nproj
1     1           extension_switch
0                         6.3041269343382D+00 -1.3183333588170D+00
1  0.0000000000000D+00  1.6214063425224D-09  1.4554102367725D-08
2  1.0000000000000D-02  7.3095054349855D-02 -9.4826374604230D-02
3  2.0000000000000D-02  1.4608054707843D-01 -1.8873562372262D-01
4  3.0000000000000D-02  2.1884615949540D-01 -2.8082322136662D-01
5  4.0000000000000D-02  2.9128008073907D-01 -3.7020962731324D-01
6  5.0000000000000D-02  3.6326831618336D-01 -4.5605225072108D-01
7  6.0000000000000D-02  4.3469406005584D-01 -5.3755678921540D-01
8  7.0000000000000D-02  5.0543715172629D-01 -6.1398775271180D-01
9  8.0000000000000D-02  5.7537363350370D-01 -6.8467799580219D-01
10  9.0000000000000D-02  6.4437542580863D-01 -7.4903710022833D-01
11  1.0000000000000D-01  7.1231013330143D-01 -8.0655846950019D-01
12  1.1000000000000D-01  7.7904099298835D-01 -8.5682502071558D-01
13  1.2000000000000D-01  8.4442697254080D-01 -8.9951338369122D-01
14  1.3000000000000D-01  9.0832302410087D-01 -9.3439654417800D-01
15  1.4000000000000D-01  9.7058049575997D-01 -9.6134489572736D-01
16  1.5000000000000D-01  1.0310476997452D+00 -9.8032569320430D-01
17  1.6000000000000D-01  1.0895706331859D+00 -9.9140092949531D-01
18  1.7000000000000D-01  1.1459938442192D+00 -9.9472368512447D-01
19  1.8000000000000D-01  1.2001614331857D+00 -9.9053302776022D-01
20  1.9000000000000D-01  1.2519181758179D+00 -9.7914756447675D-01
21  2.0000000000000D-01  1.3011107526939D+00 -9.6095777365955D-01
22  2.1000000000000D-01  1.3475890668556D+00 -9.3641726517684D-01
23  2.2000000000000D-01  1.3912076294302D+00 -9.0603313648095D-01
24  2.3000000000000D-01  1.4318269913816D+00 -8.7035560830586D-01
25  2.4000000000000D-01  1.4693151981793D+00 -8.2996713629288D-01
26  2.5000000000000D-01  1.5035492432536D+00 -7.8547120396740D-01
27  2.6000000000000D-01  1.5344164956030D+00 -7.3748100783073D-01
28  2.7000000000000D-01  1.5618160768628D+00 -6.8660824681647D-01
29  2.8000000000000D-01  1.5856601635331D+00 -6.3345222594760D-01
30  2.9000000000000D-01  1.6058751908866D+00 -5.7858947775275D-01
31  3.0000000000000D-01  1.6224029363377D+00 -5.2256409495714D-01
32  3.1000000000000D-01  1.6352014617189D+00 -4.6587895432214D-01
33  3.2000000000000D-01  1.6442458959640D+00 -4.0898799450462D-01
34  3.3000000000000D-01  1.6495290420969D+00 -3.5228969073710D-01
35  3.4000000000000D-01  1.6510617951412D+00 -2.9612184634464D-01
36  3.5000000000000D-01  1.6488733605390D+00 -2.4075779602064D-01
37  3.6000000000000D-01  1.6430112658636D+00 -1.8640408882510D-01
38  3.7000000000000D-01  1.6335411619578D+00 -1.3319969053463D-01
39  3.8000000000000D-01  1.6205464130858D+00 -8.1216715768032D-02
40  3.9000000000000D-01  1.6041274791759D+00 -3.0462670775859D-02
41  4.0000000000000D-01  1.5844010967068D+00  1.9115841554133D-02
42  4.1000000000000D-01  1.5614992681783D+00  6.7628031511688D-02
43  4.2000000000000D-01  1.5355680733556D+00  1.1523255154869D-01
44  4.3000000000000D-01  1.5067663185205D+00  1.6212997430947D-01
45  4.4000000000000D-01  1.4752640427545D+00  2.0855427283952D-01
46  4.5000000000000D-01  1.4412409027555D+00  2.5476347664586D-01
47  4.6000000000000D-01  1.4048844598215D+00  3.0102969470932D-01
48  4.7000000000000D-01  1.3663883943612D+00  3.4762871051359D-01
49  4.8000000000000D-01  1.3259506746005D+00  3.9482936437343D-01
50  4.9000000000000D-01  1.2837717070009D+00  4.4288294459404D-01
51  5.0000000000000D-01  1.2400524962829D+00  4.9201281112332D-01
52  5.1000000000000D-01  1.1949928428437D+00  5.4240447329214D-01
53  5.2000000000000D-01  1.1487896047687D+00  5.9419633697711D-01
54  5.3000000000000D-01  1.1016350505655D+00  6.4747132612639D-01
55  5.4000000000000D-01  1.0537153272269D+00  7.0224956923438D-01
56  5.5000000000000D-01  1.0052090662557D+00  7.5848232324528D-01
57  5.6000000000000D-01  9.5628614791470D-01  8.1604728577181D-01
58  5.7000000000000D-01  9.0710664122652D-01  8.7474542191376D-01
59  5.8000000000000D-01  8.5781993418111D-01  9.3429940452596D-01
60  5.9000000000000D-01  8.0856406529055D-01  9.9435373737100D-01
61  6.0000000000000D-01  7.5946526407483D-01  1.0544765992055D+00
62  6.1000000000000D-01  7.1063770439143D-01  1.1141634146557D+00
63  6.2000000000000D-01  6.6218347072862D-01  1.1728421246569D+00
64  6.3000000000000D-01  6.1419273380305D-01  1.2298800964706D+00
65  6.4000000000000D-01  5.6674412805645D-01  1.2845925810256D+00
66  6.5000000000000D-01  5.1990532001371D-01  1.3362525942807D+00
67  6.6000000000000D-01  4.7373375303510D-01  1.3841020702422D+00
68  6.7000000000000D-01  4.2827755078861D-01  1.4273641063850D+00
69  6.8000000000000D-01  3.8357655887982D-01  1.4652560983527D+00
70  6.9000000000000D-01  3.3966350154600D-01  1.4970035402813D+00
71  7.0000000000000D-01  2.9656522819868D-01  1.5218542503552D+00
72  7.1000000000000D-01  2.5430402291668D-01  1.5390927685316D+00
73  7.2000000000000D-01  2.1289894880444D-01  1.5480546652127D+00
74  7.3000000000000D-01  1.7236719844279D-01  1.5481404960553D+00
75  7.4000000000000D-01  1.3272542149782D-01  1.5388291392701D+00
76  7.5000000000000D-01  9.3991000921386D-02  1.5196902577103D+00
77  7.6000000000000D-01  5.6183250077090D-02  1.4903956387837D+00
78  7.7000000000000D-01  1.9324504538595D-02  1.4507291805161D+00
79  7.8000000000000D-01 -1.6558915782821D-02  1.4005953118282D+00
80  7.9000000000000D-01 -5.1435896149901D-02  1.3400256589112D+00
81  8.0000000000000D-01 -8.5269887318152D-02  1.2691837971474D+00
82  8.1000000000000D-01 -1.1801845265052D-01  1.1883679588746D+00
83  8.2000000000000D-01 -1.4963301451301D-01  1.0980116009213D+00
84  8.3000000000000D-01 -1.8005880866891D-01  9.9868177169201D-01
85  8.4000000000000D-01 -2.0923505142262D-01  8.9107525504786D-01
86  8.5000000000000D-01 -2.3709532017243D-01  7.7601250663355D-01
87  8.6000000000000D-01 -2.6356814388228D-01  6.5442943702674D-01
88  8.7000000000000D-01 -2.8857779584895D-01  5.2736713445295D-01
89  8.8000000000000D-01 -3.1204527711608D-01  3.9595965698439D-01
90  8.9000000000000D-01 -3.3388947501053D-01  2.6142005973838D-01
91  9.0000000000000D-01 -3.5402847765603D-01  1.2502485566983D-01
92  9.1000000000000D-01 -3.7238102199835D-01 -1.1902861315994D-02
93  9.2000000000000D-01 -3.8886804992976D-01 -1.4801137565848D-01
94  9.3000000000000D-01 -4.0341434457981D-01 -2.8193911410322D-01
95  9.4000000000000D-01 -4.1595021679792D-01 -4.1233391864554D-01
96  9.5000000000000D-01 -4.2641321032954D-01 -5.3787251971646D-01
97  9.6000000000000D-01 -4.3474979321699D-01 -6.5727989299205D-01
98  9.7000000000000D-01 -4.4091700255952D-01 -7.6934818070041D-01
99  9.8000000000000D-01 -4.4488400995545D-01 -8.7295486122709D-01
100  9.9000000000000D-01 -4.4663357574944D-01 -9.6707985944203D-01
101  1.0000000000000D+00 -4.4616336155892D-01 -1.0508213038644D+00
102  1.0100000000000D+00 -4.4348707246194D-01 -1.1234096556316D+00
103  1.0200000000000D+00 -4.3863540275461D-01 -1.1842199587997D+00
104  1.0300000000000D+00 -4.3165676210291D-01 -1.2327819895904D+00
105  1.0400000000000D+00 -4.2261776233455D-01 -1.2687881149420D+00
106  1.0500000000000D+00 -4.1160344900086D-01 -1.2920987076949D+00
107  1.0600000000000D+00 -3.9871726588023D-01 -1.3027450040690D+00
108  1.0700000000000D+00 -3.8408074496431D-01 -1.3009293304146D+00
109  1.0800000000000D+00 -3.6783291927944D-01 -1.2870226715753D+00
110  1.0900000000000D+00 -3.5012946034293D-01 -1.2615595950470D+00
111  1.1000000000000D+00 -3.3114154709580D-01 -1.2252305924634D+00
112  1.1100000000000D+00 -3.1105447732437D-01 -1.1788719390575D+00
113  1.1200000000000D+00 -2.9006603759701D-01 -1.1234532187035D+00
114  1.1300000000000D+00 -2.6838465191044D-01 -1.0600627011171D+00
115  1.1400000000000D+00 -2.4622733331423D-01 -9.8989079586024D-01
116  1.1500000000000D+00 -2.2381746616981D-01 -9.1421183941771D-01
117  1.1600000000000D+00 -2.0138245020106D-01 -8.3436450427692D-01
118  1.1700000000000D+00 -1.7915124032775D-01 -7.5173114534344D-01
119  1.1800000000000D+00 -1.5735181823320D-01 -6.6771641729114D-01
120  1.1900000000000D+00 -1.3620863310177D-01 -5.8372551026705D-01
121  1.2000000000000D+00 -1.1594005050580D-01 -5.0114236574548D-01
122  1.2100000000000D+00 -9.6755848297347D-02 -4.2130823317547D-01
123  1.2200000000000D+00 -7.8854797976493D-02 -3.4550092452528D-01
124  1.2300000000000D+00 -6.2422369903182D-02 -2.7491512285703D-01
125  1.2400000000000D+00 -4.7628598311189D-02 -2.1064407872317D-01
126  1.2500000000000D+00 -3.4626139400819D-02 -1.5366300331111D-01
127  1.2600000000000D+00 -2.3548555632540D-02 -1.0481446582321D-01
128  1.2700000000000D+00 -1.4514331805576D-02 -6.4820903455722D-02
129  1.2800000000000D+00 -7.5696689445629D-03 -3.4017214365997D-02
130  1.2900000000000D+00 -2.8811051465298D-03 -1.3237851754885D-02
131  1.3000000000000D+00 -5.5083173428108D-04 -2.9745046593640D-03
132  1.3100000000000D+00  1.0823176759322D-04  9.6512373304388D-05
133  1.3200000000000D+00  2.7128080800185D-05  7.7168456393011D-05
134  1.3300000000000D+00 -3.8995637086011D-05 -1.2207692967017D-04
135  1.3400000000000D+00  3.8723762867268D-06  1.0412089852459D-05
136  1.3500000000000D+00  4.3119394686189D-06  1.2223009750471D-05
137  1.3600000000000D+00  5.7891837334358D-08  1.6291944789483D-06
138  1.3700000000000D+00  0.0000000000000D+00  0.0000000000000D+00
139  1.3800000000000D+00  0.0000000000000D+00  0.0000000000000D+00
140  1.3900000000000D+00  0.0000000000000D+00  0.0000000000000D+00
141  1.4000000000000D+00  0.0000000000000D+00  0.0000000000000D+00
142  1.4100000000000D+00  0.0000000000000D+00  0.0000000000000D+00
143  1.4200000000000D+00  0.0000000000000D+00  0.0000000000000D+00
144  1.4300000000000D+00  0.0000000000000D+00  0.0000000000000D+00
145  1.4400000000000D+00  0.0000000000000D+00  0.0000000000000D+00
146  1.4500000000000D+00  0.0000000000000D+00  0.0000000000000D+00
147  1.4600000000000D+00  0.0000000000000D+00  0.0000000000000D+00
148  1.4700000000000D+00  0.0000000000000D+00  0.0000000000000D+00
149  1.4800000000000D+00  0.0000000000000D+00  0.0000000000000D+00
150  1.4900000000000D+00  0.0000000000000D+00  0.0000000000000D+00
151  1.5000000000000D+00  0.0000000000000D+00  0.0000000000000D+00
152  1.5100000000000D+00  0.0000000000000D+00  0.0000000000000D+00
153  1.5200000000000D+00  0.0000000000000D+00  0.0000000000000D+00
154  1.5300000000000D+00  0.0000000000000D+00  0.0000000000000D+00
155  1.5400000000000D+00  0.0000000000000D+00  0.0000000000000D+00
156  1.5500000000000D+00  0.0000000000000D+00  0.0000000000000D+00
157  1.5600000000000D+00  0.0000000000000D+00  0.0000000000000D+00
158  1.5700000000000D+00  0.0000000000000D+00  0.0000000000000D+00
159  1.5800000000000D+00  0.0000000000000D+00  0.0000000000000D+00
160  1.5900000000000D+00  0.0000000000000D+00  0.0000000000000D+00
161  1.6000000000000D+00  0.0000000000000D+00  0.0000000000000D+00
162  1.6100000000000D+00  0.0000000000000D+00  0.0000000000000D+00
163  1.6200000000000D+00  0.0000000000000D+00  0.0000000000000D+00
164  1.6300000000000D+00  0.0000000000000D+00  0.0000000000000D+00
165  1.6400000000000D+00  0.0000000000000D+00  0.0000000000000D+00
166  1.6500000000000D+00  0.0000000000000D+00  0.0000000000000D+00
167  1.6600000000000D+00  0.0000000000000D+00  0.0000000000000D+00
168  1.6700000000000D+00  0.0000000000000D+00  0.0000000000000D+00
169  1.6800000000000D+00  0.0000000000000D+00  0.0000000000000D+00
170  1.6900000000000D+00  0.0000000000000D+00  0.0000000000000D+00
171  1.7000000000000D+00  0.0000000000000D+00  0.0000000000000D+00
172  1.7100000000000D+00  0.0000000000000D+00  0.0000000000000D+00
173  1.7200000000000D+00  0.0000000000000D+00  0.0000000000000D+00
174  1.7300000000000D+00  0.0000000000000D+00  0.0000000000000D+00
175  1.7400000000000D+00  0.0000000000000D+00  0.0000000000000D+00
176  1.7500000000000D+00  0.0000000000000D+00  0.0000000000000D+00
177  1.7600000000000D+00  0.0000000000000D+00  0.0000000000000D+00
178  1.7700000000000D+00  0.0000000000000D+00  0.0000000000000D+00
179  1.7800000000000D+00  0.0000000000000D+00  0.0000000000000D+00
180  1.7900000000000D+00  0.0000000000000D+00  0.0000000000000D+00
181  1.8000000000000D+00  0.0000000000000D+00  0.0000000000000D+00
182  1.8100000000000D+00  0.0000000000000D+00  0.0000000000000D+00
183  1.8200000000000D+00  0.0000000000000D+00  0.0000000000000D+00
184  1.8300000000000D+00  0.0000000000000D+00  0.0000000000000D+00
185  1.8400000000000D+00  0.0000000000000D+00  0.0000000000000D+00
186  1.8500000000000D+00  0.0000000000000D+00  0.0000000000000D+00
187  1.8600000000000D+00  0.0000000000000D+00  0.0000000000000D+00
188  1.8700000000000D+00  0.0000000000000D+00  0.0000000000000D+00
189  1.8800000000000D+00  0.0000000000000D+00  0.0000000000000D+00
190  1.8900000000000D+00  0.0000000000000D+00  0.0000000000000D+00
191  1.9000000000000D+00  0.0000000000000D+00  0.0000000000000D+00
192  1.9100000000000D+00  0.0000000000000D+00  0.0000000000000D+00
193  1.9200000000000D+00  0.0000000000000D+00  0.0000000000000D+00
194  1.9300000000000D+00  0.0000000000000D+00  0.0000000000000D+00
195  1.9400000000000D+00  0.0000000000000D+00  0.0000000000000D+00
196  1.9500000000000D+00  0.0000000000000D+00  0.0000000000000D+00
197  1.9600000000000D+00  0.0000000000000D+00  0.0000000000000D+00
198  1.9700000000000D+00  0.0000000000000D+00  0.0000000000000D+00
199  1.9800000000000D+00  0.0000000000000D+00  0.0000000000000D+00
200  1.9900000000000D+00  0.0000000000000D+00  0.0000000000000D+00
201  2.0000000000000D+00  0.0000000000000D+00  0.0000000000000D+00
202  2.0100000000000D+00  0.0000000000000D+00  0.0000000000000D+00
203  2.0200000000000D+00  0.0000000000000D+00  0.0000000000000D+00
204  2.0300000000000D+00  0.0000000000000D+00  0.0000000000000D+00
205  2.0400000000000D+00  0.0000000000000D+00  0.0000000000000D+00
206  2.0500000000000D+00  0.0000000000000D+00  0.0000000000000D+00
207  2.0600000000000D+00  0.0000000000000D+00  0.0000000000000D+00
208  2.0700000000000D+00  0.0000000000000D+00  0.0000000000000D+00
209  2.0800000000000D+00  0.0000000000000D+00  0.0000000000000D+00
210  2.0900000000000D+00  0.0000000000000D+00  0.0000000000000D+00
211  2.1000000000000D+00  0.0000000000000D+00  0.0000000000000D+00
212  2.1100000000000D+00  0.0000000000000D+00  0.0000000000000D+00
213  2.1200000000000D+00  0.0000000000000D+00  0.0000000000000D+00
214  2.1300000000000D+00  0.0000000000000D+00  0.0000000000000D+00
215  2.1400000000000D+00  0.0000000000000D+00  0.0000000000000D+00
216  2.1500000000000D+00  0.0000000000000D+00  0.0000000000000D+00
217  2.1600000000000D+00  0.0000000000000D+00  0.0000000000000D+00
218  2.1700000000000D+00  0.0000000000000D+00  0.0000000000000D+00
219  2.1800000000000D+00  0.0000000000000D+00  0.0000000000000D+00
220  2.1900000000000D+00  0.0000000000000D+00  0.0000000000000D+00
221  2.2000000000000D+00  0.0000000000000D+00  0.0000000000000D+00
222  2.2100000000000D+00  0.0000000000000D+00  0.0000000000000D+00
223  2.2200000000000D+00  0.0000000000000D+00  0.0000000000000D+00
224  2.2300000000000D+00  0.0000000000000D+00  0.0000000000000D+00
225  2.2400000000000D+00  0.0000000000000D+00  0.0000000000000D+00
226  2.2500000000000D+00  0.0000000000000D+00  0.0000000000000D+00
227  2.2600000000000D+00  0.0000000000000D+00  0.0000000000000D+00
228  2.2700000000000D+00  0.0000000000000D+00  0.0000000000000D+00
229  2.2800000000000D+00  0.0000000000000D+00  0.0000000000000D+00
230  2.2900000000000D+00  0.0000000000000D+00  0.0000000000000D+00
231  2.3000000000000D+00  0.0000000000000D+00  0.0000000000000D+00
232  2.3100000000000D+00  0.0000000000000D+00  0.0000000000000D+00
233  2.3200000000000D+00  0.0000000000000D+00  0.0000000000000D+00
234  2.3300000000000D+00  0.0000000000000D+00  0.0000000000000D+00
235  2.3400000000000D+00  0.0000000000000D+00  0.0000000000000D+00
236  2.3500000000000D+00  0.0000000000000D+00  0.0000000000000D+00
237  2.3600000000000D+00  0.0000000000000D+00  0.0000000000000D+00
238  2.3700000000000D+00  0.0000000000000D+00  0.0000000000000D+00
239  2.3800000000000D+00  0.0000000000000D+00  0.0000000000000D+00
240  2.3900000000000D+00  0.0000000000000D+00  0.0000000000000D+00
241  2.4000000000000D+00  0.0000000000000D+00  0.0000000000000D+00
242  2.4100000000000D+00  0.0000000000000D+00  0.0000000000000D+00
243  2.4200000000000D+00  0.0000000000000D+00  0.0000000000000D+00
244  2.4300000000000D+00  0.0000000000000D+00  0.0000000000000D+00
245  2.4400000000000D+00  0.0000000000000D+00  0.0000000000000D+00
246  2.4500000000000D+00  0.0000000000000D+00  0.0000000000000D+00
247  2.4600000000000D+00  0.0000000000000D+00  0.0000000000000D+00
248  2.4700000000000D+00  0.0000000000000D+00  0.0000000000000D+00
249  2.4800000000000D+00  0.0000000000000D+00  0.0000000000000D+00
250  2.4900000000000D+00  0.0000000000000D+00  0.0000000000000D+00
251  2.5000000000000D+00  0.0000000000000D+00  0.0000000000000D+00
252  2.5100000000000D+00  0.0000000000000D+00  0.0000000000000D+00
253  2.5200000000000D+00  0.0000000000000D+00  0.0000000000000D+00
254  2.5300000000000D+00  0.0000000000000D+00  0.0000000000000D+00
255  2.5400000000000D+00  0.0000000000000D+00  0.0000000000000D+00
256  2.5500000000000D+00  0.0000000000000D+00  0.0000000000000D+00
257  2.5600000000000D+00  0.0000000000000D+00  0.0000000000000D+00
258  2.5700000000000D+00  0.0000000000000D+00  0.0000000000000D+00
259  2.5800000000000D+00  0.0000000000000D+00  0.0000000000000D+00
260  2.5900000000000D+00  0.0000000000000D+00  0.0000000000000D+00
261  2.6000000000000D+00  0.0000000000000D+00  0.0000000000000D+00
262  2.6100000000000D+00  0.0000000000000D+00  0.0000000000000D+00
263  2.6200000000000D+00  0.0000000000000D+00  0.0000000000000D+00
264  2.6300000000000D+00  0.0000000000000D+00  0.0000000000000D+00
265  2.6400000000000D+00  0.0000000000000D+00  0.0000000000000D+00
266  2.6500000000000D+00  0.0000000000000D+00  0.0000000000000D+00
267  2.6600000000000D+00  0.0000000000000D+00  0.0000000000000D+00
268  2.6700000000000D+00  0.0000000000000D+00  0.0000000000000D+00
269  2.6800000000000D+00  0.0000000000000D+00  0.0000000000000D+00
270  2.6900000000000D+00  0.0000000000000D+00  0.0000000000000D+00
271  2.7000000000000D+00  0.0000000000000D+00  0.0000000000000D+00
272  2.7100000000000D+00  0.0000000000000D+00  0.0000000000000D+00
273  2.7200000000000D+00  0.0000000000000D+00  0.0000000000000D+00
274  2.7300000000000D+00  0.0000000000000D+00  0.0000000000000D+00
275  2.7400000000000D+00  0.0000000000000D+00  0.0000000000000D+00
276  2.7500000000000D+00  0.0000000000000D+00  0.0000000000000D+00
277  2.7600000000000D+00  0.0000000000000D+00  0.0000000000000D+00
278  2.7700000000000D+00  0.0000000000000D+00  0.0000000000000D+00
279  2.7800000000000D+00  0.0000000000000D+00  0.0000000000000D+00
280  2.7900000000000D+00  0.0000000000000D+00  0.0000000000000D+00
281  2.8000000000000D+00  0.0000000000000D+00  0.0000000000000D+00
282  2.8100000000000D+00  0.0000000000000D+00  0.0000000000000D+00
283  2.8200000000000D+00  0.0000000000000D+00  0.0000000000000D+00
284  2.8300000000000D+00  0.0000000000000D+00  0.0000000000000D+00
285  2.8400000000000D+00  0.0000000000000D+00  0.0000000000000D+00
286  2.8500000000000D+00  0.0000000000000D+00  0.0000000000000D+00
287  2.8600000000000D+00  0.0000000000000D+00  0.0000000000000D+00
288  2.8700000000000D+00  0.0000000000000D+00  0.0000000000000D+00
289  2.8800000000000D+00  0.0000000000000D+00  0.0000000000000D+00
290  2.8900000000000D+00  0.0000000000000D+00  0.0000000000000D+00
291  2.9000000000000D+00  0.0000000000000D+00  0.0000000000000D+00
292  2.9100000000000D+00  0.0000000000000D+00  0.0000000000000D+00
293  2.9200000000000D+00  0.0000000000000D+00  0.0000000000000D+00
294  2.9300000000000D+00  0.0000000000000D+00  0.0000000000000D+00
295  2.9400000000000D+00  0.0000000000000D+00  0.0000000000000D+00
296  2.9500000000000D+00  0.0000000000000D+00  0.0000000000000D+00
297  2.9600000000000D+00  0.0000000000000D+00  0.0000000000000D+00
298  2.9700000000000D+00  0.0000000000000D+00  0.0000000000000D+00
299  2.9800000000000D+00  0.0000000000000D+00  0.0000000000000D+00
300  2.9900000000000D+00  0.0000000000000D+00  0.0000000000000D+00
301  3.0000000000000D+00  0.0000000000000D+00  0.0000000000000D+00
302  3.0100000000000D+00  0.0000000000000D+00  0.0000000000000D+00
303  3.0200000000000D+00  0.0000000000000D+00  0.0000000000000D+00
304  3.0300000000000D+00  0.0000000000000D+00  0.0000000000000D+00
305  3.0400000000000D+00  0.0000000000000D+00  0.0000000000000D+00
306  3.0500000000000D+00  0.0000000000000D+00  0.0000000000000D+00
307  3.0600000000000D+00  0.0000000000000D+00  0.0000000000000D+00
308  3.0700000000000D+00  0.0000000000000D+00  0.0000000000000D+00
309  3.0800000000000D+00  0.0000000000000D+00  0.0000000000000D+00
310  3.0900000000000D+00  0.0000000000000D+00  0.0000000000000D+00
311  3.1000000000000D+00  0.0000000000000D+00  0.0000000000000D+00
312  3.1100000000000D+00  0.0000000000000D+00  0.0000000000000D+00
313  3.1200000000000D+00  0.0000000000000D+00  0.0000000000000D+00
314  3.1300000000000D+00  0.0000000000000D+00  0.0000000000000D+00
315  3.1400000000000D+00  0.0000000000000D+00  0.0000000000000D+00
316  3.1500000000000D+00  0.0000000000000D+00  0.0000000000000D+00
317  3.1600000000000D+00  0.0000000000000D+00  0.0000000000000D+00
318  3.1700000000000D+00  0.0000000000000D+00  0.0000000000000D+00
319  3.1800000000000D+00  0.0000000000000D+00  0.0000000000000D+00
320  3.1900000000000D+00  0.0000000000000D+00  0.0000000000000D+00
321  3.2000000000000D+00  0.0000000000000D+00  0.0000000000000D+00
322  3.2100000000000D+00  0.0000000000000D+00  0.0000000000000D+00
323  3.2200000000000D+00  0.0000000000000D+00  0.0000000000000D+00
324  3.2300000000000D+00  0.0000000000000D+00  0.0000000000000D+00
325  3.2400000000000D+00  0.0000000000000D+00  0.0000000000000D+00
326  3.2500000000000D+00  0.0000000000000D+00  0.0000000000000D+00
327  3.2600000000000D+00  0.0000000000000D+00  0.0000000000000D+00
328  3.2700000000000D+00  0.0000000000000D+00  0.0000000000000D+00
329  3.2800000000000D+00  0.0000000000000D+00  0.0000000000000D+00
330  3.2900000000000D+00  0.0000000000000D+00  0.0000000000000D+00
331  3.3000000000000D+00  0.0000000000000D+00  0.0000000000000D+00
332  3.3100000000000D+00  0.0000000000000D+00  0.0000000000000D+00
333  3.3200000000000D+00  0.0000000000000D+00  0.0000000000000D+00
334  3.3300000000000D+00  0.0000000000000D+00  0.0000000000000D+00
335  3.3400000000000D+00  0.0000000000000D+00  0.0000000000000D+00
336  3.3500000000000D+00  0.0000000000000D+00  0.0000000000000D+00
337  3.3600000000000D+00  0.0000000000000D+00  0.0000000000000D+00
338  3.3700000000000D+00  0.0000000000000D+00  0.0000000000000D+00
339  3.3800000000000D+00  0.0000000000000D+00  0.0000000000000D+00
340  3.3900000000000D+00  0.0000000000000D+00  0.0000000000000D+00
341  3.4000000000000D+00  0.0000000000000D+00  0.0000000000000D+00
342  3.4100000000000D+00  0.0000000000000D+00  0.0000000000000D+00
343  3.4200000000000D+00  0.0000000000000D+00  0.0000000000000D+00
344  3.4300000000000D+00  0.0000000000000D+00  0.0000000000000D+00
345  3.4400000000000D+00  0.0000000000000D+00  0.0000000000000D+00
346  3.4500000000000D+00  0.0000000000000D+00  0.0000000000000D+00
347  3.4600000000000D+00  0.0000000000000D+00  0.0000000000000D+00
348  3.4700000000000D+00  0.0000000000000D+00  0.0000000000000D+00
349  3.4800000000000D+00  0.0000000000000D+00  0.0000000000000D+00
350  3.4900000000000D+00  0.0000000000000D+00  0.0000000000000D+00
351  3.5000000000000D+00  0.0000000000000D+00  0.0000000000000D+00
352  3.5100000000000D+00  0.0000000000000D+00  0.0000000000000D+00
353  3.5200000000000D+00  0.0000000000000D+00  0.0000000000000D+00
354  3.5300000000000D+00  0.0000000000000D+00  0.0000000000000D+00
355  3.5400000000000D+00  0.0000000000000D+00  0.0000000000000D+00
356  3.5500000000000D+00  0.0000000000000D+00  0.0000000000000D+00
357  3.5600000000000D+00  0.0000000000000D+00  0.0000000000000D+00
358  3.5700000000000D+00  0.0000000000000D+00  0.0000000000000D+00
359  3.5800000000000D+00  0.0000000000000D+00  0.0000000000000D+00
360  3.5900000000000D+00  0.0000000000000D+00  0.0000000000000D+00
361  3.6000000000000D+00  0.0000000000000D+00  0.0000000000000D+00
362  3.6100000000000D+00  0.0000000000000D+00  0.0000000000000D+00
363  3.6200000000000D+00  0.0000000000000D+00  0.0000000000000D+00
364  3.6300000000000D+00  0.0000000000000D+00  0.0000000000000D+00
365  3.6400000000000D+00  0.0000000000000D+00  0.0000000000000D+00
366  3.6500000000000D+00  0.0000000000000D+00  0.0000000000000D+00
367  3.6600000000000D+00  0.0000000000000D+00  0.0000000000000D+00
368  3.6700000000000D+00  0.0000000000000D+00  0.0000000000000D+00
369  3.6800000000000D+00  0.0000000000000D+00  0.0000000000000D+00
370  3.6900000000000D+00  0.0000000000000D+00  0.0000000000000D+00
371  3.7000000000000D+00  0.0000000000000D+00  0.0000000000000D+00
372  3.7100000000000D+00  0.0000000000000D+00  0.0000000000000D+00
373  3.7200000000000D+00  0.0000000000000D+00  0.0000000000000D+00
374  3.7300000000000D+00  0.0000000000000D+00  0.0000000000000D+00
375  3.7400000000000D+00  0.0000000000000D+00  0.0000000000000D+00
376  3.7500000000000D+00  0.0000000000000D+00  0.0000000000000D+00
377  3.7600000000000D+00  0.0000000000000D+00  0.0000000000000D+00
378  3.7700000000000D+00  0.0000000000000D+00  0.0000000000000D+00
379  3.7800000000000D+00  0.0000000000000D+00  0.0000000000000D+00
380  3.7900000000000D+00  0.0000000000000D+00  0.0000000000000D+00
381  3.8000000000000D+00  0.0000000000000D+00  0.0000000000000D+00
382  3.8100000000000D+00  0.0000000000000D+00  0.0000000000000D+00
383  3.8200000000000D+00  0.0000000000000D+00  0.0000000000000D+00
384  3.8300000000000D+00  0.0000000000000D+00  0.0000000000000D+00
385  3.8400000000000D+00  0.0000000000000D+00  0.0000000000000D+00
386  3.8500000000000D+00  0.0000000000000D+00  0.0000000000000D+00
387  3.8600000000000D+00  0.0000000000000D+00  0.0000000000000D+00
388  3.8700000000000D+00  0.0000000000000D+00  0.0000000000000D+00
389  3.8800000000000D+00  0.0000000000000D+00  0.0000000000000D+00
390  3.8900000000000D+00  0.0000000000000D+00  0.0000000000000D+00
391  3.9000000000000D+00  0.0000000000000D+00  0.0000000000000D+00
392  3.9100000000000D+00  0.0000000000000D+00  0.0000000000000D+00
393  3.9200000000000D+00  0.0000000000000D+00  0.0000000000000D+00
394  3.9300000000000D+00  0.0000000000000D+00  0.0000000000000D+00
395  3.9400000000000D+00  0.0000000000000D+00  0.0000000000000D+00
396  3.9500000000000D+00  0.0000000000000D+00  0.0000000000000D+00
397  3.9600000000000D+00  0.0000000000000D+00  0.0000000000000D+00
398  3.9700000000000D+00  0.0000000000000D+00  0.0000000000000D+00
399  3.9800000000000D+00  0.0000000000000D+00  0.0000000000000D+00
400  3.9900000000000D+00  0.0000000000000D+00  0.0000000000000D+00
401  4.0000000000000D+00  0.0000000000000D+00  0.0000000000000D+00
402  4.0100000000000D+00  0.0000000000000D+00  0.0000000000000D+00
403  4.0200000000000D+00  0.0000000000000D+00  0.0000000000000D+00
404  4.0300000000000D+00  0.0000000000000D+00  0.0000000000000D+00
405  4.0400000000000D+00  0.0000000000000D+00  0.0000000000000D+00
406  4.0500000000000D+00  0.0000000000000D+00  0.0000000000000D+00
407  4.0600000000000D+00  0.0000000000000D+00  0.0000000000000D+00
408  4.0700000000000D+00  0.0000000000000D+00  0.0000000000000D+00
409  4.0800000000000D+00  0.0000000000000D+00  0.0000000000000D+00
410  4.0900000000000D+00  0.0000000000000D+00  0.0000000000000D+00
411  4.1000000000000D+00  0.0000000000000D+00  0.0000000000000D+00
412  4.1100000000000D+00  0.0000000000000D+00  0.0000000000000D+00
413  4.1200000000000D+00  0.0000000000000D+00  0.0000000000000D+00
414  4.1300000000000D+00  0.0000000000000D+00  0.0000000000000D+00
415  4.1400000000000D+00  0.0000000000000D+00  0.0000000000000D+00
416  4.1500000000000D+00  0.0000000000000D+00  0.0000000000000D+00
417  4.1600000000000D+00  0.0000000000000D+00  0.0000000000000D+00
418  4.1700000000000D+00  0.0000000000000D+00  0.0000000000000D+00
419  4.1800000000000D+00  0.0000000000000D+00  0.0000000000000D+00
420  4.1900000000000D+00  0.0000000000000D+00  0.0000000000000D+00
421  4.2000000000000D+00  0.0000000000000D+00  0.0000000000000D+00
422  4.2100000000000D+00  0.0000000000000D+00  0.0000000000000D+00
423  4.2200000000000D+00  0.0000000000000D+00  0.0000000000000D+00
424  4.2300000000000D+00  0.0000000000000D+00  0.0000000000000D+00
425  4.2400000000000D+00  0.0000000000000D+00  0.0000000000000D+00
426  4.2500000000000D+00  0.0000000000000D+00  0.0000000000000D+00
427  4.2600000000000D+00  0.0000000000000D+00  0.0000000000000D+00
428  4.2700000000000D+00  0.0000000000000D+00  0.0000000000000D+00
429  4.2800000000000D+00  0.0000000000000D+00  0.0000000000000D+00
430  4.2900000000000D+00  0.0000000000000D+00  0.0000000000000D+00
431  4.3000000000000D+00  0.0000000000000D+00  0.0000000000000D+00
432  4.3100000000000D+00  0.0000000000000D+00  0.0000000000000D+00
433  4.3200000000000D+00  0.0000000000000D+00  0.0000000000000D+00
434  4.3300000000000D+00  0.0000000000000D+00  0.0000000000000D+00
435  4.3400000000000D+00  0.0000000000000D+00  0.0000000000000D+00
436  4.3500000000000D+00  0.0000000000000D+00  0.0000000000000D+00
437  4.3600000000000D+00  0.0000000000000D+00  0.0000000000000D+00
438  4.3700000000000D+00  0.0000000000000D+00  0.0000000000000D+00
439  4.3800000000000D+00  0.0000000000000D+00  0.0000000000000D+00
440  4.3900000000000D+00  0.0000000000000D+00  0.0000000000000D+00
441  4.4000000000000D+00  0.0000000000000D+00  0.0000000000000D+00
442  4.4100000000000D+00  0.0000000000000D+00  0.0000000000000D+00
443  4.4200000000000D+00  0.0000000000000D+00  0.0000000000000D+00