Hf    ONCVPSP  r_core=  2.45  1.96  2.15
72.0000     10.0000      160108    zatom,zion,pspd
8      11   2     4   600     0    pspcod,pspxc,lmax,lloc,mmax,r2well
5.99000000  2.96000000  0.00000000    rchrg fchrg qchrg
2     2     2     0     0    nproj
1                 extension_switch
0                         4.6095221410390D+00  1.0673297895891D+00
1  0.0000000000000D+00 -1.3853085345517D-12  1.2358621070963D-12
2  1.0000000000000D-02  2.9046770747475D-02  1.0889408934253D-03
3  2.0000000000000D-02  5.7997076409524D-02  2.1852931654017D-03
4  3.0000000000000D-02  8.6754762253170D-02  3.2964122114580D-03
5  4.0000000000000D-02  1.1522429348742D-01  4.4295416662289D-03
6  5.0000000000000D-02  1.4331106332727D-01  5.5917580355886D-03
7  6.0000000000000D-02  1.7092169877019D-01  6.7899159430299D-03
8  7.0000000000000D-02  1.9796436332404D-01  8.0305941936415D-03
9  8.0000000000000D-02  2.2434905592672D-01  9.3200428577975D-03
10  9.0000000000000D-02  2.4998790529963D-01  1.0664131575143D-02
11  1.0000000000000D-01  2.7479545897928D-01  1.2068299277603D-02
12  1.1000000000000D-01  2.9868896627414D-01  1.3537505527920D-02
13  1.2000000000000D-01  3.2158865439761D-01  1.5076183667692D-02
14  1.3000000000000D-01  3.4341799703186D-01  1.6688195965946D-02
15  1.4000000000000D-01  3.6410397458265D-01  1.8376790956018D-02
16  1.5000000000000D-01  3.8357732539146D-01  2.0144563144762D-02
17  1.6000000000000D-01  4.0177278717811D-01  2.1993415274105D-02
18  1.7000000000000D-01  4.1862932799587D-01  2.3924523310323D-02
19  1.8000000000000D-01  4.3409036599068D-01  2.5938304331548D-02
20  1.9000000000000D-01  4.4810397726747D-01  2.8034387478509D-02
21  2.0000000000000D-01  4.6062309117953D-01  3.0211588127609D-02
22  2.1000000000000D-01  4.7160567237174D-01  3.2467885439063D-02
23  2.2000000000000D-01  4.8101488892503D-01  3.4800403425805D-02
24  2.3000000000000D-01  4.8881926596842D-01  3.7205395681496D-02
25  2.4000000000000D-01  4.9499282414566D-01  3.9678233897888D-02
26  2.5000000000000D-01  4.9951520234731D-01  4.2213400293237D-02
27  2.6000000000000D-01  5.0237176414446D-01  4.4804484064283D-02
28  2.7000000000000D-01  5.0355368738890D-01  4.7444181964633D-02
29  2.8000000000000D-01  5.0305803647586D-01  5.0124303101900D-02
30  2.9000000000000D-01  5.0088781679870D-01  5.2835778035202D-02
31  3.0000000000000D-01  4.9705201096266D-01  5.5568672242819D-02
32  3.1000000000000D-01  4.9156559636358D-01  5.8312204017892D-02
33  3.2000000000000D-01  4.8444954378086D-01  6.1054766837060D-02
34  3.3000000000000D-01  4.7573079667945D-01  6.3783956233659D-02
35  3.4000000000000D-01  4.6544223096456D-01  6.6486601193079D-02
36  3.5000000000000D-01  4.5362259498456D-01  6.9148800073328D-02
37  3.6000000000000D-01  4.4031642963258D-01  7.1755961038737D-02
38  3.7000000000000D-01  4.2557396845527D-01  7.4292846978943D-02
39  3.8000000000000D-01  4.0945101773758D-01  7.6743624869277D-02
40  3.9000000000000D-01  3.9200881659642D-01  7.9091919511793D-02
41  4.0000000000000D-01  3.7331387718234D-01  8.1320871579102D-02
42  4.1000000000000D-01  3.5343780515662D-01  8.3413199865621D-02
43  4.2000000000000D-01  3.3245710068313D-01  8.5351267632787D-02
44  4.3000000000000D-01  3.1045294024683D-01  8.7117152916614D-02
45  4.4000000000000D-01  2.8751093968665D-01  8.8692722647289D-02
46  4.5000000000000D-01  2.6372089890682D-01  9.0059710411816D-02
47  4.6000000000000D-01  2.3917652880921D-01  9.1199797671703D-02
48  4.7000000000000D-01  2.1397516106854D-01  9.2094698228724D-02
49  4.8000000000000D-01  1.8821744145212D-01  9.2726245712674D-02
50  4.9000000000000D-01  1.6200700746613D-01  9.3076483846108D-02
51  5.0000000000000D-01  1.3545015119070D-01  9.3127759222260D-02
52  5.1000000000000D-01  1.0865546824588D-01  9.2862816313518D-02
53  5.2000000000000D-01  8.1733493909181D-02  9.2264894409913D-02
54  5.3000000000000D-01  5.4796327483211D-02  9.1317826168723D-02
55  5.4000000000000D-01  2.7957246086959D-02  9.0006137439428D-02
56  5.5000000000000D-01  1.3303091182804D-03  8.8315148010963D-02
57  5.6000000000000D-01 -2.4970045295210D-02  8.6231072912608D-02
58  5.7000000000000D-01 -5.0829410472018D-02  8.3741123884215D-02
59  5.8000000000000D-01 -7.6133826531795D-02  8.0833610617332D-02
60  5.9000000000000D-01 -1.0077019942309D-01  7.7498041355390D-02
61  6.0000000000000D-01 -1.2462672206336D-01  7.3725222428753D-02
62  6.1000000000000D-01 -1.4759329598302D-01  6.9507356289674D-02
63  6.2000000000000D-01 -1.6956195182214D-01  6.4838137602124D-02
64  6.3000000000000D-01 -1.9042726699355D-01  5.9712846933644D-02
65  6.4000000000000D-01 -2.1008677879618D-01  5.4128441589108D-02
66  6.5000000000000D-01 -2.2844139124196D-01  4.8083643121582D-02
67  6.6000000000000D-01 -2.4539577384523D-01  4.1579021051632D-02
68  6.7000000000000D-01 -2.6085875061909D-01  3.4617072325076D-02
69  6.8000000000000D-01 -2.7474367752585D-01  2.7202296039073D-02
70  6.9000000000000D-01 -2.8696880664174D-01  1.9341262968891D-02
71  7.0000000000000D-01 -2.9745763531746D-01  1.1042679431489D-02
72  7.1000000000000D-01 -3.0613923864747D-01  2.3174450285433D-03
73  7.2000000000000D-01 -3.1294858360229D-01 -6.8212961803591D-03
74  7.3000000000000D-01 -3.1782682322878D-01 -1.6358111513021D-02
75  7.4000000000000D-01 -3.2072156938448D-01 -2.6275242934536D-02
76  7.5000000000000D-01 -3.2158714254303D-01 -3.6552578173087D-02
77  7.6000000000000D-01 -3.2038479728881D-01 -4.7167630075667D-02
78  7.7000000000000D-01 -3.1708292220967D-01 -5.8095524578672D-02
79  7.8000000000000D-01 -3.1165721299672D-01 -6.9308997646783D-02
80  7.9000000000000D-01 -3.0409081767071D-01 -8.0778401509697D-02
81  8.0000000000000D-01 -2.9437445297229D-01 -9.2471720500746D-02
82  8.1000000000000D-01 -2.8250649108223D-01 -1.0435459677320D-01
83  8.2000000000000D-01 -2.6849301597163D-01 -1.1639036614036D-01
84  8.3000000000000D-01 -2.5234784882616D-01 -1.2854010425355D-01
85  8.4000000000000D-01 -2.3409254213807D-01 -1.4076268329805D-01
86  8.5000000000000D-01 -2.1375634221496D-01 -1.5301483935188D-01
87  8.6000000000000D-01 -1.9137612001576D-01 -1.6525125051480D-01
88  8.7000000000000D-01 -1.6699627038974D-01 -1.7742462587581D-01
89  8.8000000000000D-01 -1.4066857996288D-01 -1.8948580534792D-01
90  8.9000000000000D-01 -1.1245206408685D-01 -2.0138387035642D-01
91  9.0000000000000D-01 -8.2412773438505D-02 -2.1306626532509D-01
92  9.1000000000000D-01 -5.0623571028907D-02 -2.2447892986028D-01
93  9.2000000000000D-01 -1.7163880552886D-02 -2.3556644148907D-01
94  9.3000000000000D-01  1.7880592821952D-02 -2.4627216876170D-01
95  9.4000000000000D-01  5.4418167963101D-02 -2.5653843448327D-01
96  9.5000000000000D-01  9.2351518154578D-02 -2.6630668879366D-01
97  9.6000000000000D-01  1.3157802477553D-01 -2.7551769176812D-01
98  9.7000000000000D-01  1.7199015255417D-01 -2.8411170516530D-01
99  9.8000000000000D-01  2.1347584453889D-01 -2.9202869290297D-01
100  9.9000000000000D-01  2.5591893480274D-01 -2.9920852979684D-01
101  1.0000000000000D+00  2.9919957678228D-01 -3.0559121805158D-01
102  1.0100000000000D+00  3.4319468505330D-01 -3.1111711095075D-01
103  1.0200000000000D+00  3.8777838825554D-01 -3.1572714314693D-01
104  1.0300000000000D+00  4.3282249080835D-01 -3.1936306691158D-01
105  1.0400000000000D+00  4.7819694100379D-01 -3.2196769366297D-01
106  1.0500000000000D+00  5.2377030302467D-01 -3.2348514005018D-01
107  1.0600000000000D+00  5.6941023041591D-01 -3.2386107783085D-01
108  1.0700000000000D+00  6.1498393853394D-01 -3.2304298674693D-01
109  1.0800000000000D+00  6.6035867351762D-01 -3.2098040956166D-01
110  1.0900000000000D+00  7.0540217536088D-01 -3.1762520839000D-01
111  1.1000000000000D+00  7.4998313272469D-01 -3.1293182142073D-01
112  1.1100000000000D+00  7.9397162720768D-01 -3.0685751909683D-01
113  1.1200000000000D+00  8.3723956487439D-01 -2.9936265879400D-01
114  1.1300000000000D+00  8.7966109297875D-01 -2.9041093700440D-01
115  1.1400000000000D+00  9.2111299993846D-01 -2.7996963801030D-01
116  1.1500000000000D+00  9.6147509679184D-01 -2.6800987800459D-01
117  1.1600000000000D+00  1.0006305784871D+00 -2.5450684359670D-01
118  1.1700000000000D+00  1.0384663636050D+00 -2.3944002361352D-01
119  1.1800000000000D+00  1.0748734112823D+00 -2.2279343308898D-01
120  1.1900000000000D+00  1.1097470143195D+00 -2.0455582831603D-01
121  1.2000000000000D+00  1.1429870676580D+00 -1.8472091181738D-01
122  1.2100000000000D+00  1.1744983116963D+00 -1.6328752607144D-01
123  1.2200000000000D+00  1.2041905501591D+00 -1.4025983481463D-01
124  1.2300000000000D+00  1.2319788423477D+00 -1.1564749073318D-01
125  1.2400000000000D+00  1.2577836700312D+00 -8.9465788332815D-02
126  1.2500000000000D+00  1.2815310794038D+00 -6.1735800767821D-02
127  1.2600000000000D+00  1.3031527986833D+00 -3.2484499402204D-02
128  1.2700000000000D+00  1.3225863323027D+00 -1.7448548581997D-03
129  1.2800000000000D+00  1.3397750328465D+00  3.0444081699734D-02
130  1.2900000000000D+00  1.3546681519595D+00  6.4037118300827D-02
131  1.3000000000000D+00  1.3672208718141D+00  9.8982884193346D-02
132  1.3100000000000D+00  1.3773943188599D+00  1.3522381542743D-01
133  1.3200000000000D+00  1.3851555615992D+00  1.7269616526661D-01
134  1.3300000000000D+00  1.3904775944580D+00  2.1133004070501D-01
135  1.3400000000000D+00  1.3933393097813D+00  2.5104946634278D-01
136  1.3500000000000D+00  1.3937254600620D+00  2.9177247689747D-01
137  1.3600000000000D+00  1.3916266126316D+00  3.3341123958205D-01
138  1.3700000000000D+00  1.3870390988723D+00  3.7587220756143D-01
139  1.3800000000000D+00  1.3799649602167D+00  4.1905630572858D-01
140  1.3900000000000D+00  1.3704118927768D+00  4.6285914988991D-01
141  1.4000000000000D+00  1.3583931926777D+00  5.0717130053374D-01
142  1.4100000000000D+00  1.3439277038378D+00  5.5187855223491D-01
143  1.4200000000000D+00  1.3270397694441D+00  5.9686225956452D-01
144  1.4300000000000D+00  1.3077591890245D+00  6.4199970063144D-01
145  1.4400000000000D+00  1.2861211813335D+00  6.8716447873538D-01
146  1.4500000000000D+00  1.2621663544445D+00  7.3222696305673D-01
147  1.4600000000000D+00  1.2359406830097D+00  7.7705476878785D-01
148  1.4700000000000D+00  1.2074954923787D+00  8.2151327682722D-01
149  1.4800000000000D+00  1.1768874500185D+00  8.6546619375978D-01
150  1.4900000000000D+00  1.1441785616707D+00  9.0877615095516D-01
151  1.5000000000000D+00  1.1094361728836D+00  9.5130534373397D-01
152  1.5100000000000D+00  1.0727329719927D+00  9.9291620849238D-01
153  1.5200000000000D+00  1.0341469937609D+00  1.0334721377374D+00
154  1.5300000000000D+00  9.9376161992995D-01  1.0728382310918D+00
155  1.5400000000000D+00  9.5166557352640D-01  1.1108820798516D+00
156  1.5500000000000D+00  9.0795290367344D-01  1.1474745840882D+00
157  1.5600000000000D+00  8.6272295564641D-01  1.1824907963513D+00
158  1.5700000000000D+00  8.1608032308192D-01  1.2158107925494D+00
159  1.5800000000000D+00  7.6813477588105D-01  1.2473205594431D+00
160  1.5900000000000D+00  7.1900116012977D-01  1.2769129009068D+00
161  1.6000000000000D+00  6.6879926375675D-01  1.3044883483032D+00
162  1.6100000000000D+00  6.1765364296098D-01  1.3299560762467D+00
163  1.6200000000000D+00  5.6569340434787D-01  1.3532348070799D+00
164  1.6300000000000D+00  5.1305193683737D-01  1.3742537022826D+00
165  1.6400000000000D+00  4.5986658966499D-01  1.3929532226594D+00
166  1.6500000000000D+00  4.0627829067194D-01  1.4092859514806D+00
167  1.6600000000000D+00  3.5243110259807D-01  1.4232173608223D+00
168  1.6700000000000D+00  2.9847171293939D-01  1.4347265105640D+00
169  1.6800000000000D+00  2.4454885677064D-01  1.4438066581086D+00
170  1.6900000000000D+00  1.9081267044948D-01  1.4504657633775D+00
171  1.7000000000000D+00  1.3741397827850D-01  1.4547268636623D+00
172  1.7100000000000D+00  8.4503512649337D-02  1.4566282985834D+00
173  1.7200000000000D+00  3.2231074649678D-02  1.4562237538850D+00
174  1.7300000000000D+00 -1.9255362863234D-02  1.4535821018043D+00
175  1.7400000000000D+00 -6.9810593685037D-02  1.4487869970226D+00
176  1.7500000000000D+00 -1.1929315797823D-01  1.4419362068944D+00
177  1.7600000000000D+00 -1.6756633135860D-01  1.4331406193476D+00
178  1.7700000000000D+00 -2.1449913115804D-01  1.4225229138082D+00
179  1.7800000000000D+00 -2.5996728192081D-01  1.4102158145030D+00
180  1.7900000000000D+00 -3.0385416562073D-01  1.3963599265322D+00
181  1.8000000000000D+00 -3.4605165898608D-01  1.3811010387586D+00
182  1.8100000000000D+00 -3.8646091299263D-01  1.3645868035493D+00
183  1.8200000000000D+00 -4.2499292964720D-01  1.3469634124701D+00
184  1.8300000000000D+00 -4.6156895955753D-01  1.3283692587251D+00
185  1.8400000000000D+00 -4.9612086277640D-01  1.3089342429789D+00
186  1.8500000000000D+00 -5.2859066682685D-01  1.2887698579583D+00
187  1.8600000000000D+00 -5.5893039977394D-01  1.2679559089920D+00
188  1.8700000000000D+00 -5.8710112315053D-01  1.2465434050500D+00
189  1.8800000000000D+00 -6.1307139128127D-01  1.2245605443912D+00
190  1.8900000000000D+00 -6.3681637375600D-01  1.2020186862282D+00
191  1.9000000000000D+00 -6.5831786199682D-01  1.1789246393825D+00
192  1.9100000000000D+00 -6.7756388412965D-01  1.1552947101667D+00
193  1.9200000000000D+00 -6.9454880138963D-01  1.1311471696094D+00
194  1.9300000000000D+00 -7.0927364020313D-01  1.1064997608542D+00
195  1.9400000000000D+00 -7.2174586719063D-01  1.0813729468987D+00
196  1.9500000000000D+00 -7.3197941734435D-01  1.0557888729810D+00
197  1.9600000000000D+00 -7.3999465313651D-01  1.0297713450460D+00
198  1.9700000000000D+00 -7.4581829548449D-01  1.0033459501801D+00
199  1.9800000000000D+00 -7.4948334029761D-01  9.7653996146652D-01
200  1.9900000000000D+00 -7.5102895168317D-01  9.4938229308770D-01
201  2.0000000000000D+00 -7.5050033606695D-01  9.2190345061353D-01
202  2.0100000000000D+00 -7.4794859468815D-01  8.9413547586028D-01
203  2.0200000000000D+00 -7.4343055774190D-01  8.6611188712374D-01
204  2.0300000000000D+00 -7.3700859870693D-01  8.3786761441117D-01
205  2.0400000000000D+00 -7.2875043008281D-01  8.0943892998021D-01
206  2.0500000000000D+00 -7.1872888191404D-01  7.8086337453738D-01
207  2.0600000000000D+00 -7.0702166182675D-01  7.5217967872675D-01
208  2.0700000000000D+00 -6.9371109989211D-01  7.2342768082101D-01
209  2.0800000000000D+00 -6.7888387666418D-01  6.9464824010023D-01
210  2.0900000000000D+00 -6.6263073676767D-01  6.6588314659360D-01
211  2.1000000000000D+00 -6.4504618874765D-01  6.3717502735851D-01
212  2.1100000000000D+00 -6.2622819090377D-01  6.0856724914910D-01
213  2.1200000000000D+00 -6.0627782617506D-01  5.8010381842539D-01
214  2.1300000000000D+00 -5.8529896487356D-01  5.5182927821261D-01
215  2.1400000000000D+00 -5.6339791781241D-01  5.2378860261937D-01
216  2.1500000000000D+00 -5.4068308066774D-01  4.9602708922331D-01
217  2.1600000000000D+00 -5.1726456973516D-01  4.6859024926887D-01
218  2.1700000000000D+00 -4.9325385178762D-01  4.4152369660078D-01
219  2.1800000000000D+00 -4.6876336778312D-01  4.1487303509191D-01
220  2.1900000000000D+00 -4.4390615233378D-01  3.8868374519679D-01
221  2.2000000000000D+00 -4.1879545029245D-01  3.6300107004419D-01
222  2.2100000000000D+00 -3.9354433098824D-01  3.3786990110073D-01
223  2.2200000000000D+00 -3.6826530203482D-01  3.1333466409472D-01
224  2.2300000000000D+00 -3.4306992363848D-01  2.8943920538973D-01
225  2.2400000000000D+00 -3.1806842475166D-01  2.6622667921257D-01
226  2.2500000000000D+00 -2.9336932200533D-01  2.4373943601940D-01
227  2.2600000000000D+00 -2.6907904341165D-01  2.2201891258786D-01
228  2.2700000000000D+00 -2.4530155730498D-01  2.0110552394905D-01
229  2.2800000000000D+00 -2.2213800771521D-01  1.8103855749493D-01
230  2.2900000000000D+00 -1.9968635868019D-01  1.6185607008538D-01
231  2.3000000000000D+00 -1.7804104653108D-01  1.4359478770918D-01
232  2.3100000000000D+00 -1.5729264300952D-01  1.2629000865876D-01
233  2.3200000000000D+00 -1.3752753050931D-01  1.0997551060098D-01
234  2.3300000000000D+00 -1.1882758787367D-01  9.4683460868424D-02
235  2.3400000000000D+00 -1.0126989170632D-01  8.0444331702844D-02
236  2.3500000000000D+00 -8.4926432013873D-02  6.7286819916181D-02
237  2.3600000000000D+00 -6.9863840755949D-02  5.5237770386209D-02
238  2.3700000000000D+00 -5.6145674957874D-02  4.4324163046522D-02
239  2.3800000000000D+00 -4.3832867033873D-02  3.4573604461534D-02
240  2.3900000000000D+00 -3.2952639292683D-02  2.5989212300147D-02
241  2.4000000000000D+00 -2.3526624465752D-02  1.8572453508700D-02
242  2.4100000000000D+00 -1.5605416606506D-02  1.2351478118455D-02
243  2.4200000000000D+00 -9.3239523909774D-03  7.4264394016254D-03
244  2.4300000000000D+00 -4.7571189317925D-03  3.8529373053580D-03
245  2.4400000000000D+00 -1.8141397095439D-03  1.5527957151609D-03
246  2.4500000000000D+00 -2.0219102565636D-04  2.8452538236000D-04
247  2.4600000000000D+00  4.1056414372116D-04 -2.2245313858172D-04
248  2.4700000000000D+00  3.9779936531945D-04 -2.5561948931252D-04
249  2.4800000000000D+00  1.1857781025424D-04 -7.9260678821960D-05
250  2.4900000000000D+00 -8.7783128057755D-05  5.9413094982570D-05
251  2.5000000000000D+00 -1.2047395453618D-04  8.2546319263363D-05
252  2.5100000000000D+00 -4.2006382670079D-05  2.9003927998081D-05
253  2.5200000000000D+00  1.5746164015510D-05 -1.0391290177507D-05
254  2.5300000000000D+00  2.3014076350332D-05 -1.5294059879073D-05
255  2.5400000000000D+00  8.7837876709703D-06 -5.8688940020625D-06
256  2.5500000000000D+00 -3.2462318086409D-07  3.8013551043093D-08
257  2.5600000000000D+00 -4.9636129415248D-07  5.8124177518243D-08
258  2.5700000000000D+00 -2.1083836934086D-07  2.4689287725687D-08
259  2.5800000000000D+00  0.0000000000000D+00  0.0000000000000D+00
260  2.5900000000000D+00  0.0000000000000D+00  0.0000000000000D+00
261  2.6000000000000D+00  0.0000000000000D+00  0.0000000000000D+00
262  2.6100000000000D+00  0.0000000000000D+00  0.0000000000000D+00
263  2.6200000000000D+00  0.0000000000000D+00  0.0000000000000D+00
264  2.6300000000000D+00  0.0000000000000D+00  0.0000000000000D+00
265  2.6400000000000D+00  0.0000000000000D+00  0.0000000000000D+00
266  2.6500000000000D+00  0.0000000000000D+00  0.0000000000000D+00
267  2.6600000000000D+00  0.0000000000000D+00  0.0000000000000D+00
268  2.6700000000000D+00  0.0000000000000D+00  0.0000000000000D+00
269  2.6800000000000D+00  0.0000000000000D+00  0.0000000000000D+00
270  2.6900000000000D+00  0.0000000000000D+00  0.0000000000000D+00
271  2.7000000000000D+00  0.0000000000000D+00  0.0000000000000D+00
272  2.7100000000000D+00  0.0000000000000D+00  0.0000000000000D+00
273  2.7200000000000D+00  0.0000000000000D+00  0.0000000000000D+00
274  2.7300000000000D+00  0.0000000000000D+00  0.0000000000000D+00
275  2.7400000000000D+00  0.0000000000000D+00  0.0000000000000D+00
276  2.7500000000000D+00  0.0000000000000D+00  0.0000000000000D+00
277  2.7600000000000D+00  0.0000000000000D+00  0.0000000000000D+00
278  2.7700000000000D+00  0.0000000000000D+00  0.0000000000000D+00
279  2.7800000000000D+00  0.0000000000000D+00  0.0000000000000D+00
280  2.7900000000000D+00  0.0000000000000D+00  0.0000000000000D+00
281  2.8000000000000D+00  0.0000000000000D+00  0.0000000000000D+00
282  2.8100000000000D+00  0.0000000000000D+00  0.0000000000000D+00
283  2.8200000000000D+00  0.0000000000000D+00  0.0000000000000D+00
284  2.8300000000000D+00  0.0000000000000D+00  0.0000000000000D+00
285  2.8400000000000D+00  0.0000000000000D+00  0.0000000000000D+00
286  2.8500000000000D+00  0.0000000000000D+00  0.0000000000000D+00
287  2.8600000000000D+00  0.0000000000000D+00  0.0000000000000D+00
288  2.8700000000000D+00  0.0000000000000D+00  0.0000000000000D+00
289  2.8800000000000D+00  0.0000000000000D+00  0.0000000000000D+00
290  2.8900000000000D+00  0.0000000000000D+00  0.0000000000000D+00
291  2.9000000000000D+00  0.0000000000000D+00  0.0000000000000D+00
292  2.9100000000000D+00  0.0000000000000D+00  0.0000000000000D+00
293  2.9200000000000D+00  0.0000000000000D+00  0.0000000000000D+00
294  2.9300000000000D+00  0.0000000000000D+00  0.0000000000000D+00
295  2.9400000000000D+00  0.0000000000000D+00  0.0000000000000D+00
296  2.9500000000000D+00  0.0000000000000D+00  0.0000000000000D+00
297  2.9600000000000D+00  0.0000000000000D+00  0.0000000000000D+00
298  2.9700000000000D+00  0.0000000000000D+00  0.0000000000000D+00
299  2.9800000000000D+00  0.0000000000000D+00  0.0000000000000D+00
300  2.9900000000000D+00  0.0000000000000D+00  0.0000000000000D+00
301  3.0000000000000D+00  0.0000000000000D+00  0.0000000000000D+00
302  3.0100000000000D+00  0.0000000000000D+00  0.0000000000000D+00
303  3.0200000000000D+00  0.0000000000000D+00  0.0000000000000D+00
304  3.0300000000000D+00  0.0000000000000D+00  0.0000000000000D+00
305  3.0400000000000D+00  0.0000000000000D+00  0.0000000000000D+00
306  3.0500000000000D+00  0.0000000000000D+00  0.0000000000000D+00
307  3.0600000000000D+00  0.0000000000000D+00  0.0000000000000D+00
308  3.0700000000000D+00  0.0000000000000D+00  0.0000000000000D+00
309  3.0800000000000D+00  0.0000000000000D+00  0.0000000000000D+00
310  3.0900000000000D+00  0.0000000000000D+00  0.0000000000000D+00
311  3.1000000000000D+00  0.0000000000000D+00  0.0000000000000D+00
312  3.1100000000000D+00  0.0000000000000D+00  0.0000000000000D+00
313  3.1200000000000D+00  0.0000000000000D+00  0.0000000000000D+00
314  3.1300000000000D+00  0.0000000000000D+00  0.0000000000000D+00
315  3.1400000000000D+00  0.0000000000000D+00  0.0000000000000D+00
316  3.1500000000000D+00  0.0000000000000D+00  0.0000000000000D+00
317  3.1600000000000D+00  0.0000000000000D+00  0.0000000000000D+00
318  3.1700000000000D+00  0.0000000000000D+00  0.0000000000000D+00
319  3.1800000000000D+00  0.0000000000000D+00  0.0000000000000D+00
320  3.1900000000000D+00  0.0000000000000D+00  0.0000000000000D+00
321  3.2000000000000D+00  0.0000000000000D+00  0.0000000000000D+00
322  3.2100000000000D+00  0.0000000000000D+00  0.0000000000000D+00
323  3.2200000000000D+00  0.0000000000000D+00  0.0000000000000D+00
324  3.2300000000000D+00  0.0000000000000D+00  0.0000000000000D+00
325  3.2400000000000D+00  0.0000000000000D+00  0.0000000000000D+00
326  3.2500000000000D+00  0.0000000000000D+00  0.0000000000000D+00
327  3.2600000000000D+00  0.0000000000000D+00  0.0000000000000D+00
328  3.2700000000000D+00  0.0000000000000D+00  0.0000000000000D+00
329  3.2800000000000D+00  0.0000000000000D+00  0.0000000000000D+00
330  3.2900000000000D+00  0.0000000000000D+00  0.0000000000000D+00
331  3.3000000000000D+00  0.0000000000000D+00  0.0000000000000D+00
332  3.3100000000000D+00  0.0000000000000D+00  0.0000000000000D+00
333  3.3200000000000D+00  0.0000000000000D+00  0.0000000000000D+00
334  3.3300000000000D+00  0.0000000000000D+00  0.0000000000000D+00
335  3.3400000000000D+00  0.0000000000000D+00  0.0000000000000D+00
336  3.3500000000000D+00  0.0000000000000D+00  0.0000000000000D+00
337  3.3600000000000D+00  0.0000000000000D+00  0.0000000000000D+00
338  3.3700000000000D+00  0.0000000000000D+00  0.0000000000000D+00
339  3.3800000000000D+00  0.0000000000000D+00  0.0000000000000D+00
340  3.3900000000000D+00  0.0000000000000D+00  0.0000000000000D+00
341  3.4000000000000D+00  0.0000000000000D+00  0.0000000000000D+00
342  3.4100000000000D+00  0.0000000000000D+00  0.0000000000000D+00
343  3.4200000000000D+00  0.0000000000000D+00  0.0000000000000D+00
344  3.4300000000000D+00  0.0000000000000D+00  0.0000000000000D+00
345  3.4400000000000D+00  0.0000000000000D+00  0.0000000000000D+00
346  3.4500000000000D+00  0.0000000000000D+00  0.0000000000000D+00
347  3.4600000000000D+00  0.0000000000000D+00  0.0000000000000D+00
348  3.4700000000000D+00  0.0000000000000D+00  0.0000000000000D+00
349  3.4800000000000D+00  0.0000000000000D+00  0.0000000000000D+00
350  3.4900000000000D+00  0.0000000000000D+00  0.0000000000000D+00
351  3.5000000000000D+00  0.0000000000000D+00  0.0000000000000D+00
352  3.5100000000000D+00  0.0000000000000D+00  0.0000000000000D+00
353  3.5200000000000D+00  0.0000000000000D+00  0.0000000000000D+00
354  3.5300000000000D+00  0.0000000000000D+00  0.0000000000000D+00
355  3.5400000000000D+00  0.0000000000000D+00  0.0000000000000D+00
356  3.5500000000000D+00  0.0000000000000D+00  0.0000000000000D+00
357  3.5600000000000D+00  0.0000000000000D+00  0.0000000000000D+00
358  3.5700000000000D+00  0.0000000000000D+00  0.0000000000000D+00
359  3.5800000000000D+00  0.0000000000000D+00  0.0000000000000D+00
360  3.5900000000000D+00  0.0000000000000D+00  0.0000000000000D+00
361  3.6000000000000D+00  0.0000000000000D+00  0.0000000000000D+00
362  3.6100000000000D+00  0.0000000000000D+00  0.0000000000000D+00
363  3.6200000000000D+00  0.0000000000000D+00  0.0000000000000D+00
364  3.6300000000000D+00  0.0000000000000D+00  0.0000000000000D+00
365  3.6400000000000D+00  0.0000000000000D+00  0.0000000000000D+00
366  3.6500000000000D+00  0.0000000000000D+00  0.0000000000000D+00
367  3.6600000000000D+00  0.0000000000000D+00  0.0000000000000D+00
368  3.6700000000000D+00  0.0000000000000D+00  0.0000000000000D+00
369  3.6800000000000D+00  0.0000000000000D+00  0.0000000000000D+00
370  3.6900000000000D+00  0.0000000000000D+00  0.0000000000000D+00
371  3.7000000000000D+00  0.0000000000000D+00  0.0000000000000D+00
372  3.7100000000000D+00  0.0000000000000D+00  0.0000000000000D+00
373  3.7200000000000D+00  0.0000000000000D+00  0.0000000000000D+00
374  3.7300000000000D+00  0.0000000000000D+00  0.0000000000000D+00
375  3.7400000000000D+00  0.0000000000000D+00  0.0000000000000D+00
376  3.7500000000000D+00  0.0000000000000D+00  0.0000000000000D+00
377  3.7600000000000D+00  0.0000000000000D+00  0.0000000000000D+00
378  3.7700000000000D+00  0.0000000000000D+00  0.0000000000000D+00
379  3.7800000000000D+00  0.0000000000000D+00  0.0000000000000D+00
380  3.7900000000000D+00  0.0000000000000D+00  0.0000000000000D+00
381  3.8000000000000D+00  0.0000000000000D+00  0.0000000000000D+00
382  3.8100000000000D+00  0.0000000000000D+00  0.0000000000000D+00
383  3.8200000000000D+00  0.0000000000000D+00  0.0000000000000D+00
384  3.8300000000000D+00  0.0000000000000D+00  0.0000000000000D+00
385  3.8400000000000D+00  0.0000000000000D+00  0.0000000000000D+00
386  3.8500000000000D+00  0.0000000000000D+00  0.0000000000000D+00
387  3.8600000000000D+00  0.0000000000000D+00  0.0000000000000D+00
388  3.8700000000000D+00  0.0000000000000D+00  0.0000000000000D+00
389  3.8800000000000D+00  0.0000000000000D+00  0.0000000000000D+00
390  3.8900000000000D+00  0.0000000000000D+00  0.0000000000000D+00
391  3.9000000000000D+00  0.0000000000000D+00  0.0000000000000D+00
392  3.9100000000000D+00  0.0000000000000D+00  0.0000000000000D+00
393  3.9200000000000D+00  0.0000000000000D+00  0.0000000000000D+00
394  3.9300000000000D+00  0.0000000000000D+00  0.0000000000000D+00
395  3.9400000000000D+00  0.0000000000000D+00  0.0000000000000D+00
396  3.9500000000000D+00  0.0000000000000D+00  0.0000000000000D+00
397  3.9600000000000D+00  0.0000000000000D+00  0.0000000000000D+00
398  3.9700000000000D+00  0.0000000000000D+00  0.0000000000000D+00
399  3.9800000000000D+00  0.0000000000000D+00  0.0000000000000D+00
400  3.9900000000000D+00  0.0000000000000D+00  0.0000000000000D+00
401  4.0000000000000D+00  0.0000000000000D+00  0.0000000000000D+00
402  4.0100000000000D+00  0.0000000000000D+00  0.0000000000000D+00
403  4.0200000000000D+00  0.0000000000000D+00  0.0000000000000D+00
404  4.0300000000000D+00  0.0000000000000D+00  0.0000000000000D+00
405  4.0400000000000D+00  0.0000000000000D+00  0.0000000000000D+00
406  4.0500000000000D+00  0.0000000000000D+00  0.0000000000000D+00
407  4.0600000000000D+00  0.0000000000000D+00  0.0000000000000D+00
408  4.0700000000000D+00  0.0000000000000D+00  0.0000000000000D+00
409  4.0800000000000D+00  0.0000000000000D+00  0.0000000000000D+00
410  4.0900000000000D+00  0.0000000000000D+00  0.0000000000000D+00
411  4.1000000000000D+00  0.0000000000000D+00  0.0000000000000D+00
412  4.1100000000000D+00  0.0000000000000D+00  0.0000000000000D+00
413  4.1200000000000D+00  0.0000000000000D+00  0.0000000000000D+00
414  4.1300000000000D+00  0.0000000000000D+00  0.0000000000000D+00
415  4.1400000000000D+00  0.0000000000000D+00  0.0000000000000D+00
416  4.1500000000000D+00  0.0000000000000D+00  0.0000000000000D+00
417  4.1600000000000D+00  0.0000000000000D+00  0.0000000000000D+00
418  4.1700000000000D+00  0.0000000000000D+00  0.0000000000000D+00
419  4.1800000000000D+00  0.0000000000000D+00  0.0000000000000D+00
420  4.1900000000000D+00  0.0000000000000D+00  0.0000000000000D+00
421  4.2000000000000D+00  0.0000000000000D+00  0.0000000000000D+00
422  4.2100000000000D+00  0.0000000000000D+00  0.0000000000000D+00
423  4.2200000000000D+00  0.0000000000000D+00  0.0000000000000D+00
424  4.2300000000000D+00  0.0000000000000D+00  0.0000000000000D+00
425  4.2400000000000D+00  0.0000000000000D+00  0.0000000000000D+00
426  4.2500000000000D+00  0.0000000000000D+00  0.0000000000000D+00
427  4.2600000000000D+00  0.0000000000000D+00  0.0000000000000D+00
428  4.2700000000000D+00  0.0000000000000D+00  0.0000000000000D+00
429  4.2800000000000D+00  0.0000000000000D+00  0.0000000000000D+00
430  4.2900000000000D+00  0.0000000000000D+00  0.0000000000000D+00
431  4.3000000000000D+00  0.0000000000000D+00  0.0000000000000D+00
432  4.3100000000000D+00  0.0000000000000D+00  0.0000000000000D+00
433  4.3200000000000D+00  0.0000000000000D+00  0.0000000000000D+00
434  4.3300000000000D+00  0.0000000000000D+00  0.0000000000000D+00
435  4.3400000000000D+00  0.0000000000000D+00  0.0000000000000D+00
436  4.3500000000000D+00  0.0000000000000D+00  0.0000000000000D+00
437  4.3600000000000D+00  0.0000000000000D+00  0.0000000000000D+00
438  4.3700000000000D+00  0.0000000000000D+00  0.0000000000000D+00
439  4.3800000000000D+00  0.0000000000000D+00  0.0000000000000D+00
440  4.3900000000000D+00  0.0000000000000D+00  0.0000000000000D+00
441  4.4000000000000D+00  0.0000000000000D+00  0.0000000000000D+00
442  4.4100000000000D+00  0.0000000000000D+00  0.0000000000000D+00
443  4.4200000000000D+00  0.0000000000000D+00  0.0000000000000D+00
444  4.4300000000000D+00  0.0000000000000D+00  0.0000000000000D+00