Hf    ONCVPSP  r_core=  1.72  1.72  1.72  2.43
72.0000     12.0000      160625    zatom,zion,pspd
8      11   3     4   600     0    pspcod,pspxc,lmax,lloc,mmax,r2well
5.99000000  2.69000000  0.00000000    rchrg fchrg qchrg
2     2     2     2     0    nproj
1                 extension_switch
0                         5.8123351960404D+00 -5.2121057294466D-01
1  0.0000000000000D+00  6.9505790012414D-11  1.5661825725211D-09
2  1.0000000000000D-02  5.1311057087378D-02 -5.6577069878811D-02
3  2.0000000000000D-02  1.0256486555306D-01 -1.1275643141490D-01
4  3.0000000000000D-02  1.5370413225134D-01 -1.6814408151568D-01
5  4.0000000000000D-02  2.0467147654125D-01 -2.2235338909323D-01
6  5.0000000000000D-02  2.5540939040289D-01 -2.7500868522962D-01
7  6.0000000000000D-02  3.0586020314091D-01 -3.2574873945829D-01
8  7.0000000000000D-02  3.5596605212169D-01 -3.7423008605616D-01
9  8.0000000000000D-02  4.0566886092157D-01 -4.2013016580686D-01
10  9.0000000000000D-02  4.5491032617763D-01 -4.6315025062368D-01
11  1.0000000000000D-01  5.0363191433213D-01 -5.0301812068959D-01
12  1.1000000000000D-01  5.5177486934662D-01 -5.3949046636058D-01
13  1.2000000000000D-01  5.9928023233409D-01 -5.7235498995804D-01
14  1.3000000000000D-01  6.4608887391787D-01 -6.0143218571949D-01
15  1.4000000000000D-01  6.9214153997646D-01 -6.2657677955032D-01
16  1.5000000000000D-01  7.3737891127486D-01 -6.4767881378920D-01
17  1.6000000000000D-01  7.8174167731754D-01 -6.6466436592840D-01
18  1.7000000000000D-01  8.2517062458727D-01 -6.7749589408141D-01
19  1.8000000000000D-01  8.6760673915949D-01 -6.8617220592107D-01
20  1.9000000000000D-01  9.0899132350555D-01 -6.9072805178504D-01
21  2.0000000000000D-01  9.4926612712197D-01 -6.9123334661734D-01
22  2.1000000000000D-01  9.8837349044809D-01 -6.8779202934662D-01
23  2.2000000000000D-01  1.0262565013641D+00 -6.8054057215086D-01
24  2.3000000000000D-01  1.0628591633955D+00 -6.6964615578477D-01
25  2.4000000000000D-01  1.0981265745932D+00 -6.5530453071287D-01
26  2.5000000000000D-01  1.1320051159067D+00 -6.3773758715707D-01
27  2.6000000000000D-01  1.1644426477325D+00 -6.1719066030112D-01
28  2.7000000000000D-01  1.1953887131905D+00 -5.9392959975864D-01
29  2.8000000000000D-01  1.2247947465687D+00 -5.6823763497896D-01
30  2.9000000000000D-01  1.2526142852772D+00 -5.4041207050490D-01
31  3.0000000000000D-01  1.2788031835723D+00 -5.1076084688750D-01
32  3.1000000000000D-01  1.3033198262399D+00 -4.7959900458098D-01
33  3.2000000000000D-01  1.3261253403853D+00 -4.4724508927110D-01
34  3.3000000000000D-01  1.3471838034399D+00 -4.1401753781784D-01
35  3.4000000000000D-01  1.3664624454889D+00 -3.8023108430915D-01
36  3.5000000000000D-01  1.3839318440255D+00 -3.4619322562226D-01
37  3.6000000000000D-01  1.3995661092685D+00 -3.1220078537087D-01
38  3.7000000000000D-01  1.4133430582223D+00 -2.7853661418447D-01
39  3.8000000000000D-01  1.4252443757202D+00 -2.4546646292749D-01
40  3.9000000000000D-01  1.4352557607780D+00 -2.1323606373356D-01
41  4.0000000000000D-01  1.4433670566793D+00 -1.8206845161822D-01
42  4.1000000000000D-01  1.4495723633321D+00 -1.5216155696477D-01
43  4.2000000000000D-01  1.4538701305670D+00 -1.2368609637305D-01
44  4.3000000000000D-01  1.4562632311918D+00 -9.6783786250950D-02
45  4.4000000000000D-01  1.4567590127769D+00 -7.1565900140475D-02
46  4.5000000000000D-01  1.4553693273155D+00 -4.8112187141200D-02
47  4.6000000000000D-01  1.4521105380840D+00 -2.6470164958338D-02
48  4.7000000000000D-01  1.4470035032133D+00 -6.6547971003989D-03
49  4.8000000000000D-01  1.4400735356811D+00  1.1351440376975D-02
50  4.9000000000000D-01  1.4313503396310D+00  2.7598101395971D-02
51  5.0000000000000D-01  1.4208679231282D+00  4.2165924717912D-02
52  5.1000000000000D-01  1.4086644876660D+00  5.5165608455431D-02
53  5.2000000000000D-01  1.3947822949349D+00  6.6736215747906D-02
54  5.3000000000000D-01  1.3792675115700D+00  7.7043227219632D-02
55  5.4000000000000D-01  1.3621700327820D+00  8.6276259806320D-02
56  5.5000000000000D-01  1.3435432859632D+00  9.4646475323443D-02
57  5.6000000000000D-01  1.3234440155415D+00  1.0238370572065D-01
58  5.7000000000000D-01  1.3019320505151D+00  1.0973332526707D-01
59  5.8000000000000D-01  1.2790700562613D+00  1.1695290293068D-01
60  5.9000000000000D-01  1.2549232723478D+00  1.2430867088675D-01
61  6.0000000000000D-01  1.2295592382024D+00  1.3207184741483D-01
62  6.1000000000000D-01  1.2030475086022D+00  1.4051485436731D-01
63  6.2000000000000D-01  1.1754593610361D+00  1.4990747091466D-01
64  6.3000000000000D-01  1.1468674970624D+00  1.6051296635339D-01
65  6.4000000000000D-01  1.1173457398356D+00  1.7258425540469D-01
66  6.5000000000000D-01  1.0869687300081D+00  1.8636011961030D-01
67  6.6000000000000D-01  1.0558116222216D+00  2.0206153815472D-01
68  6.7000000000000D-01  1.0239497843923D+00  2.1988817069368D-01
69  6.8000000000000D-01  9.9145850196406D-01  2.4001503356361D-01
70  6.9000000000000D-01  9.5841268924906D-01  2.6258940909276D-01
71  7.0000000000000D-01  9.2488660990652D-01  2.8772802563696D-01
72  7.1000000000000D-01  8.9095360851517D-01  3.1551454344568D-01
73  7.2000000000000D-01  8.5668585508698D-01  3.4599737855428D-01
74  7.3000000000000D-01  8.2215410424052D-01  3.7918789360662D-01
75  7.4000000000000D-01  7.8742747060882D-01  4.1505898090687D-01
76  7.5000000000000D-01  7.5257322189618D-01  4.5354405904647D-01
77  7.6000000000000D-01  7.1765659082647D-01  4.9453650027565D-01
78  7.7000000000000D-01  6.8274060704025D-01  5.3788950136279D-01
79  7.8000000000000D-01  6.4788594980384D-01  5.8341640608551D-01
80  7.9000000000000D-01  6.1315082219081D-01  6.3089148276431D-01
81  8.0000000000000D-01  5.7859084718787D-01  6.8005115542860D-01
82  8.1000000000000D-01  5.4425898596472D-01  7.3059568234894D-01
83  8.2000000000000D-01  5.1020547833328D-01  7.8219127082918D-01
84  8.3000000000000D-01  4.7647780520829D-01  8.3447261237881D-01
85  8.4000000000000D-01  4.4312067266963D-01  8.8704581771787D-01
86  8.5000000000000D-01  4.1017601702083D-01  9.3949172658123D-01
87  8.6000000000000D-01  3.7768303003868D-01  9.9136956300630D-01
88  8.7000000000000D-01  3.4567820341819D-01  1.0422209027704D+00
89  8.8000000000000D-01  3.1419539123771D-01  1.0915739159335D+00
90  8.9000000000000D-01  2.8326588910221D-01  1.1389478440787D+00
91  9.0000000000000D-01  2.5291852847007D-01  1.1838576688601D+00
92  9.1000000000000D-01  2.2317978453323D-01  1.2258189259260D+00
93  9.2000000000000D-01  1.9407389590139D-01  1.2643526161655D+00
94  9.3000000000000D-01  1.6562299424116D-01  1.2989901646120D+00
95  9.4000000000000D-01  1.3784724194171D-01  1.3292783762108D+00
96  9.5000000000000D-01  1.1076497581887D-01  1.3547843370509D+00
97  9.6000000000000D-01  8.4392854832226D-02  1.3751002095812D+00
98  9.7000000000000D-01  5.8746009773949D-02  1.3898478707911D+00
99  9.8000000000000D-01  3.3838192894374D-02  1.3986833433210D+00
100  9.9000000000000D-01  9.6819254573151D-03  1.4013009709841D+00
101  1.0000000000000D+00 -1.3711358729752D-02  1.3974372922768D+00
102  1.0100000000000D+00 -3.6331175697935D-02  1.3868745678778D+00
103  1.0200000000000D+00 -5.8167861403152D-02  1.3694439212826D+00
104  1.0300000000000D+00 -7.9212451197575D-02  1.3450280551477D+00
105  1.0400000000000D+00 -9.9456570237431D-02  1.3135635098194D+00
106  1.0500000000000D+00 -1.1889233623204D-01  1.2750424347833D+00
107  1.0600000000000D+00 -1.3751227576664D-01  1.2295138486533D+00
108  1.0700000000000D+00 -1.5530925527666D-01  1.1770843676528D+00
109  1.0800000000000D+00 -1.7227642753534D-01  1.1179183884675D+00
110  1.0900000000000D+00 -1.8840719433515D-01  1.0522377162426D+00
111  1.1000000000000D+00 -2.0369518582938D-01  9.8032063423713D-01
112  1.1100000000000D+00 -2.1813425678280D-01  9.0250041738347D-01
113  1.1200000000000D+00 -2.3171849978949D-01  8.1916329701662D-01
114  1.1300000000000D+00 -2.4444227525848D-01  7.3074589071501D-01
115  1.1400000000000D+00 -2.5630025778310D-01  6.3773211592613D-01
116  1.1500000000000D+00 -2.6728749827164D-01  5.4064961213054D-01
117  1.1600000000000D+00 -2.7739950105966D-01  4.4006570027897D-01
118  1.1700000000000D+00 -2.8663231495686D-01  3.3658291493259D-01
119  1.1800000000000D+00 -2.9498263703779D-01  2.3083414807472D-01
120  1.1900000000000D+00 -3.0244792780587D-01  1.2347744796586D-01
121  1.2000000000000D+00 -3.0902653620188D-01  1.5190520288849D-02
122  1.2100000000000D+00 -3.1471783275658D-01 -9.3335017108273D-02
123  1.2200000000000D+00 -3.1952234907979D-01 -2.0139957210817D-01
124  1.2300000000000D+00 -3.2344192180226D-01 -3.0830165328275D-01
125  1.2400000000000D+00 -3.2647983892958D-01 -4.1334402286968D-01
126  1.2500000000000D+00 -3.2864098656161D-01 -5.1583986884748D-01
127  1.2600000000000D+00 -3.2993199387750D-01 -6.1511893600878D-01
128  1.2700000000000D+00 -3.3036137423759D-01 -7.1053355525052D-01
129  1.2800000000000D+00 -3.2993966030965D-01 -8.0146451211422D-01
130  1.2900000000000D+00 -3.2867953111074D-01 -8.8732669530380D-01
131  1.3000000000000D+00 -3.2659592890972D-01 -9.6757446790765D-01
132  1.3100000000000D+00 -3.2370616409361D-01 -1.0417067085122D+00
133  1.3200000000000D+00 -3.2003000604914D-01 -1.1092714680327D+00
134  1.3300000000000D+00 -3.1558975833894D-01 -1.1698701947057D+00
135  1.3400000000000D+00 -3.1041031668541D-01 -1.2231614859557D+00
136  1.3500000000000D+00 -3.0451920808417D-01 -1.2688643207820D+00
137  1.3600000000000D+00 -2.9794661000173D-01 -1.3067607436022D+00
138  1.3700000000000D+00 -2.9072534853831D-01 -1.3366979683226D+00
139  1.3800000000000D+00 -2.8289087451213D-01 -1.3585898736530D+00
140  1.3900000000000D+00 -2.7448121715553D-01 -1.3724178802021D+00
141  1.4000000000000D+00 -2.6553691467070D-01 -1.3782311881160D+00
142  1.4100000000000D+00 -2.5610092162431D-01 -1.3761463735238D+00
143  1.4200000000000D+00 -2.4621849338697D-01 -1.3663463479159D+00
144  1.4300000000000D+00 -2.3593704747617D-01 -1.3490786755399D+00
145  1.4400000000000D+00 -2.2530600294781D-01 -1.3246532776790D+00
146  1.4500000000000D+00 -2.1437659807121D-01 -1.2934395287726D+00
147  1.4600000000000D+00 -2.0320168763680D-01 -1.2558627785874D+00
148  1.4700000000000D+00 -1.9183552113628D-01 -1.2124003316901D+00
149  1.4800000000000D+00 -1.8033350294450D-01 -1.1635769126757D+00
150  1.4900000000000D+00 -1.6875193677734D-01 -1.1099596753693D+00
151  1.5000000000000D+00 -1.5714775552287D-01 -1.0521527836280D+00
152  1.5100000000000D+00 -1.4557823919821D-01 -9.9079163438267D-01
153  1.5200000000000D+00 -1.3410072265010D-01 -9.2653676408959D-01
154  1.5300000000000D+00 -1.2277229565105D-01 -8.6006750660219D-01
155  1.5400000000000D+00 -1.1164949764776D-01 -7.9207546023887D-01
156  1.5500000000000D+00 -1.0078800970719D-01 -7.2325782926025D-01
157  1.5600000000000D+00 -9.0242346230243D-02 -6.5431070573885D-01
158  1.5700000000000D+00 -8.0065549066023D-02 -5.8592235922990D-01
159  1.5800000000000D+00 -7.0308886500239D-02 -5.1876659789133D-01
160  1.5900000000000D+00 -6.1021560011252D-02 -4.5349627511843D-01
161  1.6000000000000D+00 -5.2250420900067D-02 -3.9073699601083D-01
162  1.6100000000000D+00 -4.4039699862442D-02 -3.3108110225519D-01
163  1.6200000000000D+00 -3.6430751241220D-02 -2.7508198033665D-01
164  1.6300000000000D+00 -2.9461814947543D-02 -2.2324876970236D-01
165  1.6400000000000D+00 -2.3167797485174D-02 -1.7604150802987D-01
166  1.6500000000000D+00 -1.7580074749286D-02 -1.3386678218310D-01
167  1.6600000000000D+00 -1.2728422492037D-02 -9.7089994328061D-02
168  1.6700000000000D+00 -8.6334413092054D-03 -6.5975410371596D-02
169  1.6800000000000D+00 -5.2993364649723D-03 -4.0626378109735D-02
170  1.6900000000000D+00 -2.7668568128668D-03 -2.1399026777263D-02
171  1.7000000000000D+00 -1.1035631191382D-03 -8.8372184204355D-03
172  1.7100000000000D+00 -2.3952174513671D-04 -2.3433653484031D-03
173  1.7200000000000D+00  5.9485405173570D-05  2.4860046860896D-05
174  1.7300000000000D+00  5.5959089018111D-05  2.6183009136502D-04
175  1.7400000000000D+00 -1.4581526110644D-05 -7.6342451737627D-05
176  1.7500000000000D+00 -2.1794527464659D-05 -1.2048740154062D-04
177  1.7600000000000D+00  1.8785756708344D-06  9.0236739148890D-06
178  1.7700000000000D+00  4.3358912415395D-06  2.1630561267937D-05
179  1.7800000000000D+00  4.3049456215534D-09  3.6133513462621D-07
180  1.7900000000000D+00  1.8307103456949D-08  1.5366047039279D-06
181  1.8000000000000D+00  6.0884477258947D-12  5.1103318650212D-10
182  1.8100000000000D+00  0.0000000000000D+00  0.0000000000000D+00
183  1.8200000000000D+00  0.0000000000000D+00  0.0000000000000D+00
184  1.8300000000000D+00  0.0000000000000D+00  0.0000000000000D+00
185  1.8400000000000D+00  0.0000000000000D+00  0.0000000000000D+00
186  1.8500000000000D+00  0.0000000000000D+00  0.0000000000000D+00
187  1.8600000000000D+00  0.0000000000000D+00  0.0000000000000D+00
188  1.8700000000000D+00  0.0000000000000D+00  0.0000000000000D+00
189  1.8800000000000D+00  0.0000000000000D+00  0.0000000000000D+00
190  1.8900000000000D+00  0.0000000000000D+00  0.0000000000000D+00
191  1.9000000000000D+00  0.0000000000000D+00  0.0000000000000D+00
192  1.9100000000000D+00  0.0000000000000D+00  0.0000000000000D+00
193  1.9200000000000D+00  0.0000000000000D+00  0.0000000000000D+00
194  1.9300000000000D+00  0.0000000000000D+00  0.0000000000000D+00
195  1.9400000000000D+00  0.0000000000000D+00  0.0000000000000D+00
196  1.9500000000000D+00  0.0000000000000D+00  0.0000000000000D+00
197  1.9600000000000D+00  0.0000000000000D+00  0.0000000000000D+00
198  1.9700000000000D+00  0.0000000000000D+00  0.0000000000000D+00
199  1.9800000000000D+00  0.0000000000000D+00  0.0000000000000D+00
200  1.9900000000000D+00  0.0000000000000D+00  0.0000000000000D+00
201  2.0000000000000D+00  0.0000000000000D+00  0.0000000000000D+00
202  2.0100000000000D+00  0.0000000000000D+00  0.0000000000000D+00
203  2.0200000000000D+00  0.0000000000000D+00  0.0000000000000D+00
204  2.0300000000000D+00  0.0000000000000D+00  0.0000000000000D+00
205  2.0400000000000D+00  0.0000000000000D+00  0.0000000000000D+00
206  2.0500000000000D+00  0.0000000000000D+00  0.0000000000000D+00
207  2.0600000000000D+00  0.0000000000000D+00  0.0000000000000D+00
208  2.0700000000000D+00  0.0000000000000D+00  0.0000000000000D+00
209  2.0800000000000D+00  0.0000000000000D+00  0.0000000000000D+00
210  2.0900000000000D+00  0.0000000000000D+00  0.0000000000000D+00
211  2.1000000000000D+00  0.0000000000000D+00  0.0000000000000D+00
212  2.1100000000000D+00  0.0000000000000D+00  0.0000000000000D+00
213  2.1200000000000D+00  0.0000000000000D+00  0.0000000000000D+00
214  2.1300000000000D+00  0.0000000000000D+00  0.0000000000000D+00
215  2.1400000000000D+00  0.0000000000000D+00  0.0000000000000D+00
216  2.1500000000000D+00  0.0000000000000D+00  0.0000000000000D+00
217  2.1600000000000D+00  0.0000000000000D+00  0.0000000000000D+00
218  2.1700000000000D+00  0.0000000000000D+00  0.0000000000000D+00
219  2.1800000000000D+00  0.0000000000000D+00  0.0000000000000D+00
220  2.1900000000000D+00  0.0000000000000D+00  0.0000000000000D+00
221  2.2000000000000D+00  0.0000000000000D+00  0.0000000000000D+00
222  2.2100000000000D+00  0.0000000000000D+00  0.0000000000000D+00
223  2.2200000000000D+00  0.0000000000000D+00  0.0000000000000D+00
224  2.2300000000000D+00  0.0000000000000D+00  0.0000000000000D+00
225  2.2400000000000D+00  0.0000000000000D+00  0.0000000000000D+00
226  2.2500000000000D+00  0.0000000000000D+00  0.0000000000000D+00
227  2.2600000000000D+00  0.0000000000000D+00  0.0000000000000D+00
228  2.2700000000000D+00  0.0000000000000D+00  0.0000000000000D+00
229  2.2800000000000D+00  0.0000000000000D+00  0.0000000000000D+00
230  2.2900000000000D+00  0.0000000000000D+00  0.0000000000000D+00
231  2.3000000000000D+00  0.0000000000000D+00  0.0000000000000D+00
232  2.3100000000000D+00  0.0000000000000D+00  0.0000000000000D+00
233  2.3200000000000D+00  0.0000000000000D+00  0.0000000000000D+00
234  2.3300000000000D+00  0.0000000000000D+00  0.0000000000000D+00
235  2.3400000000000D+00  0.0000000000000D+00  0.0000000000000D+00
236  2.3500000000000D+00  0.0000000000000D+00  0.0000000000000D+00
237  2.3600000000000D+00  0.0000000000000D+00  0.0000000000000D+00
238  2.3700000000000D+00  0.0000000000000D+00  0.0000000000000D+00
239  2.3800000000000D+00  0.0000000000000D+00  0.0000000000000D+00
240  2.3900000000000D+00  0.0000000000000D+00  0.0000000000000D+00
241  2.4000000000000D+00  0.0000000000000D+00  0.0000000000000D+00
242  2.4100000000000D+00  0.0000000000000D+00  0.0000000000000D+00
243  2.4200000000000D+00  0.0000000000000D+00  0.0000000000000D+00
244  2.4300000000000D+00  0.0000000000000D+00  0.0000000000000D+00
245  2.4400000000000D+00  0.0000000000000D+00  0.0000000000000D+00
246  2.4500000000000D+00  0.0000000000000D+00  0.0000000000000D+00
247  2.4600000000000D+00  0.0000000000000D+00  0.0000000000000D+00
248  2.4700000000000D+00  0.0000000000000D+00  0.0000000000000D+00
249  2.4800000000000D+00  0.0000000000000D+00  0.0000000000000D+00
250  2.4900000000000D+00  0.0000000000000D+00  0.0000000000000D+00
251  2.5000000000000D+00  0.0000000000000D+00  0.0000000000000D+00
252  2.5100000000000D+00  0.0000000000000D+00  0.0000000000000D+00
253  2.5200000000000D+00  0.0000000000000D+00  0.0000000000000D+00
254  2.5300000000000D+00  0.0000000000000D+00  0.0000000000000D+00
255  2.5400000000000D+00  0.0000000000000D+00  0.0000000000000D+00
256  2.5500000000000D+00  0.0000000000000D+00  0.0000000000000D+00
257  2.5600000000000D+00  0.0000000000000D+00  0.0000000000000D+00
258  2.5700000000000D+00  0.0000000000000D+00  0.0000000000000D+00
259  2.5800000000000D+00  0.0000000000000D+00  0.0000000000000D+00
260  2.5900000000000D+00  0.0000000000000D+00  0.0000000000000D+00
261  2.6000000000000D+00  0.0000000000000D+00  0.0000000000000D+00
262  2.6100000000000D+00  0.0000000000000D+00  0.0000000000000D+00
263  2.6200000000000D+00  0.0000000000000D+00  0.0000000000000D+00
264  2.6300000000000D+00  0.0000000000000D+00  0.0000000000000D+00
265  2.6400000000000D+00  0.0000000000000D+00  0.0000000000000D+00
266  2.6500000000000D+00  0.0000000000000D+00  0.0000000000000D+00
267  2.6600000000000D+00  0.0000000000000D+00  0.0000000000000D+00
268  2.6700000000000D+00  0.0000000000000D+00  0.0000000000000D+00
269  2.6800000000000D+00  0.0000000000000D+00  0.0000000000000D+00
270  2.6900000000000D+00  0.0000000000000D+00  0.0000000000000D+00
271  2.7000000000000D+00  0.0000000000000D+00  0.0000000000000D+00
272  2.7100000000000D+00  0.0000000000000D+00  0.0000000000000D+00
273  2.7200000000000D+00  0.0000000000000D+00  0.0000000000000D+00
274  2.7300000000000D+00  0.0000000000000D+00  0.0000000000000D+00
275  2.7400000000000D+00  0.0000000000000D+00  0.0000000000000D+00
276  2.7500000000000D+00  0.0000000000000D+00  0.0000000000000D+00
277  2.7600000000000D+00  0.0000000000000D+00  0.0000000000000D+00
278  2.7700000000000D+00  0.0000000000000D+00  0.0000000000000D+00
279  2.7800000000000D+00  0.0000000000000D+00  0.0000000000000D+00
280  2.7900000000000D+00  0.0000000000000D+00  0.0000000000000D+00
281  2.8000000000000D+00  0.0000000000000D+00  0.0000000000000D+00
282  2.8100000000000D+00  0.0000000000000D+00  0.0000000000000D+00
283  2.8200000000000D+00  0.0000000000000D+00  0.0000000000000D+00
284  2.8300000000000D+00  0.0000000000000D+00  0.0000000000000D+00
285  2.8400000000000D+00  0.0000000000000D+00  0.0000000000000D+00
286  2.8500000000000D+00  0.0000000000000D+00  0.0000000000000D+00
287  2.8600000000000D+00  0.0000000000000D+00  0.0000000000000D+00
288  2.8700000000000D+00  0.0000000000000D+00  0.0000000000000D+00
289  2.8800000000000D+00  0.0000000000000D+00  0.0000000000000D+00
290  2.8900000000000D+00  0.0000000000000D+00  0.0000000000000D+00
291  2.9000000000000D+00  0.0000000000000D+00  0.0000000000000D+00
292  2.9100000000000D+00  0.0000000000000D+00  0.0000000000000D+00
293  2.9200000000000D+00  0.0000000000000D+00  0.0000000000000D+00
294  2.9300000000000D+00  0.0000000000000D+00  0.0000000000000D+00
295  2.9400000000000D+00  0.0000000000000D+00  0.0000000000000D+00
296  2.9500000000000D+00  0.0000000000000D+00  0.0000000000000D+00
297  2.9600000000000D+00  0.0000000000000D+00  0.0000000000000D+00
298  2.9700000000000D+00  0.0000000000000D+00  0.0000000000000D+00
299  2.9800000000000D+00  0.0000000000000D+00  0.0000000000000D+00
300  2.9900000000000D+00  0.0000000000000D+00  0.0000000000000D+00
301  3.0000000000000D+00  0.0000000000000D+00  0.0000000000000D+00
302  3.0100000000000D+00  0.0000000000000D+00  0.0000000000000D+00
303  3.0200000000000D+00  0.0000000000000D+00  0.0000000000000D+00
304  3.0300000000000D+00  0.0000000000000D+00  0.0000000000000D+00
305  3.0400000000000D+00  0.0000000000000D+00  0.0000000000000D+00
306  3.0500000000000D+00  0.0000000000000D+00  0.0000000000000D+00
307  3.0600000000000D+00  0.0000000000000D+00  0.0000000000000D+00
308  3.0700000000000D+00  0.0000000000000D+00  0.0000000000000D+00
309  3.0800000000000D+00  0.0000000000000D+00  0.0000000000000D+00
310  3.0900000000000D+00  0.0000000000000D+00  0.0000000000000D+00
311  3.1000000000000D+00  0.0000000000000D+00  0.0000000000000D+00
312  3.1100000000000D+00  0.0000000000000D+00  0.0000000000000D+00
313  3.1200000000000D+00  0.0000000000000D+00  0.0000000000000D+00
314  3.1300000000000D+00  0.0000000000000D+00  0.0000000000000D+00
315  3.1400000000000D+00  0.0000000000000D+00  0.0000000000000D+00
316  3.1500000000000D+00  0.0000000000000D+00  0.0000000000000D+00
317  3.1600000000000D+00  0.0000000000000D+00  0.0000000000000D+00
318  3.1700000000000D+00  0.0000000000000D+00  0.0000000000000D+00
319  3.1800000000000D+00  0.0000000000000D+00  0.0000000000000D+00
320  3.1900000000000D+00  0.0000000000000D+00  0.0000000000000D+00
321  3.2000000000000D+00  0.0000000000000D+00  0.0000000000000D+00
322  3.2100000000000D+00  0.0000000000000D+00  0.0000000000000D+00
323  3.2200000000000D+00  0.0000000000000D+00  0.0000000000000D+00
324  3.2300000000000D+00  0.0000000000000D+00  0.0000000000000D+00
325  3.2400000000000D+00  0.0000000000000D+00  0.0000000000000D+00
326  3.2500000000000D+00  0.0000000000000D+00  0.0000000000000D+00
327  3.2600000000000D+00  0.0000000000000D+00  0.0000000000000D+00
328  3.2700000000000D+00  0.0000000000000D+00  0.0000000000000D+00
329  3.2800000000000D+00  0.0000000000000D+00  0.0000000000000D+00
330  3.2900000000000D+00  0.0000000000000D+00  0.0000000000000D+00
331  3.3000000000000D+00  0.0000000000000D+00  0.0000000000000D+00
332  3.3100000000000D+00  0.0000000000000D+00  0.0000000000000D+00
333  3.3200000000000D+00  0.0000000000000D+00  0.0000000000000D+00
334  3.3300000000000D+00  0.0000000000000D+00  0.0000000000000D+00
335  3.3400000000000D+00  0.0000000000000D+00  0.0000000000000D+00
336  3.3500000000000D+00  0.0000000000000D+00  0.0000000000000D+00
337  3.3600000000000D+00  0.0000000000000D+00  0.0000000000000D+00
338  3.3700000000000D+00  0.0000000000000D+00  0.0000000000000D+00
339  3.3800000000000D+00  0.0000000000000D+00  0.0000000000000D+00
340  3.3900000000000D+00  0.0000000000000D+00  0.0000000000000D+00
341  3.4000000000000D+00  0.0000000000000D+00  0.0000000000000D+00
342  3.4100000000000D+00  0.0000000000000D+00  0.0000000000000D+00
343  3.4200000000000D+00  0.0000000000000D+00  0.0000000000000D+00
344  3.4300000000000D+00  0.0000000000000D+00  0.0000000000000D+00
345  3.4400000000000D+00  0.0000000000000D+00  0.0000000000000D+00
346  3.4500000000000D+00  0.0000000000000D+00  0.0000000000000D+00
347  3.4600000000000D+00  0.0000000000000D+00  0.0000000000000D+00
348  3.4700000000000D+00  0.0000000000000D+00  0.0000000000000D+00
349  3.4800000000000D+00  0.0000000000000D+00  0.0000000000000D+00
350  3.4900000000000D+00  0.0000000000000D+00  0.0000000000000D+00
351  3.5000000000000D+00  0.0000000000000D+00  0.0000000000000D+00
352  3.5100000000000D+00  0.0000000000000D+00  0.0000000000000D+00
353  3.5200000000000D+00  0.0000000000000D+00  0.0000000000000D+00
354  3.5300000000000D+00  0.0000000000000D+00  0.0000000000000D+00
355  3.5400000000000D+00  0.0000000000000D+00  0.0000000000000D+00
356  3.5500000000000D+00  0.0000000000000D+00  0.0000000000000D+00
357  3.5600000000000D+00  0.0000000000000D+00  0.0000000000000D+00
358  3.5700000000000D+00  0.0000000000000D+00  0.0000000000000D+00
359  3.5800000000000D+00  0.0000000000000D+00  0.0000000000000D+00
360  3.5900000000000D+00  0.0000000000000D+00  0.0000000000000D+00
361  3.6000000000000D+00  0.0000000000000D+00  0.0000000000000D+00
362  3.6100000000000D+00  0.0000000000000D+00  0.0000000000000D+00
363  3.6200000000000D+00  0.0000000000000D+00  0.0000000000000D+00
364  3.6300000000000D+00  0.0000000000000D+00  0.0000000000000D+00
365  3.6400000000000D+00  0.0000000000000D+00  0.0000000000000D+00
366  3.6500000000000D+00  0.0000000000000D+00  0.0000000000000D+00
367  3.6600000000000D+00  0.0000000000000D+00  0.0000000000000D+00
368  3.6700000000000D+00  0.0000000000000D+00  0.0000000000000D+00
369  3.6800000000000D+00  0.0000000000000D+00  0.0000000000000D+00
370  3.6900000000000D+00  0.0000000000000D+00  0.0000000000000D+00
371  3.7000000000000D+00  0.0000000000000D+00  0.0000000000000D+00
372  3.7100000000000D+00  0.0000000000000D+00  0.0000000000000D+00
373  3.7200000000000D+00  0.0000000000000D+00  0.0000000000000D+00
374  3.7300000000000D+00  0.0000000000000D+00  0.0000000000000D+00
375  3.7400000000000D+00  0.0000000000000D+00  0.0000000000000D+00
376  3.7500000000000D+00  0.0000000000000D+00  0.0000000000000D+00
377  3.7600000000000D+00  0.0000000000000D+00  0.0000000000000D+00
378  3.7700000000000D+00  0.0000000000000D+00  0.0000000000000D+00
379  3.7800000000000D+00  0.0000000000000D+00  0.0000000000000D+00
380  3.7900000000000D+00  0.0000000000000D+00  0.0000000000000D+00
381  3.8000000000000D+00  0.0000000000000D+00  0.0000000000000D+00
382  3.8100000000000D+00  0.0000000000000D+00  0.0000000000000D+00
383  3.8200000000000D+00  0.0000000000000D+00  0.0000000000000D+00
384  3.8300000000000D+00  0.0000000000000D+00  0.0000000000000D+00
385  3.8400000000000D+00  0.0000000000000D+00  0.0000000000000D+00
386  3.8500000000000D+00  0.0000000000000D+00  0.0000000000000D+00
387  3.8600000000000D+00  0.0000000000000D+00  0.0000000000000D+00
388  3.8700000000000D+00  0.0000000000000D+00  0.0000000000000D+00
389  3.8800000000000D+00  0.0000000000000D+00  0.0000000000000D+00
390  3.8900000000000D+00  0.0000000000000D+00  0.0000000000000D+00
391  3.9000000000000D+00  0.0000000000000D+00  0.0000000000000D+00
392  3.9100000000000D+00  0.0000000000000D+00  0.0000000000000D+00
393  3.9200000000000D+00  0.0000000000000D+00  0.0000000000000D+00
394  3.9300000000000D+00  0.0000000000000D+00  0.0000000000000D+00
395  3.9400000000000D+00  0.0000000000000D+00  0.0000000000000D+00
396  3.9500000000000D+00  0.0000000000000D+00  0.0000000000000D+00
397  3.9600000000000D+00  0.0000000000000D+00  0.0000000000000D+00
398  3.9700000000000D+00  0.0000000000000D+00  0.0000000000000D+00
399  3.9800000000000D+00  0.0000000000000D+00  0.0000000000000D+00
400  3.9900000000000D+00  0.0000000000000D+00  0.0000000000000D+00
401  4.0000000000000D+00  0.0000000000000D+00  0.0000000000000D+00
402  4.0100000000000D+00  0.0000000000000D+00  0.0000000000000D+00
403  4.0200000000000D+00  0.0000000000000D+00  0.0000000000000D+00
404  4.0300000000000D+00  0.0000000000000D+00  0.0000000000000D+00
405  4.0400000000000D+00  0.0000000000000D+00  0.0000000000000D+00
406  4.0500000000000D+00  0.0000000000000D+00  0.0000000000000D+00
407  4.0600000000000D+00  0.0000000000000D+00  0.0000000000000D+00
408  4.0700000000000D+00  0.0000000000000D+00  0.0000000000000D+00
409  4.0800000000000D+00  0.0000000000000D+00  0.0000000000000D+00
410  4.0900000000000D+00  0.0000000000000D+00  0.0000000000000D+00
411  4.1000000000000D+00  0.0000000000000D+00  0.0000000000000D+00
412  4.1100000000000D+00  0.0000000000000D+00  0.0000000000000D+00
413  4.1200000000000D+00  0.0000000000000D+00  0.0000000000000D+00
414  4.1300000000000D+00  0.0000000000000D+00  0.0000000000000D+00
415  4.1400000000000D+00  0.0000000000000D+00  0.0000000000000D+00
416  4.1500000000000D+00  0.0000000000000D+00  0.0000000000000D+00
417  4.1600000000000D+00  0.0000000000000D+00  0.0000000000000D+00
418  4.1700000000000D+00  0.0000000000000D+00  0.0000000000000D+00
419  4.1800000000000D+00  0.0000000000000D+00  0.0000000000000D+00
420  4.1900000000000D+00  0.0000000000000D+00  0.0000000000000D+00
421  4.2000000000000D+00  0.0000000000000D+00  0.0000000000000D+00
422  4.2100000000000D+00  0.0000000000000D+00  0.0000000000000D+00
423  4.2200000000000D+00  0.0000000000000D+00  0.0000000000000D+00
424  4.2300000000000D+00  0.0000000000000D+00  0.0000000000000D+00
425  4.2400000000000D+00  0.0000000000000D+00  0.0000000000000D+00
426  4.2500000000000D+00  0.0000000000000D+00  0.0000000000000D+00
427  4.2600000000000D+00  0.0000000000000D+00  0.0000000000000D+00
428  4.2700000000000D+00  0.0000000000000D+00  0.0000000000000D+00
429  4.2800000000000D+00  0.0000000000000D+00  0.0000000000000D+00
430  4.2900000000000D+00  0.0000000000000D+00  0.0000000000000D+00
431  4.3000000000000D+00  0.0000000000000D+00  0.0000000000000D+00
432  4.3100000000000D+00  0.0000000000000D+00  0.0000000000000D+00
433  4.3200000000000D+00  0.0000000000000D+00  0.0000000000000D+00
434  4.3300000000000D+00  0.0000000000000D+00  0.0000000000000D+00
435  4.3400000000000D+00  0.0000000000000D+00  0.0000000000000D+00
436  4.3500000000000D+00  0.0000000000000D+00  0.0000000000000D+00
437  4.3600000000000D+00  0.0000000000000D+00  0.0000000000000D+00
438  4.3700000000000D+00  0.0000000000000D+00  0.0000000000000D+00
439  4.3800000000000D+00  0.0000000000000D+00  0.0000000000000D+00
440  4.3900000000000D+00  0.0000000000000D+00  0.0000000000000D+00
441  4.4000000000000D+00  0.0000000000000D+00  0.0000000000000D+00
442  4.4100000000000D+00  0.0000000000000D+00  0.0000000000000D+00
443  4.4200000000000D+00  0.0000000000000D+00  0.0000000000000D+00