Ti    ONCVPSP  r_core=  1.36  1.31  1.66
22.0000     12.0000      160114    zatom,zion,pspd
8      11   2     4   600     0    pspcod,pspxc,lmax,lloc,mmax,r2well
5.99000000  2.50000000  0.00000000    rchrg fchrg qchrg
2     2     2     0     0    nproj
0                 extension_switch
0                         1.0556722744687D+01  1.0945985971820D+00
1  0.0000000000000D+00 -2.6041937495336D-09  9.6805805038791D-09
2  1.0000000000000D-02  8.7334452320994D-02 -5.0631765433201D-02
3  2.0000000000000D-02  1.7434335747682D-01 -1.0061409049778D-01
4  3.0000000000000D-02  2.6070407491694D-01 -1.4930693690486D-01
5  4.0000000000000D-02  3.4609973531375D-01 -1.9608891746380D-01
6  5.0000000000000D-02  4.3022202183646D-01 -2.4036624149947D-01
7  6.0000000000000D-02  5.1277382810793D-01 -2.8158121112989D-01
8  7.0000000000000D-02  5.9347175485250D-01 -3.1922013026706D-01
9  8.0000000000000D-02  6.7204840984754D-01 -3.5282049788433D-01
10  9.0000000000000D-02  7.4825447896614D-01 -3.8197736889714D-01
11  1.0000000000000D-01  8.2186053979406D-01 -4.0634877973822D-01
12  1.1000000000000D-01  8.9265859345845D-01 -4.2566015115195D-01
13  1.2000000000000D-01  9.6046329485373D-01 -4.3970759763226D-01
14  1.3000000000000D-01  1.0251128663157D+00 -4.4836009101240D-01
15  1.4000000000000D-01  1.0864696849010D+00 -4.5156044468556D-01
16  1.5000000000000D-01  1.1444205386913D+00 -4.4932510448580D-01
17  1.6000000000000D-01  1.1988765528735D+00 -4.4174275206771D-01
18  1.7000000000000D-01  1.2497727916665D+00 -4.2897174636781D-01
19  1.8000000000000D-01  1.2970675473743D+00 -4.1123644808508D-01
20  1.9000000000000D-01  1.3407413328739D+00 -3.8882249076567D-01
21  2.0000000000000D-01  1.3807955985968D+00 -3.6207107970742D-01
22  2.1000000000000D-01  1.4172511994656D+00 -3.3137241622312D-01
23  2.2000000000000D-01  1.4501466412303D+00 -2.9715835954327D-01
24  2.3000000000000D-01  1.4795361391357D+00 -2.5989445155373D-01
25  2.4000000000000D-01  1.5054875247973D+00 -2.2007144043200D-01
26  2.5000000000000D-01  1.5280800395080D+00 -1.7819644788141D-01
27  2.6000000000000D-01  1.5474020539043D+00 -1.3478393091618D-01
28  2.7000000000000D-01  1.5635487549625D+00 -9.0346592908294D-02
29  2.8000000000000D-01  1.5766198416481D+00 -4.5386399799673D-02
30  2.9000000000000D-01  1.5867172701980D+00 -3.8585597682085D-04
31  3.0000000000000D-01  1.5939430889853D+00  4.4200309684983D-02
32  3.1000000000000D-01  1.5983974012024D+00  8.7952903623110D-02
33  3.2000000000000D-01  1.6001764912412D+00  1.3049533820783D-01
34  3.3000000000000D-01  1.5993711476695D+00  1.7149988941164D-01
35  3.4000000000000D-01  1.5960652121644D+00  2.1069303114057D-01
36  3.5000000000000D-01  1.5903343797068D+00  2.4785975113888D-01
37  3.6000000000000D-01  1.5822452708437D+00  2.8284677034934D-01
38  3.7000000000000D-01  1.5718547919534D+00  3.1556460598308D-01
39  3.8000000000000D-01  1.5592097942837D+00  3.4598843803148D-01
40  3.9000000000000D-01  1.5443470371599D+00  3.7415775921987D-01
41  4.0000000000000D-01  1.5272934552701D+00  4.0017480912792D-01
42  4.1000000000000D-01  1.5080667244090D+00  4.2420181404725D-01
43  4.2000000000000D-01  1.4866761146134D+00  4.4645707476336D-01
44  4.3000000000000D-01  1.4631236143149D+00  4.6720996449730D-01
45  4.4000000000000D-01  1.4374053040893D+00  4.8677491838322D-01
46  4.5000000000000D-01  1.4095129538567D+00  5.0550451376985D-01
47  4.6000000000000D-01  1.3794358130853D+00  5.2378175700828D-01
48  4.7000000000000D-01  1.3471625597343D+00  5.4201170694325D-01
49  4.8000000000000D-01  1.3126833704171D+00  5.6061257780753D-01
50  4.9000000000000D-01  1.2759920716270D+00  5.8000647440024D-01
51  5.0000000000000D-01  1.2370883298975D+00  6.0060992012910D-01
52  5.1000000000000D-01  1.1959798375035D+00  6.2282434356299D-01
53  5.2000000000000D-01  1.1526844497810D+00  6.4702669146875D-01
54  5.3000000000000D-01  1.1072322303612D+00  6.7356033583419D-01
55  5.4000000000000D-01  1.0596673615866D+00  7.0272643909870D-01
56  5.5000000000000D-01  1.0100498790949D+00  7.3477593573292D-01
57  5.6000000000000D-01  9.5845719199213D-01  7.6990227954724D-01
58  5.7000000000000D-01  9.0498535316656D-01  8.0823509472933D-01
59  5.8000000000000D-01  8.4975004806452D-01  8.4983485484491D-01
60  5.9000000000000D-01  7.9288727460783D-01  8.9468869802628D-01
61  6.0000000000000D-01  7.3455369180770D-01  9.4270746863084D-01
62  6.1000000000000D-01  6.7492661996137D-01  9.9372405596399D-01
63  6.2000000000000D-01  6.1420368098275D-01  1.0474930797007D+00
64  6.3000000000000D-01  5.5260207339646D-01  1.1036919494721D+00
65  6.4000000000000D-01  4.9035748262155D-01  1.1619233034338D+00
66  6.5000000000000D-01  4.2772263338883D-01  1.2217188074891D+00
67  6.6000000000000D-01  3.6496549730554D-01  1.2825442738283D+00
68  6.7000000000000D-01  3.0236717460058D-01  1.3438060349487D+00
69  6.8000000000000D-01  2.4021947490798D-01  1.4048584874995D+00
70  6.9000000000000D-01  1.7882222740853D-01  1.4650126997764D+00
71  7.0000000000000D-01  1.1848035570114D-01  1.5235459576512D+00
72  7.1000000000000D-01  5.9500757289819D-02  1.5797121066371D+00
73  7.2000000000000D-01  2.1890315335201D-03  1.6327525327128D+00
74  7.3000000000000D-01 -5.3153896844358D-02  1.6819076120587D+00
75  7.4000000000000D-01 -1.0623520904167D-01  1.7264284499572D+00
76  7.5000000000000D-01 -1.5677362685137D-01  1.7655887220876D+00
77  7.6000000000000D-01 -2.0450279836925D-01  1.7986964274282D+00
78  7.7000000000000D-01 -2.4917458227113D-01  1.8251053610338D+00
79  7.8000000000000D-01 -2.9056217894135D-01  1.8442261171753D+00
80  7.9000000000000D-01 -3.2846305832337D-01  1.8555364386539D+00
81  8.0000000000000D-01 -3.6270163678563D-01  1.8585907365094D+00
82  8.1000000000000D-01 -3.9313165851702D-01  1.8530286157083D+00
83  8.2000000000000D-01 -4.1963824094391D-01  1.8385822565631D+00
84  8.3000000000000D-01 -4.4213954833625D-01  1.8150825183973D+00
85  8.4000000000000D-01 -4.6058806307518D-01  1.7824636510730D+00
86  8.5000000000000D-01 -4.7497142990911D-01  1.7407665211515D+00
87  8.6000000000000D-01 -4.8531285483809D-01  1.6901402823306D+00
88  8.7000000000000D-01 -4.9167104694090D-01  1.6308424440381D+00
89  8.8000000000000D-01 -4.9413969838880D-01  1.5632373172673D+00
90  8.9000000000000D-01 -4.9284650496541D-01  1.4877928425218D+00
91  9.0000000000000D-01 -4.8795173651922D-01  1.4050758306642D+00
92  9.1000000000000D-01 -4.7964637379875D-01  1.3157456731259D+00
93  9.2000000000000D-01 -4.6814983494607D-01  1.2205466028963D+00
94  9.3000000000000D-01 -4.5370732143887D-01  1.1202986115681D+00
95  9.4000000000000D-01 -4.3658681936747D-01  1.0158871500606D+00
96  9.5000000000000D-01 -4.1707579750685D-01  9.0825176110371D-01
97  9.6000000000000D-01 -3.9547764859924D-01  7.9837380977988D-01
98  9.7000000000000D-01 -3.7210792454161D-01  6.8726349417208D-01
99  9.8000000000000D-01 -3.4729041959145D-01  5.7594633078589D-01
100  9.9000000000000D-01 -3.2135315842864D-01  4.6544931949817D-01
101  1.0000000000000D+00 -2.9462434761436D-01  3.5678699913723D-01
102  1.0100000000000D+00 -2.6742834983185D-01  2.5094760800922D-01
103  1.0200000000000D+00 -2.4008174018936D-01  1.4887956342447D-01
104  1.0300000000000D+00 -2.1288950283008D-01  5.1478470607161D-02
105  1.0400000000000D+00 -1.8614142394497D-01 -4.0425136378038D-02
106  1.0500000000000D+00 -1.6010873475138D-01 -1.2607712821718D-01
107  1.0600000000000D+00 -1.3504105379242D-01 -2.0481001028295D-01
108  1.0700000000000D+00 -1.1116367360810D-01 -2.7605188641034D-01
109  1.0800000000000D+00 -8.8675231484937D-02 -3.3933401348391D-01
110  1.0900000000000D+00 -6.7745797497983D-02 -3.9429682749767D-01
111  1.1000000000000D+00 -4.8515407763597D-02 -4.4069434107803D-01
112  1.1100000000000D+00 -3.1093062222798D-02 -4.7839684386660D-01
113  1.1200000000000D+00 -1.5556200041820D-02 -5.0739185994041D-01
114  1.1300000000000D+00 -1.9506571940608D-03 -5.2778334759926D-01
115  1.1400000000000D+00  9.7088956961127D-03 -5.3978915055679D-01
116  1.1500000000000D+00  1.9438046052518D-02 -5.4373674206494D-01
117  1.1600000000000D+00  2.7281280545538D-02 -5.4005732966064D-01
118  1.1700000000000D+00  3.3310200588937D-02 -5.2927841690899D-01
119  1.1800000000000D+00  3.7621343081617D-02 -5.1201493734492D-01
120  1.1900000000000D+00  4.0333646248948D-02 -4.8895910839676D-01
121  1.2000000000000D+00  4.1585604979630D-02 -4.6086916967633D-01
122  1.2100000000000D+00  4.1532165182987D-02 -4.2855718876192D-01
123  1.2200000000000D+00  4.0341410932931D-02 -3.9287613310455D-01
124  1.2300000000000D+00  3.8191102942314D-02 -3.5470642411644D-01
125  1.2400000000000D+00  3.5265127992795D-02 -3.1494219339367D-01
126  1.2500000000000D+00  3.1749921156075D-02 -2.7447746911144D-01
127  1.2600000000000D+00  2.7830924220659D-02 -2.3419252626838D-01
128  1.2700000000000D+00  2.3689143825004D-02 -1.9494063615900D-01
129  1.2800000000000D+00  1.9497854803824D-02 -1.5753537356481D-01
130  1.2900000000000D+00  1.5419568966945D-02 -1.2273895675594D-01
131  1.3000000000000D+00  1.1603070602612D-02 -9.1250761369668D-02
132  1.3100000000000D+00  8.1814607547428D-03 -6.3699927699762D-02
133  1.3200000000000D+00  5.2712603827772D-03 -4.0649172359172D-02
134  1.3300000000000D+00  2.9489361786121D-03 -2.2436601338285D-02
135  1.3400000000000D+00  1.3057974806745D-03 -9.5815762250425D-03
136  1.3500000000000D+00  4.2615746708399D-04 -2.6148710029466D-03
137  1.3600000000000D+00  9.7333772014559D-05 -1.4073104575917D-04
138  1.3700000000000D+00  7.5350718638408D-06  1.2117262399770D-04
139  1.3800000000000D+00 -1.7825548358201D-07 -6.8399095398514D-05
140  1.3900000000000D+00  2.6755208649734D-07 -1.3407216255138D-05
141  1.4000000000000D+00  5.2482600152323D-07  1.1741618597162D-05
142  1.4100000000000D+00 -1.7463812206370D-07  4.7301733536387D-07
143  1.4200000000000D+00 -2.7160592838859D-07  7.3566018116329D-07
144  1.4300000000000D+00  0.0000000000000D+00  0.0000000000000D+00
145  1.4400000000000D+00  0.0000000000000D+00  0.0000000000000D+00
146  1.4500000000000D+00  0.0000000000000D+00  0.0000000000000D+00
147  1.4600000000000D+00  0.0000000000000D+00  0.0000000000000D+00
148  1.4700000000000D+00  0.0000000000000D+00  0.0000000000000D+00
149  1.4800000000000D+00  0.0000000000000D+00  0.0000000000000D+00
150  1.4900000000000D+00  0.0000000000000D+00  0.0000000000000D+00
151  1.5000000000000D+00  0.0000000000000D+00  0.0000000000000D+00
152  1.5100000000000D+00  0.0000000000000D+00  0.0000000000000D+00
153  1.5200000000000D+00  0.0000000000000D+00  0.0000000000000D+00
154  1.5300000000000D+00  0.0000000000000D+00  0.0000000000000D+00
155  1.5400000000000D+00  0.0000000000000D+00  0.0000000000000D+00
156  1.5500000000000D+00  0.0000000000000D+00  0.0000000000000D+00
157  1.5600000000000D+00  0.0000000000000D+00  0.0000000000000D+00
158  1.5700000000000D+00  0.0000000000000D+00  0.0000000000000D+00
159  1.5800000000000D+00  0.0000000000000D+00  0.0000000000000D+00
160  1.5900000000000D+00  0.0000000000000D+00  0.0000000000000D+00
161  1.6000000000000D+00  0.0000000000000D+00  0.0000000000000D+00
162  1.6100000000000D+00  0.0000000000000D+00  0.0000000000000D+00
163  1.6200000000000D+00  0.0000000000000D+00  0.0000000000000D+00
164  1.6300000000000D+00  0.0000000000000D+00  0.0000000000000D+00
165  1.6400000000000D+00  0.0000000000000D+00  0.0000000000000D+00
166  1.6500000000000D+00  0.0000000000000D+00  0.0000000000000D+00
167  1.6600000000000D+00  0.0000000000000D+00  0.0000000000000D+00
168  1.6700000000000D+00  0.0000000000000D+00  0.0000000000000D+00
169  1.6800000000000D+00  0.0000000000000D+00  0.0000000000000D+00
170  1.6900000000000D+00  0.0000000000000D+00  0.0000000000000D+00
171  1.7000000000000D+00  0.0000000000000D+00  0.0000000000000D+00
172  1.7100000000000D+00  0.0000000000000D+00  0.0000000000000D+00
173  1.7200000000000D+00  0.0000000000000D+00  0.0000000000000D+00
174  1.7300000000000D+00  0.0000000000000D+00  0.0000000000000D+00
175  1.7400000000000D+00  0.0000000000000D+00  0.0000000000000D+00
176  1.7500000000000D+00  0.0000000000000D+00  0.0000000000000D+00
177  1.7600000000000D+00  0.0000000000000D+00  0.0000000000000D+00
178  1.7700000000000D+00  0.0000000000000D+00  0.0000000000000D+00
179  1.7800000000000D+00  0.0000000000000D+00  0.0000000000000D+00
180  1.7900000000000D+00  0.0000000000000D+00  0.0000000000000D+00
181  1.8000000000000D+00  0.0000000000000D+00  0.0000000000000D+00
182  1.8100000000000D+00  0.0000000000000D+00  0.0000000000000D+00
183  1.8200000000000D+00  0.0000000000000D+00  0.0000000000000D+00
184  1.8300000000000D+00  0.0000000000000D+00  0.0000000000000D+00
185  1.8400000000000D+00  0.0000000000000D+00  0.0000000000000D+00
186  1.8500000000000D+00  0.0000000000000D+00  0.0000000000000D+00
187  1.8600000000000D+00  0.0000000000000D+00  0.0000000000000D+00
188  1.8700000000000D+00  0.0000000000000D+00  0.0000000000000D+00
189  1.8800000000000D+00  0.0000000000000D+00  0.0000000000000D+00
190  1.8900000000000D+00  0.0000000000000D+00  0.0000000000000D+00
191  1.9000000000000D+00  0.0000000000000D+00  0.0000000000000D+00
192  1.9100000000000D+00  0.0000000000000D+00  0.0000000000000D+00
193  1.9200000000000D+00  0.0000000000000D+00  0.0000000000000D+00
194  1.9300000000000D+00  0.0000000000000D+00  0.0000000000000D+00
195  1.9400000000000D+00  0.0000000000000D+00  0.0000000000000D+00
196  1.9500000000000D+00  0.0000000000000D+00  0.0000000000000D+00
197  1.9600000000000D+00  0.0000000000000D+00  0.0000000000000D+00
198  1.9700000000000D+00  0.0000000000000D+00  0.0000000000000D+00
199  1.9800000000000D+00  0.0000000000000D+00  0.0000000000000D+00
200  1.9900000000000D+00  0.0000000000000D+00  0.0000000000000D+00
201  2.0000000000000D+00  0.0000000000000D+00  0.0000000000000D+00
202  2.0100000000000D+00  0.0000000000000D+00  0.0000000000000D+00
203  2.0200000000000D+00  0.0000000000000D+00  0.0000000000000D+00
204  2.0300000000000D+00  0.0000000000000D+00  0.0000000000000D+00
205  2.0400000000000D+00  0.0000000000000D+00  0.0000000000000D+00
206  2.0500000000000D+00  0.0000000000000D+00  0.0000000000000D+00
207  2.0600000000000D+00  0.0000000000000D+00  0.0000000000000D+00
208  2.0700000000000D+00  0.0000000000000D+00  0.0000000000000D+00
209  2.0800000000000D+00  0.0000000000000D+00  0.0000000000000D+00
210  2.0900000000000D+00  0.0000000000000D+00  0.0000000000000D+00
211  2.1000000000000D+00  0.0000000000000D+00  0.0000000000000D+00
212  2.1100000000000D+00  0.0000000000000D+00  0.0000000000000D+00
213  2.1200000000000D+00  0.0000000000000D+00  0.0000000000000D+00
214  2.1300000000000D+00  0.0000000000000D+00  0.0000000000000D+00
215  2.1400000000000D+00  0.0000000000000D+00  0.0000000000000D+00
216  2.1500000000000D+00  0.0000000000000D+00  0.0000000000000D+00
217  2.1600000000000D+00  0.0000000000000D+00  0.0000000000000D+00
218  2.1700000000000D+00  0.0000000000000D+00  0.0000000000000D+00
219  2.1800000000000D+00  0.0000000000000D+00  0.0000000000000D+00
220  2.1900000000000D+00  0.0000000000000D+00  0.0000000000000D+00
221  2.2000000000000D+00  0.0000000000000D+00  0.0000000000000D+00
222  2.2100000000000D+00  0.0000000000000D+00  0.0000000000000D+00
223  2.2200000000000D+00  0.0000000000000D+00  0.0000000000000D+00
224  2.2300000000000D+00  0.0000000000000D+00  0.0000000000000D+00
225  2.2400000000000D+00  0.0000000000000D+00  0.0000000000000D+00
226  2.2500000000000D+00  0.0000000000000D+00  0.0000000000000D+00
227  2.2600000000000D+00  0.0000000000000D+00  0.0000000000000D+00
228  2.2700000000000D+00  0.0000000000000D+00  0.0000000000000D+00
229  2.2800000000000D+00  0.0000000000000D+00  0.0000000000000D+00
230  2.2900000000000D+00  0.0000000000000D+00  0.0000000000000D+00
231  2.3000000000000D+00  0.0000000000000D+00  0.0000000000000D+00
232  2.3100000000000D+00  0.0000000000000D+00  0.0000000000000D+00
233  2.3200000000000D+00  0.0000000000000D+00  0.0000000000000D+00
234  2.3300000000000D+00  0.0000000000000D+00  0.0000000000000D+00
235  2.3400000000000D+00  0.0000000000000D+00  0.0000000000000D+00
236  2.3500000000000D+00  0.0000000000000D+00  0.0000000000000D+00
237  2.3600000000000D+00  0.0000000000000D+00  0.0000000000000D+00
238  2.3700000000000D+00  0.0000000000000D+00  0.0000000000000D+00
239  2.3800000000000D+00  0.0000000000000D+00  0.0000000000000D+00
240  2.3900000000000D+00  0.0000000000000D+00  0.0000000000000D+00
241  2.4000000000000D+00  0.0000000000000D+00  0.0000000000000D+00
242  2.4100000000000D+00  0.0000000000000D+00  0.0000000000000D+00
243  2.4200000000000D+00  0.0000000000000D+00  0.0000000000000D+00
244  2.4300000000000D+00  0.0000000000000D+00  0.0000000000000D+00
245  2.4400000000000D+00  0.0000000000000D+00  0.0000000000000D+00
246  2.4500000000000D+00  0.0000000000000D+00  0.0000000000000D+00
247  2.4600000000000D+00  0.0000000000000D+00  0.0000000000000D+00
248  2.4700000000000D+00  0.0000000000000D+00  0.0000000000000D+00
249  2.4800000000000D+00  0.0000000000000D+00  0.0000000000000D+00
250  2.4900000000000D+00  0.0000000000000D+00  0.0000000000000D+00
251  2.5000000000000D+00  0.0000000000000D+00  0.0000000000000D+00
252  2.5100000000000D+00  0.0000000000000D+00  0.0000000000000D+00
253  2.5200000000000D+00  0.0000000000000D+00  0.0000000000000D+00
254  2.5300000000000D+00  0.0000000000000D+00  0.0000000000000D+00
255  2.5400000000000D+00  0.0000000000000D+00  0.0000000000000D+00
256  2.5500000000000D+00  0.0000000000000D+00  0.0000000000000D+00
257  2.5600000000000D+00  0.0000000000000D+00  0.0000000000000D+00
258  2.5700000000000D+00  0.0000000000000D+00  0.0000000000000D+00
259  2.5800000000000D+00  0.0000000000000D+00  0.0000000000000D+00
260  2.5900000000000D+00  0.0000000000000D+00  0.0000000000000D+00
261  2.6000000000000D+00  0.0000000000000D+00  0.0000000000000D+00
262  2.6100000000000D+00  0.0000000000000D+00  0.0000000000000D+00
263  2.6200000000000D+00  0.0000000000000D+00  0.0000000000000D+00
264  2.6300000000000D+00  0.0000000000000D+00  0.0000000000000D+00
265  2.6400000000000D+00  0.0000000000000D+00  0.0000000000000D+00
266  2.6500000000000D+00  0.0000000000000D+00  0.0000000000000D+00
267  2.6600000000000D+00  0.0000000000000D+00  0.0000000000000D+00
268  2.6700000000000D+00  0.0000000000000D+00  0.0000000000000D+00
269  2.6800000000000D+00  0.0000000000000D+00  0.0000000000000D+00
270  2.6900000000000D+00  0.0000000000000D+00  0.0000000000000D+00
271  2.7000000000000D+00  0.0000000000000D+00  0.0000000000000D+00
272  2.7100000000000D+00  0.0000000000000D+00  0.0000000000000D+00
273  2.7200000000000D+00  0.0000000000000D+00  0.0000000000000D+00
274  2.7300000000000D+00  0.0000000000000D+00  0.0000000000000D+00
275  2.7400000000000D+00  0.0000000000000D+00  0.0000000000000D+00
276  2.7500000000000D+00  0.0000000000000D+00  0.0000000000000D+00
277  2.7600000000000D+00  0.0000000000000D+00  0.0000000000000D+00
278  2.7700000000000D+00  0.0000000000000D+00  0.0000000000000D+00
279  2.7800000000000D+00  0.0000000000000D+00  0.0000000000000D+00
280  2.7900000000000D+00  0.0000000000000D+00  0.0000000000000D+00
281  2.8000000000000D+00  0.0000000000000D+00  0.0000000000000D+00
282  2.8100000000000D+00  0.0000000000000D+00  0.0000000000000D+00
283  2.8200000000000D+00  0.0000000000000D+00  0.0000000000000D+00
284  2.8300000000000D+00  0.0000000000000D+00  0.0000000000000D+00
285  2.8400000000000D+00  0.0000000000000D+00  0.0000000000000D+00
286  2.8500000000000D+00  0.0000000000000D+00  0.0000000000000D+00
287  2.8600000000000D+00  0.0000000000000D+00  0.0000000000000D+00
288  2.8700000000000D+00  0.0000000000000D+00  0.0000000000000D+00
289  2.8800000000000D+00  0.0000000000000D+00  0.0000000000000D+00
290  2.8900000000000D+00  0.0000000000000D+00  0.0000000000000D+00
291  2.9000000000000D+00  0.0000000000000D+00  0.0000000000000D+00
292  2.9100000000000D+00  0.0000000000000D+00  0.0000000000000D+00
293  2.9200000000000D+00  0.0000000000000D+00  0.0000000000000D+00
294  2.9300000000000D+00  0.0000000000000D+00  0.0000000000000D+00
295  2.9400000000000D+00  0.0000000000000D+00  0.0000000000000D+00
296  2.9500000000000D+00  0.0000000000000D+00  0.0000000000000D+00
297  2.9600000000000D+00  0.0000000000000D+00  0.0000000000000D+00
298  2.9700000000000D+00  0.0000000000000D+00  0.0000000000000D+00
299  2.9800000000000D+00  0.0000000000000D+00  0.0000000000000D+00
300  2.9900000000000D+00  0.0000000000000D+00  0.0000000000000D+00
301  3.0000000000000D+00  0.0000000000000D+00  0.0000000000000D+00
302  3.0100000000000D+00  0.0000000000000D+00  0.0000000000000D+00
303  3.0200000000000D+00  0.0000000000000D+00  0.0000000000000D+00
304  3.0300000000000D+00  0.0000000000000D+00  0.0000000000000D+00
305  3.0400000000000D+00  0.0000000000000D+00  0.0000000000000D+00
306  3.0500000000000D+00  0.0000000000000D+00  0.0000000000000D+00
307  3.0600000000000D+00  0.0000000000000D+00  0.0000000000000D+00
308  3.0700000000000D+00  0.0000000000000D+00  0.0000000000000D+00
309  3.0800000000000D+00  0.0000000000000D+00  0.0000000000000D+00
310  3.0900000000000D+00  0.0000000000000D+00  0.0000000000000D+00
311  3.1000000000000D+00  0.0000000000000D+00  0.0000000000000D+00
312  3.1100000000000D+00  0.0000000000000D+00  0.0000000000000D+00
313  3.1200000000000D+00  0.0000000000000D+00  0.0000000000000D+00
314  3.1300000000000D+00  0.0000000000000D+00  0.0000000000000D+00
315  3.1400000000000D+00  0.0000000000000D+00  0.0000000000000D+00
316  3.1500000000000D+00  0.0000000000000D+00  0.0000000000000D+00
317  3.1600000000000D+00  0.0000000000000D+00  0.0000000000000D+00
318  3.1700000000000D+00  0.0000000000000D+00  0.0000000000000D+00
319  3.1800000000000D+00  0.0000000000000D+00  0.0000000000000D+00
320  3.1900000000000D+00  0.0000000000000D+00  0.0000000000000D+00
321  3.2000000000000D+00  0.0000000000000D+00  0.0000000000000D+00
322  3.2100000000000D+00  0.0000000000000D+00  0.0000000000000D+00
323  3.2200000000000D+00  0.0000000000000D+00  0.0000000000000D+00
324  3.2300000000000D+00  0.0000000000000D+00  0.0000000000000D+00
325  3.2400000000000D+00  0.0000000000000D+00  0.0000000000000D+00
326  3.2500000000000D+00  0.0000000000000D+00  0.0000000000000D+00
327  3.2600000000000D+00  0.0000000000000D+00  0.0000000000000D+00
328  3.2700000000000D+00  0.0000000000000D+00  0.0000000000000D+00
329  3.2800000000000D+00  0.0000000000000D+00  0.0000000000000D+00
330  3.2900000000000D+00  0.0000000000000D+00  0.0000000000000D+00
331  3.3000000000000D+00  0.0000000000000D+00  0.0000000000000D+00
332  3.3100000000000D+00  0.0000000000000D+00  0.0000000000000D+00
333  3.3200000000000D+00  0.0000000000000D+00  0.0000000000000D+00
334  3.3300000000000D+00  0.0000000000000D+00  0.0000000000000D+00
335  3.3400000000000D+00  0.0000000000000D+00  0.0000000000000D+00
336  3.3500000000000D+00  0.0000000000000D+00  0.0000000000000D+00
337  3.3600000000000D+00  0.0000000000000D+00  0.0000000000000D+00
338  3.3700000000000D+00  0.0000000000000D+00  0.0000000000000D+00
339  3.3800000000000D+00  0.0000000000000D+00  0.0000000000000D+00
340  3.3900000000000D+00  0.0000000000000D+00  0.0000000000000D+00
341  3.4000000000000D+00  0.0000000000000D+00  0.0000000000000D+00
342  3.4100000000000D+00  0.0000000000000D+00  0.0000000000000D+00
343  3.4200000000000D+00  0.0000000000000D+00  0.0000000000000D+00
344  3.4300000000000D+00  0.0000000000000D+00  0.0000000000000D+00
345  3.4400000000000D+00  0.0000000000000D+00  0.0000000000000D+00
346  3.4500000000000D+00  0.0000000000000D+00  0.0000000000000D+00
347  3.4600000000000D+00  0.0000000000000D+00  0.0000000000000D+00
348  3.4700000000000D+00  0.0000000000000D+00  0.0000000000000D+00
349  3.4800000000000D+00  0.0000000000000D+00  0.0000000000000D+00
350  3.4900000000000D+00  0.0000000000000D+00  0.0000000000000D+00
351  3.5000000000000D+00  0.0000000000000D+00  0.0000000000000D+00
352  3.5100000000000D+00  0.0000000000000D+00  0.0000000000000D+00
353  3.5200000000000D+00  0.0000000000000D+00  0.0000000000000D+00
354  3.5300000000000D+00  0.0000000000000D+00  0.0000000000000D+00
355  3.5400000000000D+00  0.0000000000000D+00  0.0000000000000D+00
356  3.5500000000000D+00  0.0000000000000D+00  0.0000000000000D+00
357  3.5600000000000D+00  0.0000000000000D+00  0.0000000000000D+00
358  3.5700000000000D+00  0.0000000000000D+00  0.0000000000000D+00
359  3.5800000000000D+00  0.0000000000000D+00  0.0000000000000D+00
360  3.5900000000000D+00  0.0000000000000D+00  0.0000000000000D+00
361  3.6000000000000D+00  0.0000000000000D+00  0.0000000000000D+00
362  3.6100000000000D+00  0.0000000000000D+00  0.0000000000000D+00
363  3.6200000000000D+00  0.0000000000000D+00  0.0000000000000D+00
364  3.6300000000000D+00  0.0000000000000D+00  0.0000000000000D+00
365  3.6400000000000D+00  0.0000000000000D+00  0.0000000000000D+00
366  3.6500000000000D+00  0.0000000000000D+00  0.0000000000000D+00
367  3.6600000000000D+00  0.0000000000000D+00  0.0000000000000D+00
368  3.6700000000000D+00  0.0000000000000D+00  0.0000000000000D+00
369  3.6800000000000D+00  0.0000000000000D+00  0.0000000000000D+00
370  3.6900000000000D+00  0.0000000000000D+00  0.0000000000000D+00
371  3.7000000000000D+00  0.0000000000000D+00  0.0000000000000D+00
372  3.7100000000000D+00  0.0000000000000D+00  0.0000000000000D+00
373  3.7200000000000D+00  0.0000000000000D+00  0.0000000000000D+00
374  3.7300000000000D+00  0.0000000000000D+00  0.0000000000000D+00
375  3.7400000000000D+00  0.0000000000000D+00  0.0000000000000D+00
376  3.7500000000000D+00  0.0000000000000D+00  0.0000000000000D+00
377  3.7600000000000D+00  0.0000000000000D+00  0.0000000000000D+00
378  3.7700000000000D+00  0.0000000000000D+00  0.0000000000000D+00
379  3.7800000000000D+00  0.0000000000000D+00  0.0000000000000D+00
380  3.7900000000000D+00  0.0000000000000D+00  0.0000000000000D+00
381  3.8000000000000D+00  0.0000000000000D+00  0.0000000000000D+00
382  3.8100000000000D+00  0.0000000000000D+00  0.0000000000000D+00
383  3.8200000000000D+00  0.0000000000000D+00  0.0000000000000D+00
384  3.8300000000000D+00  0.0000000000000D+00  0.0000000000000D+00
385  3.8400000000000D+00  0.0000000000000D+00  0.0000000000000D+00
386  3.8500000000000D+00  0.0000000000000D+00  0.0000000000000D+00
387  3.8600000000000D+00  0.0000000000000D+00  0.0000000000000D+00
388  3.8700000000000D+00  0.0000000000000D+00  0.0000000000000D+00
389  3.8800000000000D+00  0.0000000000000D+00  0.0000000000000D+00
390  3.8900000000000D+00  0.0000000000000D+00  0.0000000000000D+00
391  3.9000000000000D+00  0.0000000000000D+00  0.0000000000000D+00
392  3.9100000000000D+00  0.0000000000000D+00  0.0000000000000D+00
393  3.9200000000000D+00  0.0000000000000D+00  0.0000000000000D+00
394  3.9300000000000D+00  0.0000000000000D+00  0.0000000000000D+00
395  3.9400000000000D+00  0.0000000000000D+00  0.0000000000000D+00
396  3.9500000000000D+00  0.0000000000000D+00  0.0000000000000D+00
397  3.9600000000000D+00  0.0000000000000D+00  0.0000000000000D+00
398  3.9700000000000D+00  0.0000000000000D+00  0.0000000000000D+00
399  3.9800000000000D+00  0.0000000000000D+00  0.0000000000000D+00
400  3.9900000000000D+00  0.0000000000000D+00  0.0000000000000D+00
401  4.0000000000000D+00  0.0000000000000D+00  0.0000000000000D+00
402  4.0100000000000D+00  0.0000000000000D+00  0.0000000000000D+00
403  4.0200000000000D+00  0.0000000000000D+00  0.0000000000000D+00
404  4.0300000000000D+00  0.0000000000000D+00  0.0000000000000D+00
405  4.0400000000000D+00  0.0000000000000D+00  0.0000000000000D+00
406  4.0500000000000D+00  0.0000000000000D+00  0.0000000000000D+00
407  4.0600000000000D+00  0.0000000000000D+00  0.0000000000000D+00
408  4.0700000000000D+00  0.0000000000000D+00  0.0000000000000D+00
409  4.0800000000000D+00  0.0000000000000D+00  0.0000000000000D+00
410  4.0900000000000D+00  0.0000000000000D+00  0.0000000000000D+00
411  4.1000000000000D+00  0.0000000000000D+00  0.0000000000000D+00
412  4.1100000000000D+00  0.0000000000000D+00  0.0000000000000D+00
413  4.1200000000000D+00  0.0000000000000D+00  0.0000000000000D+00
414  4.1300000000000D+00  0.0000000000000D+00  0.0000000000000D+00
415  4.1400000000000D+00  0.0000000000000D+00  0.0000000000000D+00
416  4.1500000000000D+00  0.0000000000000D+00  0.0000000000000D+00
417  4.1600000000000D+00  0.0000000000000D+00  0.0000000000000D+00
418  4.1700000000000D+00  0.0000000000000D+00  0.0000000000000D+00
419  4.1800000000000D+00  0.0000000000000D+00  0.0000000000000D+00
420  4.1900000000000D+00  0.0000000000000D+00  0.0000000000000D+00
421  4.2000000000000D+00  0.0000000000000D+00  0.0000000000000D+00
422  4.2100000000000D+00  0.0000000000000D+00  0.0000000000000D+00
423  4.2200000000000D+00  0.0000000000000D+00  0.0000000000000D+00
424  4.2300000000000D+00  0.0000000000000D+00  0.0000000000000D+00
425  4.2400000000000D+00  0.0000000000000D+00  0.0000000000000D+00
426  4.2500000000000D+00  0.0000000000000D+00  0.0000000000000D+00
427  4.2600000000000D+00  0.0000000000000D+00  0.0000000000000D+00
428  4.2700000000000D+00  0.0000000000000D+00  0.0000000000000D+00
429  4.2800000000000D+00  0.0000000000000D+00  0.0000000000000D+00
430  4.2900000000000D+00  0.0000000000000D+00  0.0000000000000D+00
431  4.3000000000000D+00  0.0000000000000D+00  0.0000000000000D+00
432  4.3100000000000D+00  0.0000000000000D+00  0.0000000000000D+00
433  4.3200000000000D+00  0.0000000000000D+00  0.0000000000000D+00
434  4.3300000000000D+00  0.0000000000000D+00  0.0000000000000D+00
435  4.3400000000000D+00  0.0000000000000D+00  0.0000000000000D+00
436  4.3500000000000D+00  0.0000000000000D+00  0.0000000000000D+00
437  4.3600000000000D+00  0.0000000000000D+00  0.0000000000000D+00
438  4.3700000000000D+00  0.0000000000000D+00  0.0000000000000D+00
439  4.3800000000000D+00  0.0000000000000D+00  0.0000000000000D+00
440  4.3900000000000D+00  0.0000000000000D+00  0.0000000000000D+00
441  4.4000000000000D+00  0.0000000000000D+00  0.0000000000000D+00
442  4.4100000000000D+00  0.0000000000000D+00  0.0000000000000D+00
443  4.4200000000000D+00  0.0000000000000D+00  0.0000000000000D+00
444  4.4300000000000D+00  0.0000000000000D+00  0.0000000000000D+00