Os    ONCVPSP  r_core=  1.51  1.55  1.55  2.27
76.0000     16.0000      161004    zatom,zion,pspd
8 -116133   3     4   600     0    pspcod,pspxc,lmax,lloc,mmax,r2well
5.99000000  5.00000000  0.00000000    rchrg fchrg qchrg
2     2     2     2     0    nproj
1                 extension_switch
0                         8.1180209818145D+00 -1.0620475914847D+00
1  0.0000000000000D+00  3.2961289253564D-10  3.5060550018784D-09
2  1.0000000000000D-02  5.8125641559091D-02 -6.5668921681274D-02
3  2.0000000000000D-02  1.1618413310771D-01 -1.3086191159990D-01
4  3.0000000000000D-02  1.7410806332048D-01 -1.9510815831721D-01
5  4.0000000000000D-02  2.3182950424169D-01 -2.5794702384904D-01
6  5.0000000000000D-02  2.8927976788387D-01 -3.1893296331524D-01
7  6.0000000000000D-02  3.4638918048536D-01 -3.7764024662126D-01
8  7.0000000000000D-02  4.0308687992106D-01 -4.3366742035500D-01
9  8.0000000000000D-02  4.5930064143088D-01 -4.8664145158893D-01
10  9.0000000000000D-02  5.1495673642638D-01 -5.3622149957231D-01
11  1.0000000000000D-01  5.6997982866333D-01 -5.8210226632647D-01
12  1.1000000000000D-01  6.2429291153214D-01 -6.2401688285054D-01
13  1.2000000000000D-01  6.7781728962650D-01 -6.6173929393049D-01
14  1.3000000000000D-01  7.3047260711128D-01 -6.9508611133765D-01
15  1.4000000000000D-01  7.8217692473099D-01 -7.2391791241492D-01
16  1.5000000000000D-01  8.3284684659089D-01 -7.4813996858265D-01
17  1.6000000000000D-01  8.8239769711088D-01 -7.6770239605202D-01
18  1.7000000000000D-01  9.3074374780987D-01 -7.8259972890955D-01
19  1.8000000000000D-01  9.7779849283346D-01 -7.9286992262322D-01
20  1.9000000000000D-01  1.0234749714013D+00 -7.9859280381764D-01
21  2.0000000000000D-01  1.0676861346319D+00 -7.9988798976322D-01
22  2.1000000000000D-01  1.1103452535124D+00 -7.9691230832189D-01
23  2.2000000000000D-01  1.1513663641257D+00 -7.8985675599060D-01
24  2.3000000000000D-01  1.1906647456416D+00 -7.7894303808694D-01
25  2.4000000000000D-01  1.2281574260247D+00 -7.6441974094299D-01
26  2.5000000000000D-01  1.2637637099182D+00 -7.4655819113107D-01
27  2.6000000000000D-01  1.2974057227452D+00 -7.2564806116646D-01
28  2.7000000000000D-01  1.3290089647179D+00 -7.0199278475394D-01
29  2.8000000000000D-01  1.3585028681809D+00 -6.7590484741417D-01
30  2.9000000000000D-01  1.3858213515312D+00 -6.4770102020027D-01
31  3.0000000000000D-01  1.4109033628641D+00 -6.1769760516450D-01
32  3.1000000000000D-01  1.4336934064881D+00 -5.8620576124044D-01
33  3.2000000000000D-01  1.4541420455368D+00 -5.5352697826344D-01
34  3.3000000000000D-01  1.4722063740819D+00 -5.1994876496598D-01
35  3.4000000000000D-01  1.4878504524136D+00 -4.8574061397606D-01
36  3.5000000000000D-01  1.5010456995049D+00 -4.5115030314712D-01
37  3.6000000000000D-01  1.5117712371053D+00 -4.1640058800086D-01
38  3.7000000000000D-01  1.5200141804209D+00 -3.8168633472619D-01
39  3.8000000000000D-01  1.5257698709119D+00 -3.4717213711455D-01
40  3.9000000000000D-01  1.5290420473850D+00 -3.1299045410083D-01
41  4.0000000000000D-01  1.5298429522561D+00 -2.7924029730777D-01
42  4.1000000000000D-01  1.5281933706048D+00 -2.4598649025170D-01
43  4.2000000000000D-01  1.5241226004269D+00 -2.1325951276514D-01
44  4.3000000000000D-01  1.5176683533060D+00 -1.8105593582826D-01
45  4.4000000000000D-01  1.5088765855544D+00 -1.4933944349604D-01
46  4.5000000000000D-01  1.4978012607128D+00 -1.1804243006934D-01
47  4.6000000000000D-01  1.4845040451350D+00 -8.7068152206760D-02
48  4.7000000000000D-01  1.4690539392022D+00 -5.6293407425097D-02
49  4.8000000000000D-01  1.4515268475091D+00 -2.5571702505297D-02
50  4.9000000000000D-01  1.4320050921223D+00  5.2631321816060D-03
51  5.0000000000000D-01  1.4105768737288D+00  3.6392933378386D-02
52  5.1000000000000D-01  1.3873356861455D+00  6.8010857952564D-02
53  5.2000000000000D-01  1.3623796902613D+00  1.0031676108720D-01
54  5.3000000000000D-01  1.3358110539985D+00  1.3351236730106D-01
55  5.4000000000000D-01  1.3077352653256D+00  1.6779630583695D-01
56  5.5000000000000D-01  1.2782604257049D+00  2.0335908488778D-01
57  5.6000000000000D-01  1.2474965316234D+00  2.4037808105541D-01
58  5.7000000000000D-01  1.2155547520195D+00  2.7901262131825D-01
59  5.8000000000000D-01  1.1825467094861D+00  3.1939923459595D-01
60  5.9000000000000D-01  1.1485837731003D+00  3.6164714872616D-01
61  6.0000000000000D-01  1.1137763705900D+00  4.0583410633092D-01
62  6.1000000000000D-01  1.0782333273202D+00  4.5200256963220D-01
63  6.2000000000000D-01  1.0420612392441D+00  5.0015637987192D-01
64  6.3000000000000D-01  1.0053638865438D+00  5.5025793155548D-01
65  6.4000000000000D-01  9.6824169416534D-01  6.0222591544278D-01
66  6.5000000000000D-01  9.3079124485988D-01  6.5593367703798D-01
67  6.6000000000000D-01  8.9310484966529D-01  7.1120822939649D-01
68  6.7000000000000D-01  8.5527018002442D-01  7.6782995051349D-01
69  6.8000000000000D-01  8.1736996493664D-01  8.2553298642517D-01
70  6.9000000000000D-01  7.7948175569188D-01  8.8400637158624D-01
71  7.0000000000000D-01  7.4167775985299D-01  9.4289586822485D-01
72  7.1000000000000D-01  7.0402474524495D-01  1.0018065163558D+00
73  7.2000000000000D-01  6.6658401378481D-01  1.0603058760182D+00
74  7.3000000000000D-01  6.2941144406284D-01  1.1179279333209D+00
75  7.4000000000000D-01  5.9255760067316D-01  1.1741776321257D+00
76  7.5000000000000D-01  5.5606790740244D-01  1.2285359837939D+00
77  7.6000000000000D-01  5.1998288053002D-01  1.2804656985248D+00
78  7.7000000000000D-01  4.8433841768915D-01  1.3294172735712D+00
79  7.8000000000000D-01  4.4916613698584D-01  1.3748354660552D+00
80  7.9000000000000D-01  4.1449376039602D-01  1.4161660714856D+00
81  8.0000000000000D-01  3.8034553485883D-01  1.4528629233672D+00
82  8.1000000000000D-01  3.4674268397041D-01  1.4843950246559D+00
83  8.2000000000000D-01  3.1370388276391D-01  1.5102537183031D+00
84  8.3000000000000D-01  2.8124574774325D-01  1.5299598018237D+00
85  8.4000000000000D-01  2.4938333412749D-01  1.5430704897508D+00
86  8.5000000000000D-01  2.1813063216095D-01  1.5491861280508D+00
87  8.6000000000000D-01  1.8750105435576D-01  1.5479565660708D+00
88  8.7000000000000D-01  1.5750790565725D-01  1.5390870943823D+00
89  8.8000000000000D-01  1.2816482875937D-01  1.5223438609442D+00
90  8.9000000000000D-01  9.9486217143173D-02  1.4975586833047D+00
91  9.0000000000000D-01  7.1487588864182D-02  1.4646331810385D+00
92  9.1000000000000D-01  4.4185914667379D-02  1.4235421602000D+00
93  9.2000000000000D-01  1.7599894655688D-02  1.3743361901873D+00
94  9.3000000000000D-01 -8.2498215288992D-03  1.3171433229456D+00
95  9.4000000000000D-01 -3.3340475242831D-02  1.2521699147815D+00
96  9.5000000000000D-01 -5.7647103453212D-02  1.1797005220773D+00
97  9.6000000000000D-01 -8.1142509846897D-02  1.1000968538039D+00
98  9.7000000000000D-01 -1.0379730388783D-01  1.0137957756713D+00
99  9.8000000000000D-01 -1.2558000827979D-01  9.2130637286783D-01
100  9.9000000000000D-01 -1.4645723425438D-01  8.2320609086420D-01
101  1.0000000000000D+00 -1.6639392310069D-01  7.2013598577161D-01
102  1.0100000000000D+00 -1.8535365133730D-01  6.1279512780828D-01
103  1.0200000000000D+00 -2.0329899594828D-01  5.0193421296528D-01
104  1.0300000000000D+00 -2.2019195515107D-01  3.8834844910147D-01
105  1.0400000000000D+00 -2.3599441929468D-01  2.7286979276341D-01
106  1.0500000000000D+00 -2.5066868565466D-01  1.5635862256839D-01
107  1.0600000000000D+00 -2.6417801012788D-01  3.9694943627187D-02
108  1.0700000000000D+00 -2.7648718819866D-01 -7.6230775479286D-02
109  1.0800000000000D+00 -2.8756315697208D-01 -1.9052702536244D-01
110  1.0900000000000D+00 -2.9737560963481D-01 -3.0231082572821D-01
111  1.1000000000000D+00 -3.0589761335961D-01 -4.1071732661174D-01
112  1.1100000000000D+00 -3.1310622144050D-01 -5.1490932304349D-01
113  1.1200000000000D+00 -3.1898307036966D-01 -6.1408656494614D-01
114  1.1300000000000D+00 -3.2351495263579D-01 -7.0749474566911D-01
115  1.1400000000000D+00 -3.2669435609751D-01 -7.9443405395319D-01
116  1.1500000000000D+00 -3.2851996116636D-01 -8.7426717958706D-01
117  1.1600000000000D+00 -3.2899708739555D-01 -9.4642666784022D-01
118  1.1700000000000D+00 -3.2813808171793D-01 -1.0104215262510D+00
119  1.1800000000000D+00 -3.2596264095099D-01 -1.0658429922588D+00
120  1.1900000000000D+00 -3.2249806226902D-01 -1.1123693839482D+00
121  1.2000000000000D+00 -3.1777941608179D-01 -1.1497699654154D+00
122  1.2100000000000D+00 -3.1184963657494D-01 -1.1779077685050D+00
123  1.2200000000000D+00 -3.0475952624077D-01 -1.1967413260462D+00
124  1.2300000000000D+00 -2.9656767199562D-01 -1.2063252873302D+00
125  1.2400000000000D+00 -2.8734027147927D-01 -1.2068098988380D+00
126  1.2500000000000D+00 -2.7715086890503D-01 -1.1984393427696D+00
127  1.2600000000000D+00 -2.6608000177233D-01 -1.1815489496359D+00
128  1.2700000000000D+00 -2.5421476056793D-01 -1.1565613110252D+00
129  1.2800000000000D+00 -2.4164826412078D-01 -1.1239813252778D+00
130  1.2900000000000D+00 -2.2847905565954D-01 -1.0843902376687D+00
131  1.3000000000000D+00 -2.1481042495215D-01 -1.0384387406117D+00
132  1.3100000000000D+00 -2.0074966249017D-01 -9.8683920653003D-01
133  1.3200000000000D+00 -1.8640725397649D-01 -9.3035715362185D-01
134  1.3300000000000D+00 -1.7189602308596D-01 -8.6980204124172D-01
135  1.3400000000000D+00 -1.5733023145534D-01 -8.0601750351834D-01
136  1.3500000000000D+00 -1.4282464627419D-01 -7.3987114669159D-01
137  1.3600000000000D+00 -1.2849358527536D-01 -6.7224402880940D-01
138  1.3700000000000D+00 -1.1444995026330D-01 -6.0401995642759D-01
139  1.3800000000000D+00 -1.0080426014690D-01 -5.3607473075467D-01
140  1.3900000000000D+00 -8.7663694663570D-02 -4.6926547844076D-01
141  1.4000000000000D+00 -7.5131160209757D-02 -4.0442020467835D-01
142  1.4100000000000D+00 -6.3304388482098D-02 -3.4232769783889D-01
143  1.4200000000000D+00 -5.2275079575207D-02 -2.8372792608946D-01
144  1.4300000000000D+00 -4.2128098694761D-02 -2.2930303644800D-01
145  1.4400000000000D+00 -3.2940737874063D-02 -1.7966909360727D-01
146  1.4500000000000D+00 -2.4782050734830D-02 -1.3536865549182D-01
147  1.4600000000000D+00 -1.7712268896057D-02 -9.6864289381331D-02
148  1.4700000000000D+00 -1.1786744505978D-02 -6.4557617619971D-02
149  1.4800000000000D+00 -7.0243217802058D-03 -3.8610878813164D-02
150  1.4900000000000D+00 -3.4708535239772D-03 -1.9300164173990D-02
151  1.5000000000000D+00 -1.2474072384597D-03 -7.3071978035097D-03
152  1.5100000000000D+00 -2.1474065817150D-04 -1.7556403382560D-03
153  1.5200000000000D+00  6.2026046523867D-05 -4.4154914353577D-05
154  1.5300000000000D+00  1.5018107106848D-05  3.6294101778719D-05
155  1.5400000000000D+00 -2.5180390898583D-05 -7.5326152834750D-05
156  1.5500000000000D+00 -2.1852524263634D-07 -7.1512684415929D-07
157  1.5600000000000D+00  4.2496582703277D-06  9.7831342568791D-06
158  1.5700000000000D+00  4.2068666121003D-08  6.4326519992902D-07
159  1.5800000000000D+00  1.4898699039968D-07  2.2781360809162D-06
160  1.5900000000000D+00  0.0000000000000D+00  0.0000000000000D+00
161  1.6000000000000D+00  0.0000000000000D+00  0.0000000000000D+00
162  1.6100000000000D+00  0.0000000000000D+00  0.0000000000000D+00
163  1.6200000000000D+00  0.0000000000000D+00  0.0000000000000D+00
164  1.6300000000000D+00  0.0000000000000D+00  0.0000000000000D+00
165  1.6400000000000D+00  0.0000000000000D+00  0.0000000000000D+00
166  1.6500000000000D+00  0.0000000000000D+00  0.0000000000000D+00
167  1.6600000000000D+00  0.0000000000000D+00  0.0000000000000D+00
168  1.6700000000000D+00  0.0000000000000D+00  0.0000000000000D+00
169  1.6800000000000D+00  0.0000000000000D+00  0.0000000000000D+00
170  1.6900000000000D+00  0.0000000000000D+00  0.0000000000000D+00
171  1.7000000000000D+00  0.0000000000000D+00  0.0000000000000D+00
172  1.7100000000000D+00  0.0000000000000D+00  0.0000000000000D+00
173  1.7200000000000D+00  0.0000000000000D+00  0.0000000000000D+00
174  1.7300000000000D+00  0.0000000000000D+00  0.0000000000000D+00
175  1.7400000000000D+00  0.0000000000000D+00  0.0000000000000D+00
176  1.7500000000000D+00  0.0000000000000D+00  0.0000000000000D+00
177  1.7600000000000D+00  0.0000000000000D+00  0.0000000000000D+00
178  1.7700000000000D+00  0.0000000000000D+00  0.0000000000000D+00
179  1.7800000000000D+00  0.0000000000000D+00  0.0000000000000D+00
180  1.7900000000000D+00  0.0000000000000D+00  0.0000000000000D+00
181  1.8000000000000D+00  0.0000000000000D+00  0.0000000000000D+00
182  1.8100000000000D+00  0.0000000000000D+00  0.0000000000000D+00
183  1.8200000000000D+00  0.0000000000000D+00  0.0000000000000D+00
184  1.8300000000000D+00  0.0000000000000D+00  0.0000000000000D+00
185  1.8400000000000D+00  0.0000000000000D+00  0.0000000000000D+00
186  1.8500000000000D+00  0.0000000000000D+00  0.0000000000000D+00
187  1.8600000000000D+00  0.0000000000000D+00  0.0000000000000D+00
188  1.8700000000000D+00  0.0000000000000D+00  0.0000000000000D+00
189  1.8800000000000D+00  0.0000000000000D+00  0.0000000000000D+00
190  1.8900000000000D+00  0.0000000000000D+00  0.0000000000000D+00
191  1.9000000000000D+00  0.0000000000000D+00  0.0000000000000D+00
192  1.9100000000000D+00  0.0000000000000D+00  0.0000000000000D+00
193  1.9200000000000D+00  0.0000000000000D+00  0.0000000000000D+00
194  1.9300000000000D+00  0.0000000000000D+00  0.0000000000000D+00
195  1.9400000000000D+00  0.0000000000000D+00  0.0000000000000D+00
196  1.9500000000000D+00  0.0000000000000D+00  0.0000000000000D+00
197  1.9600000000000D+00  0.0000000000000D+00  0.0000000000000D+00
198  1.9700000000000D+00  0.0000000000000D+00  0.0000000000000D+00
199  1.9800000000000D+00  0.0000000000000D+00  0.0000000000000D+00
200  1.9900000000000D+00  0.0000000000000D+00  0.0000000000000D+00
201  2.0000000000000D+00  0.0000000000000D+00  0.0000000000000D+00
202  2.0100000000000D+00  0.0000000000000D+00  0.0000000000000D+00
203  2.0200000000000D+00  0.0000000000000D+00  0.0000000000000D+00
204  2.0300000000000D+00  0.0000000000000D+00  0.0000000000000D+00
205  2.0400000000000D+00  0.0000000000000D+00  0.0000000000000D+00
206  2.0500000000000D+00  0.0000000000000D+00  0.0000000000000D+00
207  2.0600000000000D+00  0.0000000000000D+00  0.0000000000000D+00
208  2.0700000000000D+00  0.0000000000000D+00  0.0000000000000D+00
209  2.0800000000000D+00  0.0000000000000D+00  0.0000000000000D+00
210  2.0900000000000D+00  0.0000000000000D+00  0.0000000000000D+00
211  2.1000000000000D+00  0.0000000000000D+00  0.0000000000000D+00
212  2.1100000000000D+00  0.0000000000000D+00  0.0000000000000D+00
213  2.1200000000000D+00  0.0000000000000D+00  0.0000000000000D+00
214  2.1300000000000D+00  0.0000000000000D+00  0.0000000000000D+00
215  2.1400000000000D+00  0.0000000000000D+00  0.0000000000000D+00
216  2.1500000000000D+00  0.0000000000000D+00  0.0000000000000D+00
217  2.1600000000000D+00  0.0000000000000D+00  0.0000000000000D+00
218  2.1700000000000D+00  0.0000000000000D+00  0.0000000000000D+00
219  2.1800000000000D+00  0.0000000000000D+00  0.0000000000000D+00
220  2.1900000000000D+00  0.0000000000000D+00  0.0000000000000D+00
221  2.2000000000000D+00  0.0000000000000D+00  0.0000000000000D+00
222  2.2100000000000D+00  0.0000000000000D+00  0.0000000000000D+00
223  2.2200000000000D+00  0.0000000000000D+00  0.0000000000000D+00
224  2.2300000000000D+00  0.0000000000000D+00  0.0000000000000D+00
225  2.2400000000000D+00  0.0000000000000D+00  0.0000000000000D+00
226  2.2500000000000D+00  0.0000000000000D+00  0.0000000000000D+00
227  2.2600000000000D+00  0.0000000000000D+00  0.0000000000000D+00
228  2.2700000000000D+00  0.0000000000000D+00  0.0000000000000D+00
229  2.2800000000000D+00  0.0000000000000D+00  0.0000000000000D+00
230  2.2900000000000D+00  0.0000000000000D+00  0.0000000000000D+00
231  2.3000000000000D+00  0.0000000000000D+00  0.0000000000000D+00
232  2.3100000000000D+00  0.0000000000000D+00  0.0000000000000D+00
233  2.3200000000000D+00  0.0000000000000D+00  0.0000000000000D+00
234  2.3300000000000D+00  0.0000000000000D+00  0.0000000000000D+00
235  2.3400000000000D+00  0.0000000000000D+00  0.0000000000000D+00
236  2.3500000000000D+00  0.0000000000000D+00  0.0000000000000D+00
237  2.3600000000000D+00  0.0000000000000D+00  0.0000000000000D+00
238  2.3700000000000D+00  0.0000000000000D+00  0.0000000000000D+00
239  2.3800000000000D+00  0.0000000000000D+00  0.0000000000000D+00
240  2.3900000000000D+00  0.0000000000000D+00  0.0000000000000D+00
241  2.4000000000000D+00  0.0000000000000D+00  0.0000000000000D+00
242  2.4100000000000D+00  0.0000000000000D+00  0.0000000000000D+00
243  2.4200000000000D+00  0.0000000000000D+00  0.0000000000000D+00
244  2.4300000000000D+00  0.0000000000000D+00  0.0000000000000D+00
245  2.4400000000000D+00  0.0000000000000D+00  0.0000000000000D+00
246  2.4500000000000D+00  0.0000000000000D+00  0.0000000000000D+00
247  2.4600000000000D+00  0.0000000000000D+00  0.0000000000000D+00
248  2.4700000000000D+00  0.0000000000000D+00  0.0000000000000D+00
249  2.4800000000000D+00  0.0000000000000D+00  0.0000000000000D+00
250  2.4900000000000D+00  0.0000000000000D+00  0.0000000000000D+00
251  2.5000000000000D+00  0.0000000000000D+00  0.0000000000000D+00
252  2.5100000000000D+00  0.0000000000000D+00  0.0000000000000D+00
253  2.5200000000000D+00  0.0000000000000D+00  0.0000000000000D+00
254  2.5300000000000D+00  0.0000000000000D+00  0.0000000000000D+00
255  2.5400000000000D+00  0.0000000000000D+00  0.0000000000000D+00
256  2.5500000000000D+00  0.0000000000000D+00  0.0000000000000D+00
257  2.5600000000000D+00  0.0000000000000D+00  0.0000000000000D+00
258  2.5700000000000D+00  0.0000000000000D+00  0.0000000000000D+00
259  2.5800000000000D+00  0.0000000000000D+00  0.0000000000000D+00
260  2.5900000000000D+00  0.0000000000000D+00  0.0000000000000D+00
261  2.6000000000000D+00  0.0000000000000D+00  0.0000000000000D+00
262  2.6100000000000D+00  0.0000000000000D+00  0.0000000000000D+00
263  2.6200000000000D+00  0.0000000000000D+00  0.0000000000000D+00
264  2.6300000000000D+00  0.0000000000000D+00  0.0000000000000D+00
265  2.6400000000000D+00  0.0000000000000D+00  0.0000000000000D+00
266  2.6500000000000D+00  0.0000000000000D+00  0.0000000000000D+00
267  2.6600000000000D+00  0.0000000000000D+00  0.0000000000000D+00
268  2.6700000000000D+00  0.0000000000000D+00  0.0000000000000D+00
269  2.6800000000000D+00  0.0000000000000D+00  0.0000000000000D+00
270  2.6900000000000D+00  0.0000000000000D+00  0.0000000000000D+00
271  2.7000000000000D+00  0.0000000000000D+00  0.0000000000000D+00
272  2.7100000000000D+00  0.0000000000000D+00  0.0000000000000D+00
273  2.7200000000000D+00  0.0000000000000D+00  0.0000000000000D+00
274  2.7300000000000D+00  0.0000000000000D+00  0.0000000000000D+00
275  2.7400000000000D+00  0.0000000000000D+00  0.0000000000000D+00
276  2.7500000000000D+00  0.0000000000000D+00  0.0000000000000D+00
277  2.7600000000000D+00  0.0000000000000D+00  0.0000000000000D+00
278  2.7700000000000D+00  0.0000000000000D+00  0.0000000000000D+00
279  2.7800000000000D+00  0.0000000000000D+00  0.0000000000000D+00
280  2.7900000000000D+00  0.0000000000000D+00  0.0000000000000D+00
281  2.8000000000000D+00  0.0000000000000D+00  0.0000000000000D+00
282  2.8100000000000D+00  0.0000000000000D+00  0.0000000000000D+00
283  2.8200000000000D+00  0.0000000000000D+00  0.0000000000000D+00
284  2.8300000000000D+00  0.0000000000000D+00  0.0000000000000D+00
285  2.8400000000000D+00  0.0000000000000D+00  0.0000000000000D+00
286  2.8500000000000D+00  0.0000000000000D+00  0.0000000000000D+00
287  2.8600000000000D+00  0.0000000000000D+00  0.0000000000000D+00
288  2.8700000000000D+00  0.0000000000000D+00  0.0000000000000D+00
289  2.8800000000000D+00  0.0000000000000D+00  0.0000000000000D+00
290  2.8900000000000D+00  0.0000000000000D+00  0.0000000000000D+00
291  2.9000000000000D+00  0.0000000000000D+00  0.0000000000000D+00
292  2.9100000000000D+00  0.0000000000000D+00  0.0000000000000D+00
293  2.9200000000000D+00  0.0000000000000D+00  0.0000000000000D+00
294  2.9300000000000D+00  0.0000000000000D+00  0.0000000000000D+00
295  2.9400000000000D+00  0.0000000000000D+00  0.0000000000000D+00
296  2.9500000000000D+00  0.0000000000000D+00  0.0000000000000D+00
297  2.9600000000000D+00  0.0000000000000D+00  0.0000000000000D+00
298  2.9700000000000D+00  0.0000000000000D+00  0.0000000000000D+00
299  2.9800000000000D+00  0.0000000000000D+00  0.0000000000000D+00
300  2.9900000000000D+00  0.0000000000000D+00  0.0000000000000D+00
301  3.0000000000000D+00  0.0000000000000D+00  0.0000000000000D+00
302  3.0100000000000D+00  0.0000000000000D+00  0.0000000000000D+00
303  3.0200000000000D+00  0.0000000000000D+00  0.0000000000000D+00
304  3.0300000000000D+00  0.0000000000000D+00  0.0000000000000D+00
305  3.0400000000000D+00  0.0000000000000D+00  0.0000000000000D+00
306  3.0500000000000D+00  0.0000000000000D+00  0.0000000000000D+00
307  3.0600000000000D+00  0.0000000000000D+00  0.0000000000000D+00
308  3.0700000000000D+00  0.0000000000000D+00  0.0000000000000D+00
309  3.0800000000000D+00  0.0000000000000D+00  0.0000000000000D+00
310  3.0900000000000D+00  0.0000000000000D+00  0.0000000000000D+00
311  3.1000000000000D+00  0.0000000000000D+00  0.0000000000000D+00
312  3.1100000000000D+00  0.0000000000000D+00  0.0000000000000D+00
313  3.1200000000000D+00  0.0000000000000D+00  0.0000000000000D+00
314  3.1300000000000D+00  0.0000000000000D+00  0.0000000000000D+00
315  3.1400000000000D+00  0.0000000000000D+00  0.0000000000000D+00
316  3.1500000000000D+00  0.0000000000000D+00  0.0000000000000D+00
317  3.1600000000000D+00  0.0000000000000D+00  0.0000000000000D+00
318  3.1700000000000D+00  0.0000000000000D+00  0.0000000000000D+00
319  3.1800000000000D+00  0.0000000000000D+00  0.0000000000000D+00
320  3.1900000000000D+00  0.0000000000000D+00  0.0000000000000D+00
321  3.2000000000000D+00  0.0000000000000D+00  0.0000000000000D+00
322  3.2100000000000D+00  0.0000000000000D+00  0.0000000000000D+00
323  3.2200000000000D+00  0.0000000000000D+00  0.0000000000000D+00
324  3.2300000000000D+00  0.0000000000000D+00  0.0000000000000D+00
325  3.2400000000000D+00  0.0000000000000D+00  0.0000000000000D+00
326  3.2500000000000D+00  0.0000000000000D+00  0.0000000000000D+00
327  3.2600000000000D+00  0.0000000000000D+00  0.0000000000000D+00
328  3.2700000000000D+00  0.0000000000000D+00  0.0000000000000D+00
329  3.2800000000000D+00  0.0000000000000D+00  0.0000000000000D+00
330  3.2900000000000D+00  0.0000000000000D+00  0.0000000000000D+00
331  3.3000000000000D+00  0.0000000000000D+00  0.0000000000000D+00
332  3.3100000000000D+00  0.0000000000000D+00  0.0000000000000D+00
333  3.3200000000000D+00  0.0000000000000D+00  0.0000000000000D+00
334  3.3300000000000D+00  0.0000000000000D+00  0.0000000000000D+00
335  3.3400000000000D+00  0.0000000000000D+00  0.0000000000000D+00
336  3.3500000000000D+00  0.0000000000000D+00  0.0000000000000D+00
337  3.3600000000000D+00  0.0000000000000D+00  0.0000000000000D+00
338  3.3700000000000D+00  0.0000000000000D+00  0.0000000000000D+00
339  3.3800000000000D+00  0.0000000000000D+00  0.0000000000000D+00
340  3.3900000000000D+00  0.0000000000000D+00  0.0000000000000D+00
341  3.4000000000000D+00  0.0000000000000D+00  0.0000000000000D+00
342  3.4100000000000D+00  0.0000000000000D+00  0.0000000000000D+00
343  3.4200000000000D+00  0.0000000000000D+00  0.0000000000000D+00
344  3.4300000000000D+00  0.0000000000000D+00  0.0000000000000D+00
345  3.4400000000000D+00  0.0000000000000D+00  0.0000000000000D+00
346  3.4500000000000D+00  0.0000000000000D+00  0.0000000000000D+00
347  3.4600000000000D+00  0.0000000000000D+00  0.0000000000000D+00
348  3.4700000000000D+00  0.0000000000000D+00  0.0000000000000D+00
349  3.4800000000000D+00  0.0000000000000D+00  0.0000000000000D+00
350  3.4900000000000D+00  0.0000000000000D+00  0.0000000000000D+00
351  3.5000000000000D+00  0.0000000000000D+00  0.0000000000000D+00
352  3.5100000000000D+00  0.0000000000000D+00  0.0000000000000D+00
353  3.5200000000000D+00  0.0000000000000D+00  0.0000000000000D+00
354  3.5300000000000D+00  0.0000000000000D+00  0.0000000000000D+00
355  3.5400000000000D+00  0.0000000000000D+00  0.0000000000000D+00
356  3.5500000000000D+00  0.0000000000000D+00  0.0000000000000D+00
357  3.5600000000000D+00  0.0000000000000D+00  0.0000000000000D+00
358  3.5700000000000D+00  0.0000000000000D+00  0.0000000000000D+00
359  3.5800000000000D+00  0.0000000000000D+00  0.0000000000000D+00
360  3.5900000000000D+00  0.0000000000000D+00  0.0000000000000D+00
361  3.6000000000000D+00  0.0000000000000D+00  0.0000000000000D+00
362  3.6100000000000D+00  0.0000000000000D+00  0.0000000000000D+00
363  3.6200000000000D+00  0.0000000000000D+00  0.0000000000000D+00
364  3.6300000000000D+00  0.0000000000000D+00  0.0000000000000D+00
365  3.6400000000000D+00  0.0000000000000D+00  0.0000000000000D+00
366  3.6500000000000D+00  0.0000000000000D+00  0.0000000000000D+00
367  3.6600000000000D+00  0.0000000000000D+00  0.0000000000000D+00
368  3.6700000000000D+00  0.0000000000000D+00  0.0000000000000D+00
369  3.6800000000000D+00  0.0000000000000D+00  0.0000000000000D+00
370  3.6900000000000D+00  0.0000000000000D+00  0.0000000000000D+00
371  3.7000000000000D+00  0.0000000000000D+00  0.0000000000000D+00
372  3.7100000000000D+00  0.0000000000000D+00  0.0000000000000D+00
373  3.7200000000000D+00  0.0000000000000D+00  0.0000000000000D+00
374  3.7300000000000D+00  0.0000000000000D+00  0.0000000000000D+00
375  3.7400000000000D+00  0.0000000000000D+00  0.0000000000000D+00
376  3.7500000000000D+00  0.0000000000000D+00  0.0000000000000D+00
377  3.7600000000000D+00  0.0000000000000D+00  0.0000000000000D+00
378  3.7700000000000D+00  0.0000000000000D+00  0.0000000000000D+00
379  3.7800000000000D+00  0.0000000000000D+00  0.0000000000000D+00
380  3.7900000000000D+00  0.0000000000000D+00  0.0000000000000D+00
381  3.8000000000000D+00  0.0000000000000D+00  0.0000000000000D+00
382  3.8100000000000D+00  0.0000000000000D+00  0.0000000000000D+00
383  3.8200000000000D+00  0.0000000000000D+00  0.0000000000000D+00
384  3.8300000000000D+00  0.0000000000000D+00  0.0000000000000D+00
385  3.8400000000000D+00  0.0000000000000D+00  0.0000000000000D+00
386  3.8500000000000D+00  0.0000000000000D+00  0.0000000000000D+00
387  3.8600000000000D+00  0.0000000000000D+00  0.0000000000000D+00
388  3.8700000000000D+00  0.0000000000000D+00  0.0000000000000D+00
389  3.8800000000000D+00  0.0000000000000D+00  0.0000000000000D+00
390  3.8900000000000D+00  0.0000000000000D+00  0.0000000000000D+00
391  3.9000000000000D+00  0.0000000000000D+00  0.0000000000000D+00
392  3.9100000000000D+00  0.0000000000000D+00  0.0000000000000D+00
393  3.9200000000000D+00  0.0000000000000D+00  0.0000000000000D+00
394  3.9300000000000D+00  0.0000000000000D+00  0.0000000000000D+00
395  3.9400000000000D+00  0.0000000000000D+00  0.0000000000000D+00
396  3.9500000000000D+00  0.0000000000000D+00  0.0000000000000D+00
397  3.9600000000000D+00  0.0000000000000D+00  0.0000000000000D+00
398  3.9700000000000D+00  0.0000000000000D+00  0.0000000000000D+00
399  3.9800000000000D+00  0.0000000000000D+00  0.0000000000000D+00
400  3.9900000000000D+00  0.0000000000000D+00  0.0000000000000D+00
401  4.0000000000000D+00  0.0000000000000D+00  0.0000000000000D+00
402  4.0100000000000D+00  0.0000000000000D+00  0.0000000000000D+00
403  4.0200000000000D+00  0.0000000000000D+00  0.0000000000000D+00
404  4.0300000000000D+00  0.0000000000000D+00  0.0000000000000D+00
405  4.0400000000000D+00  0.0000000000000D+00  0.0000000000000D+00
406  4.0500000000000D+00  0.0000000000000D+00  0.0000000000000D+00
407  4.0600000000000D+00  0.0000000000000D+00  0.0000000000000D+00
408  4.0700000000000D+00  0.0000000000000D+00  0.0000000000000D+00
409  4.0800000000000D+00  0.0000000000000D+00  0.0000000000000D+00
410  4.0900000000000D+00  0.0000000000000D+00  0.0000000000000D+00
411  4.1000000000000D+00  0.0000000000000D+00  0.0000000000000D+00
412  4.1100000000000D+00  0.0000000000000D+00  0.0000000000000D+00
413  4.1200000000000D+00  0.0000000000000D+00  0.0000000000000D+00
414  4.1300000000000D+00  0.0000000000000D+00  0.0000000000000D+00
415  4.1400000000000D+00  0.0000000000000D+00  0.0000000000000D+00
416  4.1500000000000D+00  0.0000000000000D+00  0.0000000000000D+00
417  4.1600000000000D+00  0.0000000000000D+00  0.0000000000000D+00
418  4.1700000000000D+00  0.0000000000000D+00  0.0000000000000D+00
419  4.1800000000000D+00  0.0000000000000D+00  0.0000000000000D+00
420  4.1900000000000D+00  0.0000000000000D+00  0.0000000000000D+00
421  4.2000000000000D+00  0.0000000000000D+00  0.0000000000000D+00
422  4.2100000000000D+00  0.0000000000000D+00  0.0000000000000D+00
423  4.2200000000000D+00  0.0000000000000D+00  0.0000000000000D+00
424  4.2300000000000D+00  0.0000000000000D+00  0.0000000000000D+00
425  4.2400000000000D+00  0.0000000000000D+00  0.0000000000000D+00
426  4.2500000000000D+00  0.0000000000000D+00  0.0000000000000D+00
427  4.2600000000000D+00  0.0000000000000D+00  0.0000000000000D+00
428  4.2700000000000D+00  0.0000000000000D+00  0.0000000000000D+00
429  4.2800000000000D+00  0.0000000000000D+00  0.0000000000000D+00
430  4.2900000000000D+00  0.0000000000000D+00  0.0000000000000D+00
431  4.3000000000000D+00  0.0000000000000D+00  0.0000000000000D+00
432  4.3100000000000D+00  0.0000000000000D+00  0.0000000000000D+00
433  4.3200000000000D+00  0.0000000000000D+00  0.0000000000000D+00
434  4.3300000000000D+00  0.0000000000000D+00  0.0000000000000D+00
435  4.3400000000000D+00  0.0000000000000D+00  0.0000000000000D+00
436  4.3500000000000D+00  0.0000000000000D+00  0.0000000000000D+00
437  4.3600000000000D+00  0.0000000000000D+00  0.0000000000000D+00
438  4.3700000000000D+00  0.0000000000000D+00  0.0000000000000D+00
439  4.3800000000000D+00  0.0000000000000D+00  0.0000000000000D+00
440  4.3900000000000D+00  0.0000000000000D+00  0.0000000000000D+00
441  4.4000000000000D+00  0.0000000000000D+00  0.0000000000000D+00
442  4.4100000000000D+00  0.0000000000000D+00  0.0000000000000D+00
443  4.4200000000000D+00  0.0000000000000D+00  0.0000000000000D+00