Pd    ONCVPSP  r_core=  1.41  1.46  1.55
46.0000     18.0000      151030    zatom,zion,pspd
8   -1013   2     4   600     0    pspcod,pspxc,lmax,lloc,mmax,r2well
5.99000000  7.00000000  0.00000000    rchrg fchrg qchrg
2     2     2     0     0    nproj
0                 extension_switch
0                         8.0967951897882D+00 -1.8913021336647D+00
1  0.0000000000000D+00 -8.9735996411378D-11 -8.8541202147852D-10
2  1.0000000000000D-02  6.5858257334623D-02 -5.7118217428749D-02
3  2.0000000000000D-02  1.3158426538989D-01 -1.1408589277579D-01
4  3.0000000000000D-02  1.9704621839240D-01 -1.7075177579874D-01
5  4.0000000000000D-02  2.6211319490211D-01 -2.2696321784661D-01
6  5.0000000000000D-02  3.2665559330574D-01 -2.8256551721007D-01
7  6.0000000000000D-02  3.9054555936613D-01 -3.3740131730324D-01
8  7.0000000000000D-02  4.5365740328594D-01 -3.9131007423780D-01
9  8.0000000000000D-02  5.1586800383347D-01 -4.4412760946459D-01
10  9.0000000000000D-02  5.7705719718938D-01 -4.9568576206852D-01
11  1.0000000000000D-01  6.3710814830326D-01 -5.4581215402008D-01
12  1.1000000000000D-01  6.9590770269874D-01 -5.9433008022567D-01
13  1.2000000000000D-01  7.5334671683201D-01 -6.4105853359409D-01
14  1.3000000000000D-01  8.0932036529148D-01 -6.8581237356452D-01
15  1.4000000000000D-01  8.6372842332256D-01 -7.2840264464233D-01
16  1.5000000000000D-01  9.1647552337082D-01 -7.6863704948180D-01
17  1.6000000000000D-01  9.6747138455594D-01 -8.0632057896238D-01
18  1.7000000000000D-01  1.0166310142169D+00 -8.4125629954816D-01
19  1.8000000000000D-01  1.0638748809024D+00 -8.7324629602467D-01
20  1.9000000000000D-01  1.1091290584196D+00 -9.0209276549455D-01
21  2.0000000000000D-01  1.1523253407936D+00 -9.2759925631051D-01
22  2.1000000000000D-01  1.1934013282288D+00 -9.4957204345400D-01
23  2.2000000000000D-01  1.2323004844027D+00 -9.6782162975546D-01
24  2.3000000000000D-01  1.2689721656531D+00 -9.8216436032316D-01
25  2.4000000000000D-01  1.3033716228429D+00 -9.9242413562270D-01
26  2.5000000000000D-01  1.3354599769064D+00 -9.9843420685548D-01
27  2.6000000000000D-01  1.3652041692810D+00 -1.0000390356393D+00
28  2.7000000000000D-01  1.3925768886220D+00 -9.9709619852333D-01
29  2.8000000000000D-01  1.4175564753704D+00 -9.8947831558584D-01
30  2.9000000000000D-01  1.4401268059051D+00 -9.7707498129175D-01
31  3.0000000000000D-01  1.4602771581495D+00 -9.5979467493478D-01
32  3.1000000000000D-01  1.4780020606196D+00 -9.3756662737781D-01
33  3.2000000000000D-01  1.4933011270032D+00 -9.1034262043978D-01
34  3.3000000000000D-01  1.5061788784323D+00 -8.7809869517044D-01
35  3.4000000000000D-01  1.5166445556646D+00 -8.4083674541048D-01
36  3.5000000000000D-01  1.5247119234189D+00 -7.9858597345795D-01
37  3.6000000000000D-01  1.5303990691137D+00 -7.5140418535350D-01
38  3.7000000000000D-01  1.5337281982376D+00 -6.9937890425457D-01
39  3.8000000000000D-01  1.5347254285389D+00 -6.4262828158842D-01
40  3.9000000000000D-01  1.5334205851491D+00 -5.8130178714712D-01
41  4.0000000000000D-01  1.5298469986704D+00 -5.1558066100557D-01
42  4.1000000000000D-01  1.5240413081378D+00 -4.4567811209210D-01
43  4.2000000000000D-01  1.5160432706355D+00 -3.7183925040496D-01
44  4.3000000000000D-01  1.5058955791915D+00 -2.9434074222935D-01
45  4.4000000000000D-01  1.4936436904021D+00 -2.1349018024786D-01
46  4.5000000000000D-01  1.4793356630459D+00 -1.2962516312754D-01
47  4.6000000000000D-01  1.4630220087473D+00 -4.3112081988715D-02
48  4.7000000000000D-01  1.4447555555288D+00  4.5655385917651D-02
49  4.8000000000000D-01  1.4245913248660D+00  1.3625807300085D-01
50  4.9000000000000D-01  1.4025864226271D+00  2.2825340022496D-01
51  5.0000000000000D-01  1.3787999440361D+00  3.2117772968985D-01
52  5.1000000000000D-01  1.3532928925593D+00  4.1454897844495D-01
53  5.2000000000000D-01  1.3261281123732D+00  5.0786947809635D-01
54  5.3000000000000D-01  1.2973702338336D+00  6.0062906186659D-01
55  5.4000000000000D-01  1.2670856311341D+00  6.9230835797572D-01
56  5.5000000000000D-01  1.2353423911177D+00  7.8238226557002D-01
57  5.6000000000000D-01  1.2022102919970D+00  8.7032358696080D-01
58  5.7000000000000D-01  1.1677607905355D+00  9.5560678767025D-01
59  5.8000000000000D-01  1.1320670160687D+00  1.0377118537614D+00
60  5.9000000000000D-01  1.0952037695747D+00  1.1161282141550D+00
61  6.0000000000000D-01  1.0572475258719D+00  1.1903586941607D+00
62  6.1000000000000D-01  1.0182764368970D+00  1.2599234652649D+00
63  6.2000000000000D-01  9.7837033393125D-01  1.3243639553699D+00
64  6.3000000000000D-01  9.3761072657490D-01  1.3832466831606D+00
65  6.4000000000000D-01  8.9608079623487D-01  1.4361669801152D+00
66  6.5000000000000D-01  8.5386538188309D-01  1.4827525638755D+00
67  6.6000000000000D-01  8.1105095586583D-01  1.5226669272585D+00
68  6.7000000000000D-01  7.6772558759737D-01  1.5556125081295D+00
69  6.8000000000000D-01  7.2397889305447D-01  1.5813336066527D+00
70  6.9000000000000D-01  6.7990196810161D-01  1.5996190181090D+00
71  7.0000000000000D-01  6.3558730381994D-01  1.6103043514782D+00
72  7.1000000000000D-01  5.9112868218375D-01  1.6132740063445D+00
73  7.2000000000000D-01  5.4662105062632D-01  1.6084627833489D+00
74  7.3000000000000D-01  5.0216037426158D-01  1.5958571064005D+00
75  7.4000000000000D-01  4.5784346477438D-01  1.5754958381005D+00
76  7.5000000000000D-01  4.1376778526081D-01  1.5474706733367D+00
77  7.6000000000000D-01  3.7003123058714D-01  1.5119260997219D+00
78  7.7000000000000D-01  3.2673188313838D-01  1.4690589174494D+00
79  7.8000000000000D-01  2.8396774414251D-01  1.4191173151826D+00
80  7.9000000000000D-01  2.4183644108191D-01  1.3623995027609D+00
81  8.0000000000000D-01  2.0043491203334D-01  1.2992519057206D+00
82  8.1000000000000D-01  1.5985906811076D-01  1.2300669308828D+00
83  8.2000000000000D-01  1.2020343551636D-01  1.1552803164974D+00
84  8.3000000000000D-01  8.1560779031485D-02  1.0753680846061D+00
85  8.4000000000000D-01  4.4021709095143D-02  9.9084311736053D-01
86  8.5000000000000D-01  7.6742749220470D-03  9.0225138295847D-01
87  8.6000000000000D-01 -2.7396453601204D-02  8.1016784059858D-01
88  8.7000000000000D-01 -6.1108812236771D-02  7.1519205736132D-01
89  8.8000000000000D-01 -9.3384973685421D-02  6.1794357316227D-01
90  8.9000000000000D-01 -1.2415138038294D-01  5.1905705285462D-01
91  9.0000000000000D-01 -1.5333917515566D-01  4.1917726714720D-01
92  9.1000000000000D-01 -1.8088462593641D-01  3.1895394621949D-01
93  9.2000000000000D-01 -2.0672954062660D-01  2.1903655172797D-01
94  9.3000000000000D-01 -2.3082166811273D-01  1.2006901428494D-01
95  9.4000000000000D-01 -2.5311508140817D-01  2.2684484428736D-02
96  9.5000000000000D-01 -2.7357053889484D-01 -7.2499854420102D-02
97  9.6000000000000D-01 -2.9215581968696D-01 -1.6488786253429D-01
98  9.7000000000000D-01 -3.0884602922548D-01 -2.5390936196553D-01
99  9.8000000000000D-01 -3.2362387134798D-01 -3.3902484911518D-01
100  9.9000000000000D-01 -3.3647988325200D-01 -4.1972995620180D-01
101  1.0000000000000D+00 -3.4741262998809D-01 -4.9555961796798D-01
102  1.0100000000000D+00 -3.5642885537715D-01 -5.6609190235604D-01
103  1.0200000000000D+00 -3.6354358654167D-01 -6.3095146668912D-01
104  1.0300000000000D+00 -3.6878018958996D-01 -6.8981260429452D-01
105  1.0400000000000D+00 -3.7217037432548D-01 -7.4240184979462D-01
106  1.0500000000000D+00 -3.7375414629778D-01 -7.8850011573620D-01
107  1.0600000000000D+00 -3.7357970490918D-01 -8.2794433725844D-01
108  1.0700000000000D+00 -3.7170328675056D-01 -8.6062860618277D-01
109  1.0800000000000D+00 -3.6818895383360D-01 -8.8650478099593D-01
110  1.0900000000000D+00 -3.6310832682149D-01 -9.0558256369302D-01
111  1.1000000000000D+00 -3.5654026391539D-01 -9.1792904023610D-01
112  1.1100000000000D+00 -3.4857048653010D-01 -9.2366768637769D-01
113  1.1200000000000D+00 -3.3929115341083D-01 -9.2297684606591D-01
114  1.1300000000000D+00 -3.2880038533705D-01 -9.1608769488922D-01
115  1.1400000000000D+00 -3.1720174302444D-01 -9.0328170596963D-01
116  1.1500000000000D+00 -3.0460366138421D-01 -8.8488764159473D-01
117  1.1600000000000D+00 -2.9111884371307D-01 -8.6127809836741D-01
118  1.1700000000000D+00 -2.7686361981263D-01 -8.3286563827408D-01
119  1.1800000000000D+00 -2.6195727244843D-01 -8.0009854257296D-01
120  1.1900000000000D+00 -2.4652133697797D-01 -7.6345623006011D-01
121  1.2000000000000D+00 -2.3067887928628D-01 -7.2344438478507D-01
122  1.2100000000000D+00 -2.1455375738706D-01 -6.8058984074812D-01
123  1.2200000000000D+00 -1.9826987243924D-01 -6.3543527566100D-01
124  1.2300000000000D+00 -1.8195041503731D-01 -5.8853376729060D-01
125  1.2400000000000D+00 -1.6571711277477D-01 -5.4044326765783D-01
126  1.2500000000000D+00 -1.4968948524590D-01 -4.9172105249730D-01
127  1.2600000000000D+00 -1.3398411264711D-01 -4.4291820387084D-01
128  1.2700000000000D+00 -1.1871392410548D-01 -3.9457418373181D-01
129  1.2800000000000D+00 -1.0398751190288D-01 -3.4721155704782D-01
130  1.2900000000000D+00 -8.9908477488355D-02 -3.0133092096515D-01
131  1.3000000000000D+00 -7.6574815069098D-02 -2.5740609558021D-01
132  1.3100000000000D+00 -6.4078338474730D-02 -2.1587963133866D-01
133  1.3200000000000D+00 -5.2504156342051D-02 -1.7715868226207D-01
134  1.3300000000000D+00 -4.1930200716807D-02 -1.4161129462334D-01
135  1.3400000000000D+00 -3.2426813722464D-02 -1.0956315678574D-01
136  1.3500000000000D+00 -2.4056396014820D-02 -8.1294847146870D-02
137  1.3600000000000D+00 -1.6873121246003D-02 -5.7039621910788D-02
138  1.3700000000000D+00 -1.0926883777330D-02 -3.6996185208340D-02
139  1.3800000000000D+00 -6.2309276055934D-03 -2.1214491610425D-02
140  1.3900000000000D+00 -2.8401918759013D-03 -9.8722180816928D-03
141  1.4000000000000D+00 -8.7098358742635D-04 -3.3611682106017D-03
142  1.4100000000000D+00 -7.9319830836695D-05 -7.1500766347795D-04
143  1.4200000000000D+00  5.4564301280012D-05 -1.6570103414053D-05
144  1.4300000000000D+00 -1.1992890335945D-05 -1.1060491744714D-05
145  1.4400000000000D+00 -1.5445811355590D-05 -2.0948447628242D-05
146  1.4500000000000D+00  3.3243954705925D-06  1.4467318126910D-06
147  1.4600000000000D+00  1.2377350259269D-06  8.6377895248201D-07
148  1.4700000000000D+00  1.7307053921542D-07  1.8367047434475D-06
149  1.4800000000000D+00  0.0000000000000D+00  0.0000000000000D+00
150  1.4900000000000D+00  0.0000000000000D+00  0.0000000000000D+00
151  1.5000000000000D+00  0.0000000000000D+00  0.0000000000000D+00
152  1.5100000000000D+00  0.0000000000000D+00  0.0000000000000D+00
153  1.5200000000000D+00  0.0000000000000D+00  0.0000000000000D+00
154  1.5300000000000D+00  0.0000000000000D+00  0.0000000000000D+00
155  1.5400000000000D+00  0.0000000000000D+00  0.0000000000000D+00
156  1.5500000000000D+00  0.0000000000000D+00  0.0000000000000D+00
157  1.5600000000000D+00  0.0000000000000D+00  0.0000000000000D+00
158  1.5700000000000D+00  0.0000000000000D+00  0.0000000000000D+00
159  1.5800000000000D+00  0.0000000000000D+00  0.0000000000000D+00
160  1.5900000000000D+00  0.0000000000000D+00  0.0000000000000D+00
161  1.6000000000000D+00  0.0000000000000D+00  0.0000000000000D+00
162  1.6100000000000D+00  0.0000000000000D+00  0.0000000000000D+00
163  1.6200000000000D+00  0.0000000000000D+00  0.0000000000000D+00
164  1.6300000000000D+00  0.0000000000000D+00  0.0000000000000D+00
165  1.6400000000000D+00  0.0000000000000D+00  0.0000000000000D+00
166  1.6500000000000D+00  0.0000000000000D+00  0.0000000000000D+00
167  1.6600000000000D+00  0.0000000000000D+00  0.0000000000000D+00
168  1.6700000000000D+00  0.0000000000000D+00  0.0000000000000D+00
169  1.6800000000000D+00  0.0000000000000D+00  0.0000000000000D+00
170  1.6900000000000D+00  0.0000000000000D+00  0.0000000000000D+00
171  1.7000000000000D+00  0.0000000000000D+00  0.0000000000000D+00
172  1.7100000000000D+00  0.0000000000000D+00  0.0000000000000D+00
173  1.7200000000000D+00  0.0000000000000D+00  0.0000000000000D+00
174  1.7300000000000D+00  0.0000000000000D+00  0.0000000000000D+00
175  1.7400000000000D+00  0.0000000000000D+00  0.0000000000000D+00
176  1.7500000000000D+00  0.0000000000000D+00  0.0000000000000D+00
177  1.7600000000000D+00  0.0000000000000D+00  0.0000000000000D+00
178  1.7700000000000D+00  0.0000000000000D+00  0.0000000000000D+00
179  1.7800000000000D+00  0.0000000000000D+00  0.0000000000000D+00
180  1.7900000000000D+00  0.0000000000000D+00  0.0000000000000D+00
181  1.8000000000000D+00  0.0000000000000D+00  0.0000000000000D+00
182  1.8100000000000D+00  0.0000000000000D+00  0.0000000000000D+00
183  1.8200000000000D+00  0.0000000000000D+00  0.0000000000000D+00
184  1.8300000000000D+00  0.0000000000000D+00  0.0000000000000D+00
185  1.8400000000000D+00  0.0000000000000D+00  0.0000000000000D+00
186  1.8500000000000D+00  0.0000000000000D+00  0.0000000000000D+00
187  1.8600000000000D+00  0.0000000000000D+00  0.0000000000000D+00
188  1.8700000000000D+00  0.0000000000000D+00  0.0000000000000D+00
189  1.8800000000000D+00  0.0000000000000D+00  0.0000000000000D+00
190  1.8900000000000D+00  0.0000000000000D+00  0.0000000000000D+00
191  1.9000000000000D+00  0.0000000000000D+00  0.0000000000000D+00
192  1.9100000000000D+00  0.0000000000000D+00  0.0000000000000D+00
193  1.9200000000000D+00  0.0000000000000D+00  0.0000000000000D+00
194  1.9300000000000D+00  0.0000000000000D+00  0.0000000000000D+00
195  1.9400000000000D+00  0.0000000000000D+00  0.0000000000000D+00
196  1.9500000000000D+00  0.0000000000000D+00  0.0000000000000D+00
197  1.9600000000000D+00  0.0000000000000D+00  0.0000000000000D+00
198  1.9700000000000D+00  0.0000000000000D+00  0.0000000000000D+00
199  1.9800000000000D+00  0.0000000000000D+00  0.0000000000000D+00
200  1.9900000000000D+00  0.0000000000000D+00  0.0000000000000D+00
201  2.0000000000000D+00  0.0000000000000D+00  0.0000000000000D+00
202  2.0100000000000D+00  0.0000000000000D+00  0.0000000000000D+00
203  2.0200000000000D+00  0.0000000000000D+00  0.0000000000000D+00
204  2.0300000000000D+00  0.0000000000000D+00  0.0000000000000D+00
205  2.0400000000000D+00  0.0000000000000D+00  0.0000000000000D+00
206  2.0500000000000D+00  0.0000000000000D+00  0.0000000000000D+00
207  2.0600000000000D+00  0.0000000000000D+00  0.0000000000000D+00
208  2.0700000000000D+00  0.0000000000000D+00  0.0000000000000D+00
209  2.0800000000000D+00  0.0000000000000D+00  0.0000000000000D+00
210  2.0900000000000D+00  0.0000000000000D+00  0.0000000000000D+00
211  2.1000000000000D+00  0.0000000000000D+00  0.0000000000000D+00
212  2.1100000000000D+00  0.0000000000000D+00  0.0000000000000D+00
213  2.1200000000000D+00  0.0000000000000D+00  0.0000000000000D+00
214  2.1300000000000D+00  0.0000000000000D+00  0.0000000000000D+00
215  2.1400000000000D+00  0.0000000000000D+00  0.0000000000000D+00
216  2.1500000000000D+00  0.0000000000000D+00  0.0000000000000D+00
217  2.1600000000000D+00  0.0000000000000D+00  0.0000000000000D+00
218  2.1700000000000D+00  0.0000000000000D+00  0.0000000000000D+00
219  2.1800000000000D+00  0.0000000000000D+00  0.0000000000000D+00
220  2.1900000000000D+00  0.0000000000000D+00  0.0000000000000D+00
221  2.2000000000000D+00  0.0000000000000D+00  0.0000000000000D+00
222  2.2100000000000D+00  0.0000000000000D+00  0.0000000000000D+00
223  2.2200000000000D+00  0.0000000000000D+00  0.0000000000000D+00
224  2.2300000000000D+00  0.0000000000000D+00  0.0000000000000D+00
225  2.2400000000000D+00  0.0000000000000D+00  0.0000000000000D+00
226  2.2500000000000D+00  0.0000000000000D+00  0.0000000000000D+00
227  2.2600000000000D+00  0.0000000000000D+00  0.0000000000000D+00
228  2.2700000000000D+00  0.0000000000000D+00  0.0000000000000D+00
229  2.2800000000000D+00  0.0000000000000D+00  0.0000000000000D+00
230  2.2900000000000D+00  0.0000000000000D+00  0.0000000000000D+00
231  2.3000000000000D+00  0.0000000000000D+00  0.0000000000000D+00
232  2.3100000000000D+00  0.0000000000000D+00  0.0000000000000D+00
233  2.3200000000000D+00  0.0000000000000D+00  0.0000000000000D+00
234  2.3300000000000D+00  0.0000000000000D+00  0.0000000000000D+00
235  2.3400000000000D+00  0.0000000000000D+00  0.0000000000000D+00
236  2.3500000000000D+00  0.0000000000000D+00  0.0000000000000D+00
237  2.3600000000000D+00  0.0000000000000D+00  0.0000000000000D+00
238  2.3700000000000D+00  0.0000000000000D+00  0.0000000000000D+00
239  2.3800000000000D+00  0.0000000000000D+00  0.0000000000000D+00
240  2.3900000000000D+00  0.0000000000000D+00  0.0000000000000D+00
241  2.4000000000000D+00  0.0000000000000D+00  0.0000000000000D+00
242  2.4100000000000D+00  0.0000000000000D+00  0.0000000000000D+00
243  2.4200000000000D+00  0.0000000000000D+00  0.0000000000000D+00
244  2.4300000000000D+00  0.0000000000000D+00  0.0000000000000D+00
245  2.4400000000000D+00  0.0000000000000D+00  0.0000000000000D+00
246  2.4500000000000D+00  0.0000000000000D+00  0.0000000000000D+00
247  2.4600000000000D+00  0.0000000000000D+00  0.0000000000000D+00
248  2.4700000000000D+00  0.0000000000000D+00  0.0000000000000D+00
249  2.4800000000000D+00  0.0000000000000D+00  0.0000000000000D+00
250  2.4900000000000D+00  0.0000000000000D+00  0.0000000000000D+00
251  2.5000000000000D+00  0.0000000000000D+00  0.0000000000000D+00
252  2.5100000000000D+00  0.0000000000000D+00  0.0000000000000D+00
253  2.5200000000000D+00  0.0000000000000D+00  0.0000000000000D+00
254  2.5300000000000D+00  0.0000000000000D+00  0.0000000000000D+00
255  2.5400000000000D+00  0.0000000000000D+00  0.0000000000000D+00
256  2.5500000000000D+00  0.0000000000000D+00  0.0000000000000D+00
257  2.5600000000000D+00  0.0000000000000D+00  0.0000000000000D+00
258  2.5700000000000D+00  0.0000000000000D+00  0.0000000000000D+00
259  2.5800000000000D+00  0.0000000000000D+00  0.0000000000000D+00
260  2.5900000000000D+00  0.0000000000000D+00  0.0000000000000D+00
261  2.6000000000000D+00  0.0000000000000D+00  0.0000000000000D+00
262  2.6100000000000D+00  0.0000000000000D+00  0.0000000000000D+00
263  2.6200000000000D+00  0.0000000000000D+00  0.0000000000000D+00
264  2.6300000000000D+00  0.0000000000000D+00  0.0000000000000D+00
265  2.6400000000000D+00  0.0000000000000D+00  0.0000000000000D+00
266  2.6500000000000D+00  0.0000000000000D+00  0.0000000000000D+00
267  2.6600000000000D+00  0.0000000000000D+00  0.0000000000000D+00
268  2.6700000000000D+00  0.0000000000000D+00  0.0000000000000D+00
269  2.6800000000000D+00  0.0000000000000D+00  0.0000000000000D+00
270  2.6900000000000D+00  0.0000000000000D+00  0.0000000000000D+00
271  2.7000000000000D+00  0.0000000000000D+00  0.0000000000000D+00
272  2.7100000000000D+00  0.0000000000000D+00  0.0000000000000D+00
273  2.7200000000000D+00  0.0000000000000D+00  0.0000000000000D+00
274  2.7300000000000D+00  0.0000000000000D+00  0.0000000000000D+00
275  2.7400000000000D+00  0.0000000000000D+00  0.0000000000000D+00
276  2.7500000000000D+00  0.0000000000000D+00  0.0000000000000D+00
277  2.7600000000000D+00  0.0000000000000D+00  0.0000000000000D+00
278  2.7700000000000D+00  0.0000000000000D+00  0.0000000000000D+00
279  2.7800000000000D+00  0.0000000000000D+00  0.0000000000000D+00
280  2.7900000000000D+00  0.0000000000000D+00  0.0000000000000D+00
281  2.8000000000000D+00  0.0000000000000D+00  0.0000000000000D+00
282  2.8100000000000D+00  0.0000000000000D+00  0.0000000000000D+00
283  2.8200000000000D+00  0.0000000000000D+00  0.0000000000000D+00
284  2.8300000000000D+00  0.0000000000000D+00  0.0000000000000D+00
285  2.8400000000000D+00  0.0000000000000D+00  0.0000000000000D+00
286  2.8500000000000D+00  0.0000000000000D+00  0.0000000000000D+00
287  2.8600000000000D+00  0.0000000000000D+00  0.0000000000000D+00
288  2.8700000000000D+00  0.0000000000000D+00  0.0000000000000D+00
289  2.8800000000000D+00  0.0000000000000D+00  0.0000000000000D+00
290  2.8900000000000D+00  0.0000000000000D+00  0.0000000000000D+00
291  2.9000000000000D+00  0.0000000000000D+00  0.0000000000000D+00
292  2.9100000000000D+00  0.0000000000000D+00  0.0000000000000D+00
293  2.9200000000000D+00  0.0000000000000D+00  0.0000000000000D+00
294  2.9300000000000D+00  0.0000000000000D+00  0.0000000000000D+00
295  2.9400000000000D+00  0.0000000000000D+00  0.0000000000000D+00
296  2.9500000000000D+00  0.0000000000000D+00  0.0000000000000D+00
297  2.9600000000000D+00  0.0000000000000D+00  0.0000000000000D+00
298  2.9700000000000D+00  0.0000000000000D+00  0.0000000000000D+00
299  2.9800000000000D+00  0.0000000000000D+00  0.0000000000000D+00
300  2.9900000000000D+00  0.0000000000000D+00  0.0000000000000D+00
301  3.0000000000000D+00  0.0000000000000D+00  0.0000000000000D+00
302  3.0100000000000D+00  0.0000000000000D+00  0.0000000000000D+00
303  3.0200000000000D+00  0.0000000000000D+00  0.0000000000000D+00
304  3.0300000000000D+00  0.0000000000000D+00  0.0000000000000D+00
305  3.0400000000000D+00  0.0000000000000D+00  0.0000000000000D+00
306  3.0500000000000D+00  0.0000000000000D+00  0.0000000000000D+00
307  3.0600000000000D+00  0.0000000000000D+00  0.0000000000000D+00
308  3.0700000000000D+00  0.0000000000000D+00  0.0000000000000D+00
309  3.0800000000000D+00  0.0000000000000D+00  0.0000000000000D+00
310  3.0900000000000D+00  0.0000000000000D+00  0.0000000000000D+00
311  3.1000000000000D+00  0.0000000000000D+00  0.0000000000000D+00
312  3.1100000000000D+00  0.0000000000000D+00  0.0000000000000D+00
313  3.1200000000000D+00  0.0000000000000D+00  0.0000000000000D+00
314  3.1300000000000D+00  0.0000000000000D+00  0.0000000000000D+00
315  3.1400000000000D+00  0.0000000000000D+00  0.0000000000000D+00
316  3.1500000000000D+00  0.0000000000000D+00  0.0000000000000D+00
317  3.1600000000000D+00  0.0000000000000D+00  0.0000000000000D+00
318  3.1700000000000D+00  0.0000000000000D+00  0.0000000000000D+00
319  3.1800000000000D+00  0.0000000000000D+00  0.0000000000000D+00
320  3.1900000000000D+00  0.0000000000000D+00  0.0000000000000D+00
321  3.2000000000000D+00  0.0000000000000D+00  0.0000000000000D+00
322  3.2100000000000D+00  0.0000000000000D+00  0.0000000000000D+00
323  3.2200000000000D+00  0.0000000000000D+00  0.0000000000000D+00
324  3.2300000000000D+00  0.0000000000000D+00  0.0000000000000D+00
325  3.2400000000000D+00  0.0000000000000D+00  0.0000000000000D+00
326  3.2500000000000D+00  0.0000000000000D+00  0.0000000000000D+00
327  3.2600000000000D+00  0.0000000000000D+00  0.0000000000000D+00
328  3.2700000000000D+00  0.0000000000000D+00  0.0000000000000D+00
329  3.2800000000000D+00  0.0000000000000D+00  0.0000000000000D+00
330  3.2900000000000D+00  0.0000000000000D+00  0.0000000000000D+00
331  3.3000000000000D+00  0.0000000000000D+00  0.0000000000000D+00
332  3.3100000000000D+00  0.0000000000000D+00  0.0000000000000D+00
333  3.3200000000000D+00  0.0000000000000D+00  0.0000000000000D+00
334  3.3300000000000D+00  0.0000000000000D+00  0.0000000000000D+00
335  3.3400000000000D+00  0.0000000000000D+00  0.0000000000000D+00
336  3.3500000000000D+00  0.0000000000000D+00  0.0000000000000D+00
337  3.3600000000000D+00  0.0000000000000D+00  0.0000000000000D+00
338  3.3700000000000D+00  0.0000000000000D+00  0.0000000000000D+00
339  3.3800000000000D+00  0.0000000000000D+00  0.0000000000000D+00
340  3.3900000000000D+00  0.0000000000000D+00  0.0000000000000D+00
341  3.4000000000000D+00  0.0000000000000D+00  0.0000000000000D+00
342  3.4100000000000D+00  0.0000000000000D+00  0.0000000000000D+00
343  3.4200000000000D+00  0.0000000000000D+00  0.0000000000000D+00
344  3.4300000000000D+00  0.0000000000000D+00  0.0000000000000D+00
345  3.4400000000000D+00  0.0000000000000D+00  0.0000000000000D+00
346  3.4500000000000D+00  0.0000000000000D+00  0.0000000000000D+00
347  3.4600000000000D+00  0.0000000000000D+00  0.0000000000000D+00
348  3.4700000000000D+00  0.0000000000000D+00  0.0000000000000D+00
349  3.4800000000000D+00  0.0000000000000D+00  0.0000000000000D+00
350  3.4900000000000D+00  0.0000000000000D+00  0.0000000000000D+00
351  3.5000000000000D+00  0.0000000000000D+00  0.0000000000000D+00
352  3.5100000000000D+00  0.0000000000000D+00  0.0000000000000D+00
353  3.5200000000000D+00  0.0000000000000D+00  0.0000000000000D+00
354  3.5300000000000D+00  0.0000000000000D+00  0.0000000000000D+00
355  3.5400000000000D+00  0.0000000000000D+00  0.0000000000000D+00
356  3.5500000000000D+00  0.0000000000000D+00  0.0000000000000D+00
357  3.5600000000000D+00  0.0000000000000D+00  0.0000000000000D+00
358  3.5700000000000D+00  0.0000000000000D+00  0.0000000000000D+00
359  3.5800000000000D+00  0.0000000000000D+00  0.0000000000000D+00
360  3.5900000000000D+00  0.0000000000000D+00  0.0000000000000D+00
361  3.6000000000000D+00  0.0000000000000D+00  0.0000000000000D+00
362  3.6100000000000D+00  0.0000000000000D+00  0.0000000000000D+00
363  3.6200000000000D+00  0.0000000000000D+00  0.0000000000000D+00
364  3.6300000000000D+00  0.0000000000000D+00  0.0000000000000D+00
365  3.6400000000000D+00  0.0000000000000D+00  0.0000000000000D+00
366  3.6500000000000D+00  0.0000000000000D+00  0.0000000000000D+00
367  3.6600000000000D+00  0.0000000000000D+00  0.0000000000000D+00
368  3.6700000000000D+00  0.0000000000000D+00  0.0000000000000D+00
369  3.6800000000000D+00  0.0000000000000D+00  0.0000000000000D+00
370  3.6900000000000D+00  0.0000000000000D+00  0.0000000000000D+00
371  3.7000000000000D+00  0.0000000000000D+00  0.0000000000000D+00
372  3.7100000000000D+00  0.0000000000000D+00  0.0000000000000D+00
373  3.7200000000000D+00  0.0000000000000D+00  0.0000000000000D+00
374  3.7300000000000D+00  0.0000000000000D+00  0.0000000000000D+00
375  3.7400000000000D+00  0.0000000000000D+00  0.0000000000000D+00
376  3.7500000000000D+00  0.0000000000000D+00  0.0000000000000D+00
377  3.7600000000000D+00  0.0000000000000D+00  0.0000000000000D+00
378  3.7700000000000D+00  0.0000000000000D+00  0.0000000000000D+00
379  3.7800000000000D+00  0.0000000000000D+00  0.0000000000000D+00
380  3.7900000000000D+00  0.0000000000000D+00  0.0000000000000D+00
381  3.8000000000000D+00  0.0000000000000D+00  0.0000000000000D+00
382  3.8100000000000D+00  0.0000000000000D+00  0.0000000000000D+00
383  3.8200000000000D+00  0.0000000000000D+00  0.0000000000000D+00
384  3.8300000000000D+00  0.0000000000000D+00  0.0000000000000D+00
385  3.8400000000000D+00  0.0000000000000D+00  0.0000000000000D+00
386  3.8500000000000D+00  0.0000000000000D+00  0.0000000000000D+00
387  3.8600000000000D+00  0.0000000000000D+00  0.0000000000000D+00
388  3.8700000000000D+00  0.0000000000000D+00  0.0000000000000D+00
389  3.8800000000000D+00  0.0000000000000D+00  0.0000000000000D+00
390  3.8900000000000D+00  0.0000000000000D+00  0.0000000000000D+00
391  3.9000000000000D+00  0.0000000000000D+00  0.0000000000000D+00
392  3.9100000000000D+00  0.0000000000000D+00  0.0000000000000D+00
393  3.9200000000000D+00  0.0000000000000D+00  0.0000000000000D+00
394  3.9300000000000D+00  0.0000000000000D+00  0.0000000000000D+00
395  3.9400000000000D+00  0.0000000000000D+00  0.0000000000000D+00
396  3.9500000000000D+00  0.0000000000000D+00  0.0000000000000D+00
397  3.9600000000000D+00  0.0000000000000D+00  0.0000000000000D+00
398  3.9700000000000D+00  0.0000000000000D+00  0.0000000000000D+00
399  3.9800000000000D+00  0.0000000000000D+00  0.0000000000000D+00
400  3.9900000000000D+00  0.0000000000000D+00  0.0000000000000D+00
401  4.0000000000000D+00  0.0000000000000D+00  0.0000000000000D+00
402  4.0100000000000D+00  0.0000000000000D+00  0.0000000000000D+00
403  4.0200000000000D+00  0.0000000000000D+00  0.0000000000000D+00
404  4.0300000000000D+00  0.0000000000000D+00  0.0000000000000D+00
405  4.0400000000000D+00  0.0000000000000D+00  0.0000000000000D+00
406  4.0500000000000D+00  0.0000000000000D+00  0.0000000000000D+00
407  4.0600000000000D+00  0.0000000000000D+00  0.0000000000000D+00
408  4.0700000000000D+00  0.0000000000000D+00  0.0000000000000D+00
409  4.0800000000000D+00  0.0000000000000D+00  0.0000000000000D+00
410  4.0900000000000D+00  0.0000000000000D+00  0.0000000000000D+00
411  4.1000000000000D+00  0.0000000000000D+00  0.0000000000000D+00
412  4.1100000000000D+00  0.0000000000000D+00  0.0000000000000D+00
413  4.1200000000000D+00  0.0000000000000D+00  0.0000000000000D+00
414  4.1300000000000D+00  0.0000000000000D+00  0.0000000000000D+00
415  4.1400000000000D+00  0.0000000000000D+00  0.0000000000000D+00
416  4.1500000000000D+00  0.0000000000000D+00  0.0000000000000D+00
417  4.1600000000000D+00  0.0000000000000D+00  0.0000000000000D+00
418  4.1700000000000D+00  0.0000000000000D+00  0.0000000000000D+00
419  4.1800000000000D+00  0.0000000000000D+00  0.0000000000000D+00
420  4.1900000000000D+00  0.0000000000000D+00  0.0000000000000D+00
421  4.2000000000000D+00  0.0000000000000D+00  0.0000000000000D+00
422  4.2100000000000D+00  0.0000000000000D+00  0.0000000000000D+00
423  4.2200000000000D+00  0.0000000000000D+00  0.0000000000000D+00
424  4.2300000000000D+00  0.0000000000000D+00  0.0000000000000D+00
425  4.2400000000000D+00  0.0000000000000D+00  0.0000000000000D+00
426  4.2500000000000D+00  0.0000000000000D+00  0.0000000000000D+00
427  4.2600000000000D+00  0.0000000000000D+00  0.0000000000000D+00
428  4.2700000000000D+00  0.0000000000000D+00  0.0000000000000D+00
429  4.2800000000000D+00  0.0000000000000D+00  0.0000000000000D+00
430  4.2900000000000D+00  0.0000000000000D+00  0.0000000000000D+00
431  4.3000000000000D+00  0.0000000000000D+00  0.0000000000000D+00
432  4.3100000000000D+00  0.0000000000000D+00  0.0000000000000D+00
433  4.3200000000000D+00  0.0000000000000D+00  0.0000000000000D+00
434  4.3300000000000D+00  0.0000000000000D+00  0.0000000000000D+00
435  4.3400000000000D+00  0.0000000000000D+00  0.0000000000000D+00
436  4.3500000000000D+00  0.0000000000000D+00  0.0000000000000D+00
437  4.3600000000000D+00  0.0000000000000D+00  0.0000000000000D+00
438  4.3700000000000D+00  0.0000000000000D+00  0.0000000000000D+00
439  4.3800000000000D+00  0.0000000000000D+00  0.0000000000000D+00
440  4.3900000000000D+00  0.0000000000000D+00  0.0000000000000D+00
441  4.4000000000000D+00  0.0000000000000D+00  0.0000000000000D+00
442  4.4100000000000D+00  0.0000000000000D+00  0.0000000000000D+00
443  4.4200000000000D+00  0.0000000000000D+00  0.0000000000000D+00
444  4.4300000000000D+00  0.0000000000000D+00  0.0000000000000D+00