Cs    ONCVPSP  r_core=  2.30  1.86  2.02  2.27
55.0000      9.0000      161019    zatom,zion,pspd
8 -116133   3     4   600     0    pspcod,pspxc,lmax,lloc,mmax,r2well
5.99000000  5.00000000  0.00000000    rchrg fchrg qchrg
2     2     2     2     0    nproj
1                 extension_switch
0                         6.2513444525463D+00  7.2222817923391D-01
1  0.0000000000000D+00  3.2266966876193D-12 -7.4831148222376D-12
2  1.0000000000000D-02  2.3994280169960D-02 -2.9963464975290D-03
3  2.0000000000000D-02  4.7991540602764D-02 -6.0155245943579D-03
4  3.0000000000000D-02  7.1994697613634D-02 -9.0802187650210D-03
5  4.0000000000000D-02  9.6006539875090D-02 -1.2212819815165D-02
6  5.0000000000000D-02  1.2002966522617D-01 -1.5435279496827D-02
7  6.0000000000000D-02  1.4406641823604D-01 -1.8768966858112D-02
8  7.0000000000000D-02  1.6811882876969D-01 -2.2234526896614D-02
9  8.0000000000000D-02  1.9218855180019D-01 -2.5851742078452D-02
10  9.0000000000000D-02  2.1627680870782D-01 -2.9639397275447D-02
11  1.0000000000000D-01  2.4038433030181D-01 -3.3615148661820D-02
12  1.1000000000000D-01  2.6451130179470D-01 -3.7795397098845D-02
13  1.2000000000000D-01  2.8865730995298D-01 -4.2195166521263D-02
14  1.3000000000000D-01  3.1282129264067D-01 -4.6827987822739D-02
15  1.4000000000000D-01  3.3700149096478D-01 -5.1705788719707D-02
16  1.5000000000000D-01  3.6119540422292D-01 -5.6838790053146D-02
17  1.6000000000000D-01  3.8539974784444D-01 -6.2235408966567D-02
18  1.7000000000000D-01  4.0961041450637D-01 -6.7902169375684D-02
19  1.8000000000000D-01  4.3382243859534D-01 -7.3843620121030D-02
20  1.9000000000000D-01  4.5802996417549D-01 -8.0062261169034D-02
21  2.0000000000000D-01  4.8222621661067D-01 -8.6558478200118D-02
22  2.1000000000000D-01  5.0640347797749D-01 -9.3330485894158D-02
23  2.2000000000000D-01  5.3055306639281D-01 -1.0037428019416D-01
24  2.3000000000000D-01  5.5466531936660D-01 -1.0768359979855D-01
25  2.4000000000000D-01  5.7872958127716D-01 -1.1524989710097D-01
26  2.5000000000000D-01  6.0273419505237D-01 -1.2306231876372D-01
27  2.6000000000000D-01  6.2666649812603D-01 -1.3110769607829D-01
28  2.7000000000000D-01  6.5051282272406D-01 -1.3937054523166D-01
29  2.8000000000000D-01  6.7425850052061D-01 -1.4783307756310D-01
30  2.9000000000000D-01  6.9788787168898D-01 -1.5647521986031D-01
31  3.0000000000000D-01  7.2138429835745D-01 -1.6527464470881D-01
32  3.1000000000000D-01  7.4473018246452D-01 -1.7420681087191D-01
33  3.2000000000000D-01  7.6790698799302D-01 -1.8324501364290D-01
34  3.3000000000000D-01  7.9089526754697D-01 -1.9236044507449D-01
35  3.4000000000000D-01  8.1367469322005D-01 -2.0152226395451D-01
36  3.5000000000000D-01  8.3622409168898D-01 -2.1069767536081D-01
37  3.6000000000000D-01  8.5852148345005D-01 -2.1985201959203D-01
38  3.7000000000000D-01  8.8054412610230D-01 -2.2894887023595D-01
39  3.8000000000000D-01  9.0226856156580D-01 -2.3795014110180D-01
40  3.9000000000000D-01  9.2367066710906D-01 -2.4681620170852D-01
41  4.0000000000000D-01  9.4472571004569D-01 -2.5550600098730D-01
42  4.1000000000000D-01  9.6540840594622D-01 -2.6397719882415D-01
43  4.2000000000000D-01  9.8569298019781D-01 -2.7218630503580D-01
44  4.3000000000000D-01  1.0055532327318D+00 -2.8008882534224D-01
45  4.4000000000000D-01  1.0249626057263D+00 -2.8763941386872D-01
46  4.5000000000000D-01  1.0438942540790D+00 -2.9479203168269D-01
47  4.6000000000000D-01  1.0623211184349D+00 -3.0150011084348D-01
48  4.7000000000000D-01  1.0802160005423D+00 -3.0771672341778D-01
49  4.8000000000000D-01  1.0975516407000D+00 -3.1339475489002D-01
50  4.9000000000000D-01  1.1143007970506D+00 -3.1848708137488D-01
51  5.0000000000000D-01  1.1304363264653D+00 -3.2294675001912D-01
52  5.1000000000000D-01  1.1459312667589D+00 -3.2672716196165D-01
53  5.2000000000000D-01  1.1607589199641D+00 -3.2978225720469D-01
54  5.3000000000000D-01  1.1748929363932D+00 -3.3206670073486D-01
55  5.4000000000000D-01  1.1883073992042D+00 -3.3353606922095D-01
56  5.5000000000000D-01  1.2009769091884D+00 -3.3414703760607D-01
57  5.6000000000000D-01  1.2128766694920D+00 -3.3385756490365D-01
58  5.7000000000000D-01  1.2239825699803D+00 -3.3262707850299D-01
59  5.8000000000000D-01  1.2342712709544D+00 -3.3041665628655D-01
60  5.9000000000000D-01  1.2437202859277D+00 -3.2718920586168D-01
61  6.0000000000000D-01  1.2523080631706D+00 -3.2290964021193D-01
62  6.1000000000000D-01  1.2600140657345D+00 -3.1754504907784D-01
63  6.2000000000000D-01  1.2668188496675D+00 -3.1106486538478D-01
64  6.3000000000000D-01  1.2727041401369D+00 -3.0344102604548D-01
65  6.4000000000000D-01  1.2776529051825D+00 -2.9464812647760D-01
66  6.5000000000000D-01  1.2816494268231D+00 -2.8466356819146D-01
67  6.6000000000000D-01  1.2846793692537D+00 -2.7346769882128D-01
68  6.7000000000000D-01  1.2867298438706D+00 -2.6104394399304D-01
69  6.8000000000000D-01  1.2877894708753D+00 -2.4737893044458D-01
70  6.9000000000000D-01  1.2878484372159D+00 -2.3246259983907D-01
71  7.0000000000000D-01  1.2868985506341D+00 -2.1628831273967D-01
72  7.1000000000000D-01  1.2849332895996D+00 -1.9885294224325D-01
73  7.2000000000000D-01  1.2819478489222D+00 -1.8015695680247D-01
74  7.3000000000000D-01  1.2779391808492D+00 -1.6020449179973D-01
75  7.4000000000000D-01  1.2729060314659D+00 -1.3900340947209D-01
76  7.5000000000000D-01  1.2668489722325D+00 -1.1656534682408D-01
77  7.6000000000000D-01  1.2597704265077D+00 -9.2905751204930D-02
78  7.7000000000000D-01  1.2516746909213D+00 -6.8043903268017D-02
79  7.8000000000000D-01  1.2425679514790D+00 -4.2002927072530D-02
80  7.9000000000000D-01  1.2324582942957D+00 -1.4809787132222D-02
81  8.0000000000000D-01  1.2213557108732D+00  1.3504727739319D-02
82  8.1000000000000D-01  1.2092720978561D+00  4.2906033890623D-02
83  8.2000000000000D-01  1.1962212512163D+00  7.3355795658196D-02
84  8.3000000000000D-01  1.1822188548375D+00  1.0481198156485D-01
85  8.4000000000000D-01  1.1672824634869D+00  1.3722893385043D-01
86  8.5000000000000D-01  1.1514314801844D+00  1.7055745124615D-01
87  8.6000000000000D-01  1.1346871279934D+00  2.0474488485415D-01
88  8.7000000000000D-01  1.1170724162816D+00  2.3973524694511D-01
89  8.8000000000000D-01  1.0986121015159D+00  2.7546933243739D-01
90  8.9000000000000D-01  1.0793326426760D+00  3.1188485277262D-01
91  9.0000000000000D-01  1.0592621513898D+00  3.4891658185469D-01
92  9.1000000000000D-01  1.0384303369116D+00  3.8649651367126D-01
93  9.2000000000000D-01  1.0168684460845D+00  4.2455403117103D-01
94  9.3000000000000D-01  9.9460919844298D-01  4.6301608592419D-01
95  9.4000000000000D-01  9.7168671663308D-01  5.0180738804966D-01
96  9.5000000000000D-01  9.4813645234060D-01  5.4085060585036D-01
97  9.6000000000000D-01  9.2399510793734D-01  5.8006657455623D-01
98  9.7000000000000D-01  8.9930055406894D-01  6.1937451353708D-01
99  9.8000000000000D-01  8.7409174342414D-01  6.5869225130861D-01
100  9.9000000000000D-01  8.4840862093899D-01  6.9793645762158D-01
101  1.0000000000000D+00  8.2229203070294D-01  7.3702288189101D-01
102  1.0100000000000D+00  7.9578361984649D-01  7.7586659719266D-01
103  1.0200000000000D+00  7.6892573970156D-01  8.1438224902630D-01
104  1.0300000000000D+00  7.4176134453636D-01  8.5248430802107D-01
105  1.0400000000000D+00  7.1433388817580D-01  8.9008732573732D-01
106  1.0500000000000D+00  6.8668721882772D-01  9.2710619269887D-01
107  1.0600000000000D+00  6.5886547244188D-01  9.6345639777593D-01
108  1.0700000000000D+00  6.3091296493518D-01  9.9905428802570D-01
109  1.0800000000000D+00  6.0287408362188D-01  1.0338173280888D+00
110  1.0900000000000D+00  5.7479317819085D-01  1.0676643582342D+00
111  1.1000000000000D+00  5.4671445157524D-01  1.1005158501425D+00
112  1.1100000000000D+00  5.1868185106110D-01  1.1322941595188D+00
113  1.1200000000000D+00  4.9073895998134D-01  1.1629237746312D+00
114  1.1300000000000D+00  4.6292889034082D-01  1.1923315598792D+00
115  1.1400000000000D+00  4.3529417671599D-01  1.2204469935057D+00
116  1.1500000000000D+00  4.0787667176878D-01  1.2472023985836D+00
117  1.1600000000000D+00  3.8071744370932D-01  1.2725331664266D+00
118  1.1700000000000D+00  3.5385667603667D-01  1.2963779715922D+00
119  1.1800000000000D+00  3.2733356987985D-01  1.3186789776718D+00
120  1.1900000000000D+00  3.0118624925195D-01  1.3393820330908D+00
121  1.2000000000000D+00  2.7545166951957D-01  1.3584368561779D+00
122  1.2100000000000D+00  2.5016552938443D-01  1.3757972087812D+00
123  1.2200000000000D+00  2.2536218665581D-01  1.3914210577627D+00
124  1.2300000000000D+00  2.0107457808182D-01  1.4052707237417D+00
125  1.2400000000000D+00  1.7733414349667D-01  1.4173130164830D+00
126  1.2500000000000D+00  1.5417075452474D-01  1.4275193563841D+00
127  1.2600000000000D+00  1.3161264806229D-01  1.4358658815715D+00
128  1.2700000000000D+00  1.0968636474816D-01  1.4423335401433D+00
129  1.2800000000000D+00  8.8416692617876D-02  1.4469081671512D+00
130  1.2900000000000D+00  6.7826616106991D-02  1.4495805459949D+00
131  1.3000000000000D+00  4.7937270564517D-02  1.4503464539182D+00
132  1.3100000000000D+00  2.8767902416315D-02  1.4492066913591D+00
133  1.3200000000000D+00  1.0335835083535D-02  1.4461670950042D+00
134  1.3300000000000D+00 -7.3435592343269D-03  1.4412385343887D+00
135  1.3400000000000D+00 -2.4256881835746D-02  1.4344368919766D+00
136  1.3500000000000D+00 -4.0392723810550D-02  1.4257830267541D+00
137  1.3600000000000D+00 -5.5741676288612D-02  1.4153027213137D+00
138  1.3700000000000D+00 -7.0296334646778D-02  1.4030266125897D+00
139  1.3800000000000D+00 -8.4051296678797D-02  1.3889901064095D+00
140  1.3900000000000D+00 -9.7003154729547D-02  1.3732332760189D+00
141  1.4000000000000D+00 -1.0915048187181D-01  1.3558007449500D+00
142  1.4100000000000D+00 -1.2049381216085D-01  1.3367415544833D+00
143  1.4200000000000D+00 -1.3103561506018D-01  1.3161090161166D+00
144  1.4300000000000D+00 -1.4078026415703D-01  1.2939605495180D+00
145  1.4400000000000D+00 -1.4973400024951D-01  1.2703575063448D+00
146  1.4500000000000D+00 -1.5790488899267D-01  1.2453649805925D+00
147  1.4600000000000D+00 -1.6530277321720D-01  1.2190516059371D+00
148  1.4700000000000D+00 -1.7193922011712D-01  1.1914893407617D+00
149  1.4800000000000D+00 -1.7782746349418D-01  1.1627532415218D+00
150  1.4900000000000D+00 -1.8298234123745D-01  1.1329212250940D+00
151  1.5000000000000D+00 -1.8742022829928D-01  1.1020738209490D+00
152  1.5100000000000D+00 -1.9115896534039D-01  1.0702939137781D+00
153  1.5200000000000D+00 -1.9421778334112D-01  1.0376664775012D+00
154  1.5300000000000D+00 -1.9661722438604D-01  1.0042783013676D+00
155  1.5400000000000D+00 -1.9837905891229D-01  9.7021770905859D-01
156  1.5500000000000D+00 -1.9952619967699D-01  9.3557427161019D-01
157  1.5600000000000D+00 -2.0008261272348D-01  9.0043851504263D-01
158  1.5700000000000D+00 -2.0007322563471D-01  8.6490162357055D-01
159  1.5800000000000D+00 -1.9952383335188D-01  8.2905513928828D-01
160  1.5900000000000D+00 -1.9846100185938D-01  7.9299065919664D-01
161  1.6000000000000D+00 -1.9691197002341D-01  7.5679953050474D-01
162  1.6100000000000D+00 -1.9490454987752D-01  7.2057254500994D-01
163  1.6200000000000D+00 -1.9246702565960D-01  6.8439963354051D-01
164  1.6300000000000D+00 -1.8962805187272D-01  6.4836956117785D-01
165  1.6400000000000D+00 -1.8641655068863D-01  6.1256962426756D-01
166  1.6500000000000D+00 -1.8286160894243D-01  5.7708534985506D-01
167  1.6600000000000D+00 -1.7899237504320D-01  5.4200019854805D-01
168  1.6700000000000D+00 -1.7483795602359D-01  5.0739527135644D-01
169  1.6800000000000D+00 -1.7042731505251D-01  4.7334902148806D-01
170  1.6900000000000D+00 -1.6578916960377D-01  4.3993697154856D-01
171  1.7000000000000D+00 -1.6095189060265D-01  4.0723143709971D-01
172  1.7100000000000D+00 -1.5594340270305D-01  3.7530125688861D-01
173  1.7200000000000D+00 -1.5079108601987D-01  3.4421153069801D-01
174  1.7300000000000D+00 -1.4552167941349D-01  3.1402336494260D-01
175  1.7400000000000D+00 -1.4016118566540D-01  2.8479362699917D-01
176  1.7500000000000D+00 -1.3473477856383D-01  2.5657470813734D-01
177  1.7600000000000D+00 -1.2926671227218D-01  2.2941429613955D-01
178  1.7700000000000D+00 -1.2378023289325D-01  2.0335515713273D-01
179  1.7800000000000D+00 -1.1829749266062D-01  1.7843492789968D-01
180  1.7900000000000D+00 -1.1283946653606D-01  1.5468591776374D-01
181  1.8000000000000D+00 -1.0742587038275D-01  1.3213491509775D-01
182  1.8100000000000D+00 -1.0207508910657D-01  1.1080303934030D-01
183  1.8200000000000D+00 -9.6804082788042D-02  9.0705485254571D-02
184  1.8300000000000D+00 -9.1628359151689D-02  7.1851573245688D-02
185  1.8400000000000D+00 -8.6561875730355D-02  5.4244479206112D-02
186  1.8500000000000D+00 -8.1616891528019D-02  3.7880693012374D-02
187  1.8600000000000D+00 -7.6804011494121D-02  2.2750412190765D-02
188  1.8700000000000D+00 -7.2132328364783D-02  8.8384222257439D-03
189  1.8800000000000D+00 -6.7609536013189D-02 -3.8752211282864D-03
190  1.8900000000000D+00 -6.3242098498951D-02 -1.5414354351496D-02
191  1.9000000000000D+00 -5.9035481029580D-02 -2.5805552706503D-02
192  1.9100000000000D+00 -5.4994083363484D-02 -3.5078449681834D-02
193  1.9200000000000D+00 -5.1121240780971D-02 -4.3265774206355D-02
194  1.9300000000000D+00 -4.7419302529902D-02 -5.0402968364396D-02
195  1.9400000000000D+00 -4.3889663210323D-02 -5.6528061604420D-02
196  1.9500000000000D+00 -4.0532806053937D-02 -6.1681490955515D-02
197  1.9600000000000D+00 -3.7348352359697D-02 -6.5905895868451D-02
198  1.9700000000000D+00 -3.4335110279952D-02 -6.9245922093405D-02
199  1.9800000000000D+00 -3.1491126718215D-02 -7.1748015415050D-02
200  1.9900000000000D+00 -2.8813741113340D-02 -7.3460210602257D-02
201  2.0000000000000D+00 -2.6299641114150D-02 -7.4431915583984D-02
202  2.0100000000000D+00 -2.3944919696065D-02 -7.4713692275560D-02
203  2.0200000000000D+00 -2.1745133589368D-02 -7.4357034495552D-02
204  2.0300000000000D+00 -1.9695362736203D-02 -7.3414143878856D-02
205  2.0400000000000D+00 -1.7790270497431D-02 -7.1937704677742D-02
206  2.0500000000000D+00 -1.6024164385638D-02 -6.9980658194478D-02
207  2.0600000000000D+00 -1.4391057068436D-02 -6.7595977634890D-02
208  2.0700000000000D+00 -1.2884727337134D-02 -6.4836444400491D-02
209  2.0800000000000D+00 -1.1498780847884D-02 -6.1754426415007D-02
210  2.0900000000000D+00 -1.0226710363777D-02 -5.8401659360630D-02
211  2.1000000000000D+00 -9.0619551666815D-03 -5.4829031899864D-02
212  2.1100000000000D+00 -7.9979596478085D-03 -5.1086374794765D-02
213  2.1200000000000D+00 -7.0282304069430D-03 -4.7222256196340D-02
214  2.1300000000000D+00 -6.1463919991565D-03 -4.3283782563647D-02
215  2.1400000000000D+00 -5.3462409934463D-03 -3.9316406295063D-02
216  2.1500000000000D+00 -4.6217980058679D-03 -3.5363741105892D-02
217  2.1600000000000D+00 -3.9673578693504D-03 -3.1467384674273D-02
218  2.1700000000000D+00 -3.3775371048555D-03 -2.7666751301163D-02
219  2.1800000000000D+00 -2.8473190296671D-03 -2.3998913407755D-02
220  2.1900000000000D+00 -2.3720963056218D-03 -2.0498452498568D-02
221  2.2000000000000D+00 -1.9477100991832D-03 -1.7197322358761D-02
222  2.2100000000000D+00 -1.5704866047561D-03 -1.4124721998243D-02
223  2.2200000000000D+00 -1.2372723605854D-03 -1.1307000913495D-02
224  2.2300000000000D+00 -9.4572437508029D-04 -8.7700820437519D-03
225  2.2400000000000D+00 -6.9323715152976D-04 -6.5286955452849D-03
226  2.2500000000000D+00 -4.7797388403750D-04 -4.5946350466368D-03
227  2.2600000000000D+00 -2.9954463065046D-04 -2.9863171726036D-03
228  2.2700000000000D+00 -1.5981431837708D-04 -1.7401940865303D-03
229  2.2800000000000D+00 -5.9602817133843D-05 -8.7838599723154D-04
230  2.2900000000000D+00  2.4510588484282D-06 -3.5727788165369D-04
231  2.3000000000000D+00  3.0554770478091D-05 -9.3650702169276D-05
232  2.3100000000000D+00  2.9571261634084D-05  8.6816884823430D-06
233  2.3200000000000D+00  1.4263840336098D-05  1.8819063135866D-05
234  2.3300000000000D+00 -1.4240846945132D-06 -2.4330046423162D-06
235  2.3400000000000D+00 -5.7473389056021D-06 -1.1700877718047D-05
236  2.3500000000000D+00 -3.2557126879645D-06 -7.3130221337055D-06
237  2.3600000000000D+00  5.4784732251305D-07  7.5130342383474D-07
238  2.3700000000000D+00  1.1808953758115D-06  1.7775854085650D-06
239  2.3800000000000D+00  5.3632058168598D-07  8.6427347857714D-07
240  2.3900000000000D+00 -5.5106026254304D-08  1.4113728799454D-07
241  2.4000000000000D+00 -8.7665225428380D-08  2.2452775148935D-07
242  2.4100000000000D+00 -2.9484319293426D-08  7.5515096012106D-08
243  2.4200000000000D+00  0.0000000000000D+00  0.0000000000000D+00
244  2.4300000000000D+00  0.0000000000000D+00  0.0000000000000D+00
245  2.4400000000000D+00  0.0000000000000D+00  0.0000000000000D+00
246  2.4500000000000D+00  0.0000000000000D+00  0.0000000000000D+00
247  2.4600000000000D+00  0.0000000000000D+00  0.0000000000000D+00
248  2.4700000000000D+00  0.0000000000000D+00  0.0000000000000D+00
249  2.4800000000000D+00  0.0000000000000D+00  0.0000000000000D+00
250  2.4900000000000D+00  0.0000000000000D+00  0.0000000000000D+00
251  2.5000000000000D+00  0.0000000000000D+00  0.0000000000000D+00
252  2.5100000000000D+00  0.0000000000000D+00  0.0000000000000D+00
253  2.5200000000000D+00  0.0000000000000D+00  0.0000000000000D+00
254  2.5300000000000D+00  0.0000000000000D+00  0.0000000000000D+00
255  2.5400000000000D+00  0.0000000000000D+00  0.0000000000000D+00
256  2.5500000000000D+00  0.0000000000000D+00  0.0000000000000D+00
257  2.5600000000000D+00  0.0000000000000D+00  0.0000000000000D+00
258  2.5700000000000D+00  0.0000000000000D+00  0.0000000000000D+00
259  2.5800000000000D+00  0.0000000000000D+00  0.0000000000000D+00
260  2.5900000000000D+00  0.0000000000000D+00  0.0000000000000D+00
261  2.6000000000000D+00  0.0000000000000D+00  0.0000000000000D+00
262  2.6100000000000D+00  0.0000000000000D+00  0.0000000000000D+00
263  2.6200000000000D+00  0.0000000000000D+00  0.0000000000000D+00
264  2.6300000000000D+00  0.0000000000000D+00  0.0000000000000D+00
265  2.6400000000000D+00  0.0000000000000D+00  0.0000000000000D+00
266  2.6500000000000D+00  0.0000000000000D+00  0.0000000000000D+00
267  2.6600000000000D+00  0.0000000000000D+00  0.0000000000000D+00
268  2.6700000000000D+00  0.0000000000000D+00  0.0000000000000D+00
269  2.6800000000000D+00  0.0000000000000D+00  0.0000000000000D+00
270  2.6900000000000D+00  0.0000000000000D+00  0.0000000000000D+00
271  2.7000000000000D+00  0.0000000000000D+00  0.0000000000000D+00
272  2.7100000000000D+00  0.0000000000000D+00  0.0000000000000D+00
273  2.7200000000000D+00  0.0000000000000D+00  0.0000000000000D+00
274  2.7300000000000D+00  0.0000000000000D+00  0.0000000000000D+00
275  2.7400000000000D+00  0.0000000000000D+00  0.0000000000000D+00
276  2.7500000000000D+00  0.0000000000000D+00  0.0000000000000D+00
277  2.7600000000000D+00  0.0000000000000D+00  0.0000000000000D+00
278  2.7700000000000D+00  0.0000000000000D+00  0.0000000000000D+00
279  2.7800000000000D+00  0.0000000000000D+00  0.0000000000000D+00
280  2.7900000000000D+00  0.0000000000000D+00  0.0000000000000D+00
281  2.8000000000000D+00  0.0000000000000D+00  0.0000000000000D+00
282  2.8100000000000D+00  0.0000000000000D+00  0.0000000000000D+00
283  2.8200000000000D+00  0.0000000000000D+00  0.0000000000000D+00
284  2.8300000000000D+00  0.0000000000000D+00  0.0000000000000D+00
285  2.8400000000000D+00  0.0000000000000D+00  0.0000000000000D+00
286  2.8500000000000D+00  0.0000000000000D+00  0.0000000000000D+00
287  2.8600000000000D+00  0.0000000000000D+00  0.0000000000000D+00
288  2.8700000000000D+00  0.0000000000000D+00  0.0000000000000D+00
289  2.8800000000000D+00  0.0000000000000D+00  0.0000000000000D+00
290  2.8900000000000D+00  0.0000000000000D+00  0.0000000000000D+00
291  2.9000000000000D+00  0.0000000000000D+00  0.0000000000000D+00
292  2.9100000000000D+00  0.0000000000000D+00  0.0000000000000D+00
293  2.9200000000000D+00  0.0000000000000D+00  0.0000000000000D+00
294  2.9300000000000D+00  0.0000000000000D+00  0.0000000000000D+00
295  2.9400000000000D+00  0.0000000000000D+00  0.0000000000000D+00
296  2.9500000000000D+00  0.0000000000000D+00  0.0000000000000D+00
297  2.9600000000000D+00  0.0000000000000D+00  0.0000000000000D+00
298  2.9700000000000D+00  0.0000000000000D+00  0.0000000000000D+00
299  2.9800000000000D+00  0.0000000000000D+00  0.0000000000000D+00
300  2.9900000000000D+00  0.0000000000000D+00  0.0000000000000D+00
301  3.0000000000000D+00  0.0000000000000D+00  0.0000000000000D+00
302  3.0100000000000D+00  0.0000000000000D+00  0.0000000000000D+00
303  3.0200000000000D+00  0.0000000000000D+00  0.0000000000000D+00
304  3.0300000000000D+00  0.0000000000000D+00  0.0000000000000D+00
305  3.0400000000000D+00  0.0000000000000D+00  0.0000000000000D+00
306  3.0500000000000D+00  0.0000000000000D+00  0.0000000000000D+00
307  3.0600000000000D+00  0.0000000000000D+00  0.0000000000000D+00
308  3.0700000000000D+00  0.0000000000000D+00  0.0000000000000D+00
309  3.0800000000000D+00  0.0000000000000D+00  0.0000000000000D+00
310  3.0900000000000D+00  0.0000000000000D+00  0.0000000000000D+00
311  3.1000000000000D+00  0.0000000000000D+00  0.0000000000000D+00
312  3.1100000000000D+00  0.0000000000000D+00  0.0000000000000D+00
313  3.1200000000000D+00  0.0000000000000D+00  0.0000000000000D+00
314  3.1300000000000D+00  0.0000000000000D+00  0.0000000000000D+00
315  3.1400000000000D+00  0.0000000000000D+00  0.0000000000000D+00
316  3.1500000000000D+00  0.0000000000000D+00  0.0000000000000D+00
317  3.1600000000000D+00  0.0000000000000D+00  0.0000000000000D+00
318  3.1700000000000D+00  0.0000000000000D+00  0.0000000000000D+00
319  3.1800000000000D+00  0.0000000000000D+00  0.0000000000000D+00
320  3.1900000000000D+00  0.0000000000000D+00  0.0000000000000D+00
321  3.2000000000000D+00  0.0000000000000D+00  0.0000000000000D+00
322  3.2100000000000D+00  0.0000000000000D+00  0.0000000000000D+00
323  3.2200000000000D+00  0.0000000000000D+00  0.0000000000000D+00
324  3.2300000000000D+00  0.0000000000000D+00  0.0000000000000D+00
325  3.2400000000000D+00  0.0000000000000D+00  0.0000000000000D+00
326  3.2500000000000D+00  0.0000000000000D+00  0.0000000000000D+00
327  3.2600000000000D+00  0.0000000000000D+00  0.0000000000000D+00
328  3.2700000000000D+00  0.0000000000000D+00  0.0000000000000D+00
329  3.2800000000000D+00  0.0000000000000D+00  0.0000000000000D+00
330  3.2900000000000D+00  0.0000000000000D+00  0.0000000000000D+00
331  3.3000000000000D+00  0.0000000000000D+00  0.0000000000000D+00
332  3.3100000000000D+00  0.0000000000000D+00  0.0000000000000D+00
333  3.3200000000000D+00  0.0000000000000D+00  0.0000000000000D+00
334  3.3300000000000D+00  0.0000000000000D+00  0.0000000000000D+00
335  3.3400000000000D+00  0.0000000000000D+00  0.0000000000000D+00
336  3.3500000000000D+00  0.0000000000000D+00  0.0000000000000D+00
337  3.3600000000000D+00  0.0000000000000D+00  0.0000000000000D+00
338  3.3700000000000D+00  0.0000000000000D+00  0.0000000000000D+00
339  3.3800000000000D+00  0.0000000000000D+00  0.0000000000000D+00
340  3.3900000000000D+00  0.0000000000000D+00  0.0000000000000D+00
341  3.4000000000000D+00  0.0000000000000D+00  0.0000000000000D+00
342  3.4100000000000D+00  0.0000000000000D+00  0.0000000000000D+00
343  3.4200000000000D+00  0.0000000000000D+00  0.0000000000000D+00
344  3.4300000000000D+00  0.0000000000000D+00  0.0000000000000D+00
345  3.4400000000000D+00  0.0000000000000D+00  0.0000000000000D+00
346  3.4500000000000D+00  0.0000000000000D+00  0.0000000000000D+00
347  3.4600000000000D+00  0.0000000000000D+00  0.0000000000000D+00
348  3.4700000000000D+00  0.0000000000000D+00  0.0000000000000D+00
349  3.4800000000000D+00  0.0000000000000D+00  0.0000000000000D+00
350  3.4900000000000D+00  0.0000000000000D+00  0.0000000000000D+00
351  3.5000000000000D+00  0.0000000000000D+00  0.0000000000000D+00
352  3.5100000000000D+00  0.0000000000000D+00  0.0000000000000D+00
353  3.5200000000000D+00  0.0000000000000D+00  0.0000000000000D+00
354  3.5300000000000D+00  0.0000000000000D+00  0.0000000000000D+00
355  3.5400000000000D+00  0.0000000000000D+00  0.0000000000000D+00
356  3.5500000000000D+00  0.0000000000000D+00  0.0000000000000D+00
357  3.5600000000000D+00  0.0000000000000D+00  0.0000000000000D+00
358  3.5700000000000D+00  0.0000000000000D+00  0.0000000000000D+00
359  3.5800000000000D+00  0.0000000000000D+00  0.0000000000000D+00
360  3.5900000000000D+00  0.0000000000000D+00  0.0000000000000D+00
361  3.6000000000000D+00  0.0000000000000D+00  0.0000000000000D+00
362  3.6100000000000D+00  0.0000000000000D+00  0.0000000000000D+00
363  3.6200000000000D+00  0.0000000000000D+00  0.0000000000000D+00
364  3.6300000000000D+00  0.0000000000000D+00  0.0000000000000D+00
365  3.6400000000000D+00  0.0000000000000D+00  0.0000000000000D+00
366  3.6500000000000D+00  0.0000000000000D+00  0.0000000000000D+00
367  3.6600000000000D+00  0.0000000000000D+00  0.0000000000000D+00
368  3.6700000000000D+00  0.0000000000000D+00  0.0000000000000D+00
369  3.6800000000000D+00  0.0000000000000D+00  0.0000000000000D+00
370  3.6900000000000D+00  0.0000000000000D+00  0.0000000000000D+00
371  3.7000000000000D+00  0.0000000000000D+00  0.0000000000000D+00
372  3.7100000000000D+00  0.0000000000000D+00  0.0000000000000D+00
373  3.7200000000000D+00  0.0000000000000D+00  0.0000000000000D+00
374  3.7300000000000D+00  0.0000000000000D+00  0.0000000000000D+00
375  3.7400000000000D+00  0.0000000000000D+00  0.0000000000000D+00
376  3.7500000000000D+00  0.0000000000000D+00  0.0000000000000D+00
377  3.7600000000000D+00  0.0000000000000D+00  0.0000000000000D+00
378  3.7700000000000D+00  0.0000000000000D+00  0.0000000000000D+00
379  3.7800000000000D+00  0.0000000000000D+00  0.0000000000000D+00
380  3.7900000000000D+00  0.0000000000000D+00  0.0000000000000D+00
381  3.8000000000000D+00  0.0000000000000D+00  0.0000000000000D+00
382  3.8100000000000D+00  0.0000000000000D+00  0.0000000000000D+00
383  3.8200000000000D+00  0.0000000000000D+00  0.0000000000000D+00
384  3.8300000000000D+00  0.0000000000000D+00  0.0000000000000D+00
385  3.8400000000000D+00  0.0000000000000D+00  0.0000000000000D+00
386  3.8500000000000D+00  0.0000000000000D+00  0.0000000000000D+00
387  3.8600000000000D+00  0.0000000000000D+00  0.0000000000000D+00
388  3.8700000000000D+00  0.0000000000000D+00  0.0000000000000D+00
389  3.8800000000000D+00  0.0000000000000D+00  0.0000000000000D+00
390  3.8900000000000D+00  0.0000000000000D+00  0.0000000000000D+00
391  3.9000000000000D+00  0.0000000000000D+00  0.0000000000000D+00
392  3.9100000000000D+00  0.0000000000000D+00  0.0000000000000D+00
393  3.9200000000000D+00  0.0000000000000D+00  0.0000000000000D+00
394  3.9300000000000D+00  0.0000000000000D+00  0.0000000000000D+00
395  3.9400000000000D+00  0.0000000000000D+00  0.0000000000000D+00
396  3.9500000000000D+00  0.0000000000000D+00  0.0000000000000D+00
397  3.9600000000000D+00  0.0000000000000D+00  0.0000000000000D+00
398  3.9700000000000D+00  0.0000000000000D+00  0.0000000000000D+00
399  3.9800000000000D+00  0.0000000000000D+00  0.0000000000000D+00
400  3.9900000000000D+00  0.0000000000000D+00  0.0000000000000D+00
401  4.0000000000000D+00  0.0000000000000D+00  0.0000000000000D+00
402  4.0100000000000D+00  0.0000000000000D+00  0.0000000000000D+00
403  4.0200000000000D+00  0.0000000000000D+00  0.0000000000000D+00
404  4.0300000000000D+00  0.0000000000000D+00  0.0000000000000D+00
405  4.0400000000000D+00  0.0000000000000D+00  0.0000000000000D+00
406  4.0500000000000D+00  0.0000000000000D+00  0.0000000000000D+00
407  4.0600000000000D+00  0.0000000000000D+00  0.0000000000000D+00
408  4.0700000000000D+00  0.0000000000000D+00  0.0000000000000D+00
409  4.0800000000000D+00  0.0000000000000D+00  0.0000000000000D+00
410  4.0900000000000D+00  0.0000000000000D+00  0.0000000000000D+00
411  4.1000000000000D+00  0.0000000000000D+00  0.0000000000000D+00
412  4.1100000000000D+00  0.0000000000000D+00  0.0000000000000D+00
413  4.1200000000000D+00  0.0000000000000D+00  0.0000000000000D+00
414  4.1300000000000D+00  0.0000000000000D+00  0.0000000000000D+00
415  4.1400000000000D+00  0.0000000000000D+00  0.0000000000000D+00
416  4.1500000000000D+00  0.0000000000000D+00  0.0000000000000D+00
417  4.1600000000000D+00  0.0000000000000D+00  0.0000000000000D+00
418  4.1700000000000D+00  0.0000000000000D+00  0.0000000000000D+00
419  4.1800000000000D+00  0.0000000000000D+00  0.0000000000000D+00
420  4.1900000000000D+00  0.0000000000000D+00  0.0000000000000D+00
421  4.2000000000000D+00  0.0000000000000D+00  0.0000000000000D+00
422  4.2100000000000D+00  0.0000000000000D+00  0.0000000000000D+00
423  4.2200000000000D+00  0.0000000000000D+00  0.0000000000000D+00
424  4.2300000000000D+00  0.0000000000000D+00  0.0000000000000D+00
425  4.2400000000000D+00  0.0000000000000D+00  0.0000000000000D+00
426  4.2500000000000D+00  0.0000000000000D+00  0.0000000000000D+00
427  4.2600000000000D+00  0.0000000000000D+00  0.0000000000000D+00
428  4.2700000000000D+00  0.0000000000000D+00  0.0000000000000D+00
429  4.2800000000000D+00  0.0000000000000D+00  0.0000000000000D+00
430  4.2900000000000D+00  0.0000000000000D+00  0.0000000000000D+00
431  4.3000000000000D+00  0.0000000000000D+00  0.0000000000000D+00
432  4.3100000000000D+00  0.0000000000000D+00  0.0000000000000D+00
433  4.3200000000000D+00  0.0000000000000D+00  0.0000000000000D+00
434  4.3300000000000D+00  0.0000000000000D+00  0.0000000000000D+00
435  4.3400000000000D+00  0.0000000000000D+00  0.0000000000000D+00
436  4.3500000000000D+00  0.0000000000000D+00  0.0000000000000D+00
437  4.3600000000000D+00  0.0000000000000D+00  0.0000000000000D+00
438  4.3700000000000D+00  0.0000000000000D+00  0.0000000000000D+00
439  4.3800000000000D+00  0.0000000000000D+00  0.0000000000000D+00
440  4.3900000000000D+00  0.0000000000000D+00  0.0000000000000D+00
441  4.4000000000000D+00  0.0000000000000D+00  0.0000000000000D+00
442  4.4100000000000D+00  0.0000000000000D+00  0.0000000000000D+00
443  4.4200000000000D+00  0.0000000000000D+00  0.0000000000000D+00