Rh    ONCVPSP  r_core=  1.36  1.41  1.36
45.0000     17.0000      140817    zatom,zion,pspd
8    11     2     4   601     0    pspcod,pspxc,lmax,lloc,mmax,r2well
6.00000000  0.45000000  0.00000000    rchrg fchrg qchrg
2     2     2     0     0    nproj
0                 extension_switch
0                         2.0200071760017D+01  2.0652050962428D+00
1  0.0000000000000D+00 -0.0000000000000D+00  0.0000000000000D+00
2  1.0000000000000D-02 -7.8196024579270D-02  1.3318645256498D-02
3  2.0000000000000D-02 -1.5626326627414D-01  2.6659426147231D-02
4  3.0000000000000D-02 -2.3407248085763D-01  4.0042571684472D-02
5  4.0000000000000D-02 -3.1149351260773D-01  5.3484526551949D-02
6  5.0000000000000D-02 -3.8839486639505D-01  6.6996130887379D-02
7  6.0000000000000D-02 -4.6464331278152D-01  8.0580885450582D-02
8  7.0000000000000D-02 -5.4010353648534D-01  9.4233329057667D-02
9  8.0000000000000D-02 -6.1463783802321D-01  1.0793755384421D-01
10  9.0000000000000D-02 -6.8810589766561D-01  1.2166588226725D-01
11  1.0000000000000D-01 -7.6036461005321D-01  1.3537772784304D-01
12  1.1000000000000D-01 -8.3126799692122D-01  1.4901865942620D-01
13  1.2000000000000D-01 -9.0066720437395D-01  1.6251968636815D-01
14  1.3000000000000D-01 -9.6841059006819D-01  1.7579677925832D-01
15  1.4000000000000D-01 -1.0343439044832D+00  1.8875063812943D-01
16  1.5000000000000D-01 -1.0983105692472D+00  2.0126671685719D-01
17  1.6000000000000D-01 -1.1601520541384D+00  2.1321550956398D-01
18  1.7000000000000D-01 -1.2197083531850D+00  2.2445310135539D-01
19  1.8000000000000D-01 -1.2768185586958D+00  2.3482198252911D-01
20  1.9000000000000D-01 -1.3313215312834D+00  2.4415212246712D-01
21  2.0000000000000D-01 -1.3830566609968D+00  2.5226229421546D-01
22  2.1000000000000D-01 -1.4318647169524D+00  2.5896164235865D-01
23  2.2000000000000D-01 -1.4775887757517D+00  2.6405147538283D-01
24  2.3000000000000D-01 -1.5200752243746D+00  2.6732727036125D-01
25  2.4000000000000D-01 -1.5591748253701D+00  2.6858086422685D-01
26  2.5000000000000D-01 -1.5947438409784D+00  2.6760282109479D-01
27  2.6000000000000D-01 -1.6266451928568D+00  2.6418492652642D-01
28  2.7000000000000D-01 -1.6547496647632D+00  2.5812281856243D-01
29  2.8000000000000D-01 -1.6789371134641D+00  2.4921868219396D-01
30  2.9000000000000D-01 -1.6990976931165D+00  2.3728401294235D-01
31  3.0000000000000D-01 -1.7151330706444D+00  2.2214239972854D-01
32  3.1000000000000D-01 -1.7269576197730D+00  2.0363229700100D-01
33  3.2000000000000D-01 -1.7344995738252D+00  1.8160973940074D-01
34  3.3000000000000D-01 -1.7377021425796D+00  1.5595100830156D-01
35  3.4000000000000D-01 -1.7365245563016D+00  1.2655516666349D-01
36  3.5000000000000D-01 -1.7309430158382D+00  9.3346409684661D-02
37  3.6000000000000D-01 -1.7209515958644D+00  5.6276339374549D-02
38  3.7000000000000D-01 -1.7065629972267D+00  1.5325921590957D-02
39  3.8000000000000D-01 -1.6878091910431D+00 -2.9492780069058D-02
40  3.9000000000000D-01 -1.6647419827951D+00 -7.8135022597609D-02
41  4.0000000000000D-01 -1.6374333727225D+00 -1.3052225197284D-01
42  4.1000000000000D-01 -1.6059758065021D+00 -1.8654119817425D-01
43  4.2000000000000D-01 -1.5704822664072D+00 -2.4604331585939D-01
44  4.3000000000000D-01 -1.5310862003109D+00 -3.0884457836684D-01
45  4.4000000000000D-01 -1.4879412851655D+00 -3.7472563414591D-01
46  4.5000000000000D-01 -1.4412210217872D+00 -4.4343233430293D-01
47  4.6000000000000D-01 -1.3911181593217D+00 -5.1467663636770D-01
48  4.7000000000000D-01 -1.3378439497081D+00 -5.8813788500314D-01
49  4.8000000000000D-01 -1.2816272411746D+00 -6.6346446180322D-01
50  4.9000000000000D-01 -1.2227133971442D+00 -7.4027578323105D-01
51  5.0000000000000D-01 -1.1613630516265D+00 -8.1816471152476D-01
52  5.1000000000000D-01 -1.0978507434351D+00 -8.9670022649861D-01
53  5.2000000000000D-01 -1.0324633941390D+00 -9.7543042675123D-01
54  5.3000000000000D-01 -9.6549856338020D-01 -1.0538859986644D+00
55  5.4000000000000D-01 -8.9726284625419D-01 -1.1315834968899D+00
56  5.5000000000000D-01 -8.2806975214877D-01 -1.2080295731224D+00
57  5.6000000000000D-01 -7.5823795312278D-01 -1.2827245989625D+00
58  5.7000000000000D-01 -6.8808905332971D-01 -1.3551671732261D+00
59  5.8000000000000D-01 -6.1794563426389D-01 -1.4248581454870D+00
60  5.9000000000000D-01 -5.4812888142620D-01 -1.4913054352665D+00
61  6.0000000000000D-01 -4.7895683646222D-01 -1.5540276485148D+00
62  6.1000000000000D-01 -4.1074151359598D-01 -1.6125598921239D+00
63  6.2000000000000D-01 -3.4378766952622D-01 -1.6664563445968D+00
64  6.3000000000000D-01 -2.7838983153804D-01 -1.7152962191170D+00
65  6.4000000000000D-01 -2.1483059530617D-01 -1.7586872059478D+00
66  6.5000000000000D-01 -1.5337906695104D-01 -1.7962685906718D+00
67  6.6000000000000D-01 -9.4288133605405D-02 -1.8277166490818D+00
68  6.7000000000000D-01 -3.7793137185315D-02 -1.8527472221391D+00
69  6.8000000000000D-01  1.5889624211725D-02 -1.8711185827680D+00
70  6.9000000000000D-01  6.6564170532567D-02 -1.8826338144974D+00
71  7.0000000000000D-01  1.1405724570605D-01 -1.8871453301287D+00
72  7.1000000000000D-01  1.5821842084307D-01 -1.8845548194399D+00
73  7.2000000000000D-01  1.9892133522815D-01 -1.8748153583428D+00
74  7.3000000000000D-01  2.3606447267652D-01 -1.8579325344355D+00
75  7.4000000000000D-01  2.6957156779947D-01 -1.8339647925611D+00
76  7.5000000000000D-01  2.9939231534323D-01 -1.8030242461115D+00
77  7.6000000000000D-01  3.2550230768003D-01 -1.7652759367017D+00
78  7.7000000000000D-01  3.4790275220504D-01 -1.7209366173202D+00
79  7.8000000000000D-01  3.6662025123239D-01 -1.6702735508513D+00
80  7.9000000000000D-01  3.8170625233224D-01 -1.6136026068653D+00
81  8.0000000000000D-01  3.9323628293499D-01 -1.5512858732289D+00
82  8.1000000000000D-01  4.0130897620833D-01 -1.4837288015449D+00
83  8.2000000000000D-01  4.0604489738677D-01 -1.4113769106035D+00
84  8.3000000000000D-01  4.0758518180185D-01 -1.3347120769561D+00
85  8.4000000000000D-01  4.0608999781009D-01 -1.2542484463466D+00
86  8.5000000000000D-01  4.0173684963359D-01 -1.1705280040497D+00
87  8.6000000000000D-01  3.9471873681009D-01 -1.0841158461352D+00
88  8.7000000000000D-01  3.8524218848905D-01 -9.9559519730611D-01
89  8.8000000000000D-01  3.7352519220549D-01 -9.0556222421791D-01
90  8.9000000000000D-01  3.5979503800845D-01 -8.1462069607550D-01
91  9.0000000000000D-01  3.4428609990509D-01 -7.2337654677769D-01
92  9.1000000000000D-01  3.2723757748925D-01 -6.3243239490497D-01
93  9.2000000000000D-01  3.0889122132706D-01 -5.4238207934271D-01
94  9.3000000000000D-01  2.8948906613434D-01 -4.5380526920362D-01
95  9.4000000000000D-01  2.6927119595005D-01 -3.6726220682825D-01
96  9.5000000000000D-01  2.4847356532374D-01 -2.8328864184030D-01
97  9.6000000000000D-01  2.2732643153192D-01 -2.0239243650467D-01
98  9.7000000000000D-01  2.0605100148049D-01 -1.2504535087218D-01
99  9.8000000000000D-01  1.8485843489249D-01 -5.1681354101961D-02
100  9.9000000000000D-01  1.6394808252999D-01  1.7307254841819D-02
101  1.0000000000000D+00  1.4350579067697D-01  8.1573506836950D-02
102  1.0100000000000D+00  1.2370249514886D-01  1.4081863795699D-01
103  1.0200000000000D+00  1.0469314204465D-01  1.9479412306184D-01
104  1.0300000000000D+00  8.6616553870433D-02  2.4330141357594D-01
105  1.0400000000000D+00  6.9590924020515D-02  2.8620225827411D-01
106  1.0500000000000D+00  5.3716961580622D-02  3.2341015900854D-01
107  1.0600000000000D+00  3.9076386917587D-02  3.5489336345427D-01
108  1.0700000000000D+00  2.5731845762621D-02  3.8067431144460D-01
109  1.0800000000000D+00  1.3728447918637D-02  4.0082546678189D-01
110  1.0900000000000D+00  3.0887093240271D-03  4.1547978378493D-01
111  1.1000000000000D+00 -6.1814467387193D-03  4.2481598357864D-01
112  1.1100000000000D+00 -1.4093610455000D-02  4.2905976938141D-01
113  1.1200000000000D+00 -2.0675010926695D-02  4.2847905031280D-01
114  1.1300000000000D+00 -2.5970825319450D-02  4.2338714090541D-01
115  1.1400000000000D+00 -3.0040193132995D-02  4.1413275896782D-01
116  1.1500000000000D+00 -3.2954542805847D-02  4.0109550511639D-01
117  1.1600000000000D+00 -3.4796232164488D-02  3.8468282257602D-01
118  1.1700000000000D+00 -3.5659165580658D-02  3.6532681316884D-01
119  1.1800000000000D+00 -3.5644113341573D-02  3.4347472714454D-01
120  1.1900000000000D+00 -3.4857895204945D-02  3.1958672106913D-01
121  1.2000000000000D+00 -3.3412423730057D-02  2.9413192390111D-01
122  1.2100000000000D+00 -3.1420988030367D-02  2.6757538774687D-01
123  1.2200000000000D+00 -2.8997227531860D-02  2.4037918122889D-01
124  1.2300000000000D+00 -2.6255738401304D-02  2.1300456814997D-01
125  1.2400000000000D+00 -2.3304156019446D-02  1.8588281000945D-01
126  1.2500000000000D+00 -2.0246144405752D-02  1.5943050392226D-01
127  1.2600000000000D+00 -1.7182435243284D-02  1.3405255776699D-01
128  1.2700000000000D+00 -1.4199712800423D-02  1.1010392461913D-01
129  1.2800000000000D+00 -1.1376812928731D-02  8.7913373268797D-02
130  1.2900000000000D+00 -8.7872017263124D-03  6.7791473022317D-02
131  1.3000000000000D+00 -6.4836916848628D-03  4.9979386060713D-02
132  1.3100000000000D+00 -4.5107644856772D-03  3.4691244266106D-02
133  1.3200000000000D+00 -2.9040519004346D-03  2.2112209598326D-02
134  1.3300000000000D+00 -1.6760111185176D-03  1.2350483318042D-02
135  1.3400000000000D+00 -8.3296686748370D-04  5.4943139439714D-03
136  1.3500000000000D+00 -4.0445466249444D-04  1.8392388203111D-03
137  1.3600000000000D+00 -2.1161548938870D-04  3.9689499943191D-04
138  1.3700000000000D+00 -4.7222851785656D-05 -2.0946028454432D-05
139  1.3800000000000D+00  1.5653021446001D-05 -3.5403716493820D-05
140  1.3900000000000D+00  3.0607460869236D-06 -6.9227392995551D-06
141  1.4000000000000D+00  0.0000000000000D+00  0.0000000000000D+00
142  1.4100000000000D+00  0.0000000000000D+00  0.0000000000000D+00
143  1.4200000000000D+00  0.0000000000000D+00  0.0000000000000D+00
144  1.4300000000000D+00  0.0000000000000D+00  0.0000000000000D+00
145  1.4400000000000D+00  0.0000000000000D+00  0.0000000000000D+00
146  1.4500000000000D+00  0.0000000000000D+00  0.0000000000000D+00
147  1.4600000000000D+00  0.0000000000000D+00  0.0000000000000D+00
148  1.4700000000000D+00  0.0000000000000D+00  0.0000000000000D+00
149  1.4800000000000D+00  0.0000000000000D+00  0.0000000000000D+00
150  1.4900000000000D+00  0.0000000000000D+00  0.0000000000000D+00
151  1.5000000000000D+00  0.0000000000000D+00  0.0000000000000D+00
152  1.5100000000000D+00  0.0000000000000D+00  0.0000000000000D+00
153  1.5200000000000D+00  0.0000000000000D+00  0.0000000000000D+00
154  1.5300000000000D+00  0.0000000000000D+00  0.0000000000000D+00
155  1.5400000000000D+00  0.0000000000000D+00  0.0000000000000D+00
156  1.5500000000000D+00  0.0000000000000D+00  0.0000000000000D+00
157  1.5600000000000D+00  0.0000000000000D+00  0.0000000000000D+00
158  1.5700000000000D+00  0.0000000000000D+00  0.0000000000000D+00
159  1.5800000000000D+00  0.0000000000000D+00  0.0000000000000D+00
160  1.5900000000000D+00  0.0000000000000D+00  0.0000000000000D+00
161  1.6000000000000D+00  0.0000000000000D+00  0.0000000000000D+00
162  1.6100000000000D+00  0.0000000000000D+00  0.0000000000000D+00
163  1.6200000000000D+00  0.0000000000000D+00  0.0000000000000D+00
164  1.6300000000000D+00  0.0000000000000D+00  0.0000000000000D+00
165  1.6400000000000D+00  0.0000000000000D+00  0.0000000000000D+00
166  1.6500000000000D+00  0.0000000000000D+00  0.0000000000000D+00
167  1.6600000000000D+00  0.0000000000000D+00  0.0000000000000D+00
168  1.6700000000000D+00  0.0000000000000D+00  0.0000000000000D+00
169  1.6800000000000D+00  0.0000000000000D+00  0.0000000000000D+00
170  1.6900000000000D+00  0.0000000000000D+00  0.0000000000000D+00
171  1.7000000000000D+00  0.0000000000000D+00  0.0000000000000D+00
172  1.7100000000000D+00  0.0000000000000D+00  0.0000000000000D+00
173  1.7200000000000D+00  0.0000000000000D+00  0.0000000000000D+00
174  1.7300000000000D+00  0.0000000000000D+00  0.0000000000000D+00
175  1.7400000000000D+00  0.0000000000000D+00  0.0000000000000D+00
176  1.7500000000000D+00  0.0000000000000D+00  0.0000000000000D+00
177  1.7600000000000D+00  0.0000000000000D+00  0.0000000000000D+00
178  1.7700000000000D+00  0.0000000000000D+00  0.0000000000000D+00
179  1.7800000000000D+00  0.0000000000000D+00  0.0000000000000D+00
180  1.7900000000000D+00  0.0000000000000D+00  0.0000000000000D+00
181  1.8000000000000D+00  0.0000000000000D+00  0.0000000000000D+00
182  1.8100000000000D+00  0.0000000000000D+00  0.0000000000000D+00
183  1.8200000000000D+00  0.0000000000000D+00  0.0000000000000D+00
184  1.8300000000000D+00  0.0000000000000D+00  0.0000000000000D+00
185  1.8400000000000D+00  0.0000000000000D+00  0.0000000000000D+00
186  1.8500000000000D+00  0.0000000000000D+00  0.0000000000000D+00
187  1.8600000000000D+00  0.0000000000000D+00  0.0000000000000D+00
188  1.8700000000000D+00  0.0000000000000D+00  0.0000000000000D+00
189  1.8800000000000D+00  0.0000000000000D+00  0.0000000000000D+00
190  1.8900000000000D+00  0.0000000000000D+00  0.0000000000000D+00
191  1.9000000000000D+00  0.0000000000000D+00  0.0000000000000D+00
192  1.9100000000000D+00  0.0000000000000D+00  0.0000000000000D+00
193  1.9200000000000D+00  0.0000000000000D+00  0.0000000000000D+00
194  1.9300000000000D+00  0.0000000000000D+00  0.0000000000000D+00
195  1.9400000000000D+00  0.0000000000000D+00  0.0000000000000D+00
196  1.9500000000000D+00  0.0000000000000D+00  0.0000000000000D+00
197  1.9600000000000D+00  0.0000000000000D+00  0.0000000000000D+00
198  1.9700000000000D+00  0.0000000000000D+00  0.0000000000000D+00
199  1.9800000000000D+00  0.0000000000000D+00  0.0000000000000D+00
200  1.9900000000000D+00  0.0000000000000D+00  0.0000000000000D+00
201  2.0000000000000D+00  0.0000000000000D+00  0.0000000000000D+00
202  2.0100000000000D+00  0.0000000000000D+00  0.0000000000000D+00
203  2.0200000000000D+00  0.0000000000000D+00  0.0000000000000D+00
204  2.0300000000000D+00  0.0000000000000D+00  0.0000000000000D+00
205  2.0400000000000D+00  0.0000000000000D+00  0.0000000000000D+00
206  2.0500000000000D+00  0.0000000000000D+00  0.0000000000000D+00
207  2.0600000000000D+00  0.0000000000000D+00  0.0000000000000D+00
208  2.0700000000000D+00  0.0000000000000D+00  0.0000000000000D+00
209  2.0800000000000D+00  0.0000000000000D+00  0.0000000000000D+00
210  2.0900000000000D+00  0.0000000000000D+00  0.0000000000000D+00
211  2.1000000000000D+00  0.0000000000000D+00  0.0000000000000D+00
212  2.1100000000000D+00  0.0000000000000D+00  0.0000000000000D+00
213  2.1200000000000D+00  0.0000000000000D+00  0.0000000000000D+00
214  2.1300000000000D+00  0.0000000000000D+00  0.0000000000000D+00
215  2.1400000000000D+00  0.0000000000000D+00  0.0000000000000D+00
216  2.1500000000000D+00  0.0000000000000D+00  0.0000000000000D+00
217  2.1600000000000D+00  0.0000000000000D+00  0.0000000000000D+00
218  2.1700000000000D+00  0.0000000000000D+00  0.0000000000000D+00
219  2.1800000000000D+00  0.0000000000000D+00  0.0000000000000D+00
220  2.1900000000000D+00  0.0000000000000D+00  0.0000000000000D+00
221  2.2000000000000D+00  0.0000000000000D+00  0.0000000000000D+00
222  2.2100000000000D+00  0.0000000000000D+00  0.0000000000000D+00
223  2.2200000000000D+00  0.0000000000000D+00  0.0000000000000D+00
224  2.2300000000000D+00  0.0000000000000D+00  0.0000000000000D+00
225  2.2400000000000D+00  0.0000000000000D+00  0.0000000000000D+00
226  2.2500000000000D+00  0.0000000000000D+00  0.0000000000000D+00
227  2.2600000000000D+00  0.0000000000000D+00  0.0000000000000D+00
228  2.2700000000000D+00  0.0000000000000D+00  0.0000000000000D+00
229  2.2800000000000D+00  0.0000000000000D+00  0.0000000000000D+00
230  2.2900000000000D+00  0.0000000000000D+00  0.0000000000000D+00
231  2.3000000000000D+00  0.0000000000000D+00  0.0000000000000D+00
232  2.3100000000000D+00  0.0000000000000D+00  0.0000000000000D+00
233  2.3200000000000D+00  0.0000000000000D+00  0.0000000000000D+00
234  2.3300000000000D+00  0.0000000000000D+00  0.0000000000000D+00
235  2.3400000000000D+00  0.0000000000000D+00  0.0000000000000D+00
236  2.3500000000000D+00  0.0000000000000D+00  0.0000000000000D+00
237  2.3600000000000D+00  0.0000000000000D+00  0.0000000000000D+00
238  2.3700000000000D+00  0.0000000000000D+00  0.0000000000000D+00
239  2.3800000000000D+00  0.0000000000000D+00  0.0000000000000D+00
240  2.3900000000000D+00  0.0000000000000D+00  0.0000000000000D+00
241  2.4000000000000D+00  0.0000000000000D+00  0.0000000000000D+00
242  2.4100000000000D+00  0.0000000000000D+00  0.0000000000000D+00
243  2.4200000000000D+00  0.0000000000000D+00  0.0000000000000D+00
244  2.4300000000000D+00  0.0000000000000D+00  0.0000000000000D+00
245  2.4400000000000D+00  0.0000000000000D+00  0.0000000000000D+00
246  2.4500000000000D+00  0.0000000000000D+00  0.0000000000000D+00
247  2.4600000000000D+00  0.0000000000000D+00  0.0000000000000D+00
248  2.4700000000000D+00  0.0000000000000D+00  0.0000000000000D+00
249  2.4800000000000D+00  0.0000000000000D+00  0.0000000000000D+00
250  2.4900000000000D+00  0.0000000000000D+00  0.0000000000000D+00
251  2.5000000000000D+00  0.0000000000000D+00  0.0000000000000D+00
252  2.5100000000000D+00  0.0000000000000D+00  0.0000000000000D+00
253  2.5200000000000D+00  0.0000000000000D+00  0.0000000000000D+00
254  2.5300000000000D+00  0.0000000000000D+00  0.0000000000000D+00
255  2.5400000000000D+00  0.0000000000000D+00  0.0000000000000D+00
256  2.5500000000000D+00  0.0000000000000D+00  0.0000000000000D+00
257  2.5600000000000D+00  0.0000000000000D+00  0.0000000000000D+00
258  2.5700000000000D+00  0.0000000000000D+00  0.0000000000000D+00
259  2.5800000000000D+00  0.0000000000000D+00  0.0000000000000D+00
260  2.5900000000000D+00  0.0000000000000D+00  0.0000000000000D+00
261  2.6000000000000D+00  0.0000000000000D+00  0.0000000000000D+00
262  2.6100000000000D+00  0.0000000000000D+00  0.0000000000000D+00
263  2.6200000000000D+00  0.0000000000000D+00  0.0000000000000D+00
264  2.6300000000000D+00  0.0000000000000D+00  0.0000000000000D+00
265  2.6400000000000D+00  0.0000000000000D+00  0.0000000000000D+00
266  2.6500000000000D+00  0.0000000000000D+00  0.0000000000000D+00
267  2.6600000000000D+00  0.0000000000000D+00  0.0000000000000D+00
268  2.6700000000000D+00  0.0000000000000D+00  0.0000000000000D+00
269  2.6800000000000D+00  0.0000000000000D+00  0.0000000000000D+00
270  2.6900000000000D+00  0.0000000000000D+00  0.0000000000000D+00
271  2.7000000000000D+00  0.0000000000000D+00  0.0000000000000D+00
272  2.7100000000000D+00  0.0000000000000D+00  0.0000000000000D+00
273  2.7200000000000D+00  0.0000000000000D+00  0.0000000000000D+00
274  2.7300000000000D+00  0.0000000000000D+00  0.0000000000000D+00
275  2.7400000000000D+00  0.0000000000000D+00  0.0000000000000D+00
276  2.7500000000000D+00  0.0000000000000D+00  0.0000000000000D+00
277  2.7600000000000D+00  0.0000000000000D+00  0.0000000000000D+00
278  2.7700000000000D+00  0.0000000000000D+00  0.0000000000000D+00
279  2.7800000000000D+00  0.0000000000000D+00  0.0000000000000D+00
280  2.7900000000000D+00  0.0000000000000D+00  0.0000000000000D+00
281  2.8000000000000D+00  0.0000000000000D+00  0.0000000000000D+00
282  2.8100000000000D+00  0.0000000000000D+00  0.0000000000000D+00
283  2.8200000000000D+00  0.0000000000000D+00  0.0000000000000D+00
284  2.8300000000000D+00  0.0000000000000D+00  0.0000000000000D+00
285  2.8400000000000D+00  0.0000000000000D+00  0.0000000000000D+00
286  2.8500000000000D+00  0.0000000000000D+00  0.0000000000000D+00
287  2.8600000000000D+00  0.0000000000000D+00  0.0000000000000D+00
288  2.8700000000000D+00  0.0000000000000D+00  0.0000000000000D+00
289  2.8800000000000D+00  0.0000000000000D+00  0.0000000000000D+00
290  2.8900000000000D+00  0.0000000000000D+00  0.0000000000000D+00
291  2.9000000000000D+00  0.0000000000000D+00  0.0000000000000D+00
292  2.9100000000000D+00  0.0000000000000D+00  0.0000000000000D+00
293  2.9200000000000D+00  0.0000000000000D+00  0.0000000000000D+00
294  2.9300000000000D+00  0.0000000000000D+00  0.0000000000000D+00
295  2.9400000000000D+00  0.0000000000000D+00  0.0000000000000D+00
296  2.9500000000000D+00  0.0000000000000D+00  0.0000000000000D+00
297  2.9600000000000D+00  0.0000000000000D+00  0.0000000000000D+00
298  2.9700000000000D+00  0.0000000000000D+00  0.0000000000000D+00
299  2.9800000000000D+00  0.0000000000000D+00  0.0000000000000D+00
300  2.9900000000000D+00  0.0000000000000D+00  0.0000000000000D+00
301  3.0000000000000D+00  0.0000000000000D+00  0.0000000000000D+00
302  3.0100000000000D+00  0.0000000000000D+00  0.0000000000000D+00
303  3.0200000000000D+00  0.0000000000000D+00  0.0000000000000D+00
304  3.0300000000000D+00  0.0000000000000D+00  0.0000000000000D+00
305  3.0400000000000D+00  0.0000000000000D+00  0.0000000000000D+00
306  3.0500000000000D+00  0.0000000000000D+00  0.0000000000000D+00
307  3.0600000000000D+00  0.0000000000000D+00  0.0000000000000D+00
308  3.0700000000000D+00  0.0000000000000D+00  0.0000000000000D+00
309  3.0800000000000D+00  0.0000000000000D+00  0.0000000000000D+00
310  3.0900000000000D+00  0.0000000000000D+00  0.0000000000000D+00
311  3.1000000000000D+00  0.0000000000000D+00  0.0000000000000D+00
312  3.1100000000000D+00  0.0000000000000D+00  0.0000000000000D+00
313  3.1200000000000D+00  0.0000000000000D+00  0.0000000000000D+00
314  3.1300000000000D+00  0.0000000000000D+00  0.0000000000000D+00
315  3.1400000000000D+00  0.0000000000000D+00  0.0000000000000D+00
316  3.1500000000000D+00  0.0000000000000D+00  0.0000000000000D+00
317  3.1600000000000D+00  0.0000000000000D+00  0.0000000000000D+00
318  3.1700000000000D+00  0.0000000000000D+00  0.0000000000000D+00
319  3.1800000000000D+00  0.0000000000000D+00  0.0000000000000D+00
320  3.1900000000000D+00  0.0000000000000D+00  0.0000000000000D+00
321  3.2000000000000D+00  0.0000000000000D+00  0.0000000000000D+00
322  3.2100000000000D+00  0.0000000000000D+00  0.0000000000000D+00
323  3.2200000000000D+00  0.0000000000000D+00  0.0000000000000D+00
324  3.2300000000000D+00  0.0000000000000D+00  0.0000000000000D+00
325  3.2400000000000D+00  0.0000000000000D+00  0.0000000000000D+00
326  3.2500000000000D+00  0.0000000000000D+00  0.0000000000000D+00
327  3.2600000000000D+00  0.0000000000000D+00  0.0000000000000D+00
328  3.2700000000000D+00  0.0000000000000D+00  0.0000000000000D+00
329  3.2800000000000D+00  0.0000000000000D+00  0.0000000000000D+00
330  3.2900000000000D+00  0.0000000000000D+00  0.0000000000000D+00
331  3.3000000000000D+00  0.0000000000000D+00  0.0000000000000D+00
332  3.3100000000000D+00  0.0000000000000D+00  0.0000000000000D+00
333  3.3200000000000D+00  0.0000000000000D+00  0.0000000000000D+00
334  3.3300000000000D+00  0.0000000000000D+00  0.0000000000000D+00
335  3.3400000000000D+00  0.0000000000000D+00  0.0000000000000D+00
336  3.3500000000000D+00  0.0000000000000D+00  0.0000000000000D+00
337  3.3600000000000D+00  0.0000000000000D+00  0.0000000000000D+00
338  3.3700000000000D+00  0.0000000000000D+00  0.0000000000000D+00
339  3.3800000000000D+00  0.0000000000000D+00  0.0000000000000D+00
340  3.3900000000000D+00  0.0000000000000D+00  0.0000000000000D+00
341  3.4000000000000D+00  0.0000000000000D+00  0.0000000000000D+00
342  3.4100000000000D+00  0.0000000000000D+00  0.0000000000000D+00
343  3.4200000000000D+00  0.0000000000000D+00  0.0000000000000D+00
344  3.4300000000000D+00  0.0000000000000D+00  0.0000000000000D+00
345  3.4400000000000D+00  0.0000000000000D+00  0.0000000000000D+00
346  3.4500000000000D+00  0.0000000000000D+00  0.0000000000000D+00
347  3.4600000000000D+00  0.0000000000000D+00  0.0000000000000D+00
348  3.4700000000000D+00  0.0000000000000D+00  0.0000000000000D+00
349  3.4800000000000D+00  0.0000000000000D+00  0.0000000000000D+00
350  3.4900000000000D+00  0.0000000000000D+00  0.0000000000000D+00
351  3.5000000000000D+00  0.0000000000000D+00  0.0000000000000D+00
352  3.5100000000000D+00  0.0000000000000D+00  0.0000000000000D+00
353  3.5200000000000D+00  0.0000000000000D+00  0.0000000000000D+00
354  3.5300000000000D+00  0.0000000000000D+00  0.0000000000000D+00
355  3.5400000000000D+00  0.0000000000000D+00  0.0000000000000D+00
356  3.5500000000000D+00  0.0000000000000D+00  0.0000000000000D+00
357  3.5600000000000D+00  0.0000000000000D+00  0.0000000000000D+00
358  3.5700000000000D+00  0.0000000000000D+00  0.0000000000000D+00
359  3.5800000000000D+00  0.0000000000000D+00  0.0000000000000D+00
360  3.5900000000000D+00  0.0000000000000D+00  0.0000000000000D+00
361  3.6000000000000D+00  0.0000000000000D+00  0.0000000000000D+00
362  3.6100000000000D+00  0.0000000000000D+00  0.0000000000000D+00
363  3.6200000000000D+00  0.0000000000000D+00  0.0000000000000D+00
364  3.6300000000000D+00  0.0000000000000D+00  0.0000000000000D+00
365  3.6400000000000D+00  0.0000000000000D+00  0.0000000000000D+00
366  3.6500000000000D+00  0.0000000000000D+00  0.0000000000000D+00
367  3.6600000000000D+00  0.0000000000000D+00  0.0000000000000D+00
368  3.6700000000000D+00  0.0000000000000D+00  0.0000000000000D+00
369  3.6800000000000D+00  0.0000000000000D+00  0.0000000000000D+00
370  3.6900000000000D+00  0.0000000000000D+00  0.0000000000000D+00
371  3.7000000000000D+00  0.0000000000000D+00  0.0000000000000D+00
372  3.7100000000000D+00  0.0000000000000D+00  0.0000000000000D+00
373  3.7200000000000D+00  0.0000000000000D+00  0.0000000000000D+00
374  3.7300000000000D+00  0.0000000000000D+00  0.0000000000000D+00
375  3.7400000000000D+00  0.0000000000000D+00  0.0000000000000D+00
376  3.7500000000000D+00  0.0000000000000D+00  0.0000000000000D+00
377  3.7600000000000D+00  0.0000000000000D+00  0.0000000000000D+00
378  3.7700000000000D+00  0.0000000000000D+00  0.0000000000000D+00
379  3.7800000000000D+00  0.0000000000000D+00  0.0000000000000D+00
380  3.7900000000000D+00  0.0000000000000D+00  0.0000000000000D+00
381  3.8000000000000D+00  0.0000000000000D+00  0.0000000000000D+00
382  3.8100000000000D+00  0.0000000000000D+00  0.0000000000000D+00
383  3.8200000000000D+00  0.0000000000000D+00  0.0000000000000D+00
384  3.8300000000000D+00  0.0000000000000D+00  0.0000000000000D+00
385  3.8400000000000D+00  0.0000000000000D+00  0.0000000000000D+00
386  3.8500000000000D+00  0.0000000000000D+00  0.0000000000000D+00
387  3.8600000000000D+00  0.0000000000000D+00  0.0000000000000D+00
388  3.8700000000000D+00  0.0000000000000D+00  0.0000000000000D+00
389  3.8800000000000D+00  0.0000000000000D+00  0.0000000000000D+00
390  3.8900000000000D+00  0.0000000000000D+00  0.0000000000000D+00
391  3.9000000000000D+00  0.0000000000000D+00  0.0000000000000D+00
392  3.9100000000000D+00  0.0000000000000D+00  0.0000000000000D+00
393  3.9200000000000D+00  0.0000000000000D+00  0.0000000000000D+00
394  3.9300000000000D+00  0.0000000000000D+00  0.0000000000000D+00
395  3.9400000000000D+00  0.0000000000000D+00  0.0000000000000D+00
396  3.9500000000000D+00  0.0000000000000D+00  0.0000000000000D+00
397  3.9600000000000D+00  0.0000000000000D+00  0.0000000000000D+00
398  3.9700000000000D+00  0.0000000000000D+00  0.0000000000000D+00
399  3.9800000000000D+00  0.0000000000000D+00  0.0000000000000D+00
400  3.9900000000000D+00  0.0000000000000D+00  0.0000000000000D+00
401  4.0000000000000D+00  0.0000000000000D+00  0.0000000000000D+00
402  4.0100000000000D+00  0.0000000000000D+00  0.0000000000000D+00
403  4.0200000000000D+00  0.0000000000000D+00  0.0000000000000D+00
404  4.0300000000000D+00  0.0000000000000D+00  0.0000000000000D+00
405  4.0400000000000D+00  0.0000000000000D+00  0.0000000000000D+00
406  4.0500000000000D+00  0.0000000000000D+00  0.0000000000000D+00
407  4.0600000000000D+00  0.0000000000000D+00  0.0000000000000D+00
408  4.0700000000000D+00  0.0000000000000D+00  0.0000000000000D+00
409  4.0800000000000D+00  0.0000000000000D+00  0.0000000000000D+00
410  4.0900000000000D+00  0.0000000000000D+00  0.0000000000000D+00
411  4.1000000000000D+00  0.0000000000000D+00  0.0000000000000D+00
412  4.1100000000000D+00  0.0000000000000D+00  0.0000000000000D+00
413  4.1200000000000D+00  0.0000000000000D+00  0.0000000000000D+00
414  4.1300000000000D+00  0.0000000000000D+00  0.0000000000000D+00
415  4.1400000000000D+00  0.0000000000000D+00  0.0000000000000D+00
416  4.1500000000000D+00  0.0000000000000D+00  0.0000000000000D+00
417  4.1600000000000D+00  0.0000000000000D+00  0.0000000000000D+00
418  4.1700000000000D+00  0.0000000000000D+00  0.0000000000000D+00
419  4.1800000000000D+00  0.0000000000000D+00  0.0000000000000D+00
420  4.1900000000000D+00  0.0000000000000D+00  0.0000000000000D+00
421  4.2000000000000D+00  0.0000000000000D+00  0.0000000000000D+00
422  4.2100000000000D+00  0.0000000000000D+00  0.0000000000000D+00
423  4.2200000000000D+00  0.0000000000000D+00  0.0000000000000D+00
424  4.2300000000000D+00  0.0000000000000D+00  0.0000000000000D+00
425  4.2400000000000D+00  0.0000000000000D+00  0.0000000000000D+00
426  4.2500000000000D+00  0.0000000000000D+00  0.0000000000000D+00
427  4.2600000000000D+00  0.0000000000000D+00  0.0000000000000D+00
428  4.2700000000000D+00  0.0000000000000D+00  0.0000000000000D+00
429  4.2800000000000D+00  0.0000000000000D+00  0.0000000000000D+00
430  4.2900000000000D+00  0.0000000000000D+00  0.0000000000000D+00
431  4.3000000000000D+00  0.0000000000000D+00  0.0000000000000D+00
432  4.3100000000000D+00  0.0000000000000D+00  0.0000000000000D+00
433  4.3200000000000D+00  0.0000000000000D+00  0.0000000000000D+00
434  4.3300000000000D+00  0.0000000000000D+00  0.0000000000000D+00
435  4.3400000000000D+00  0.0000000000000D+00  0.0000000000000D+00
436  4.3500000000000D+00  0.0000000000000D+00  0.0000000000000D+00
437  4.3600000000000D+00  0.0000000000000D+00  0.0000000000000D+00
438  4.3700000000000D+00  0.0000000000000D+00  0.0000000000000D+00
439  4.3800000000000D+00  0.0000000000000D+00  0.0000000000000D+00
440  4.3900000000000D+00  0.0000000000000D+00  0.0000000000000D+00
441  4.4000000000000D+00  0.0000000000000D+00  0.0000000000000D+00
442  4.4100000000000D+00  0.0000000000000D+00  0.0000000000000D+00
443  4.4200000000000D+00  0.0000000000000D+00  0.0000000000000D+00
444  4.4300000000000D+00  0.0000000000000D+00  0.0000000000000D+00