Rh    ONCVPSP  r_core=  1.46  1.51  1.57
45.0000     17.0000      140827    zatom,zion,pspd
8    11     2     4   601     0    pspcod,pspxc,lmax,lloc,mmax,r2well
6.00000000  0.50000000  0.00000000    rchrg fchrg qchrg
2     2     2     0     0    nproj
0                 extension_switch
0                         1.4816181034661D+01  1.6372805426972D+00
1  0.0000000000000D+00 -0.0000000000000D+00  0.0000000000000D+00
2  1.0000000000000D-02 -7.6589161424018D-02  2.6773775597144D-02
3  2.0000000000000D-02 -1.5302607555319D-01  5.3433829316568D-02
4  3.0000000000000D-02 -2.2915861905287D-01  7.9866302117497D-02
5  4.0000000000000D-02 -3.0483491934622D-01  1.0595706748416D-01
6  5.0000000000000D-02 -3.7990348704653D-01  1.3159161472901D-01
7  6.0000000000000D-02 -4.5421335674182D-01  1.5665495250185D-01
8  7.0000000000000D-02 -5.2761423873102D-01  1.8103153883749D-01
9  8.0000000000000D-02 -5.9995668415409D-01  2.0460524373544D-01
10  9.0000000000000D-02 -6.7109226576714D-01  2.2725934984597D-01
11  1.0000000000000D-01 -7.4087377638698D-01  2.4887659634486D-01
12  1.1000000000000D-01 -8.0915544676896D-01  2.6933927051617D-01
13  1.2000000000000D-01 -8.7579318440037D-01  2.8852935093714D-01
14  1.3000000000000D-01 -9.4064483437699D-01  3.0632870547959D-01
15  1.4000000000000D-01 -1.0035704631704D+00  3.2261934658793D-01
16  1.5000000000000D-01 -1.0644326658135D+00  3.3728374557509D-01
17  1.6000000000000D-01 -1.1230968965096D+00  3.5020520674349D-01
18  1.7000000000000D-01 -1.1794318225178D+00  3.6126830150167D-01
19  1.8000000000000D-01 -1.2333097004579D+00  3.7035936148032D-01
20  1.9000000000000D-01 -1.2846067743166D+00  3.7736702938395D-01
21  2.0000000000000D-01 -1.3332036928682D+00  3.8218286399651D-01
22  2.1000000000000D-01 -1.3789859462785D+00  3.8470199804804D-01
23  2.2000000000000D-01 -1.4218443174586D+00  3.8482384181245D-01
24  2.3000000000000D-01 -1.4616753476381D+00  3.8245283014830D-01
25  2.4000000000000D-01 -1.4983818112658D+00  3.7749920439671D-01
26  2.5000000000000D-01 -1.5318732002432D+00  3.6987982757188D-01
27  2.6000000000000D-01 -1.5620662077755D+00  3.5951901611300D-01
28  2.7000000000000D-01 -1.5888852171801D+00  3.4634939477625D-01
29  2.8000000000000D-01 -1.6122627810592D+00  3.3031274961587D-01
30  2.9000000000000D-01 -1.6321400951522D+00  3.1136088395929D-01
31  3.0000000000000D-01 -1.6484674582544D+00  2.8945646154253D-01
32  3.1000000000000D-01 -1.6612047144377D+00  2.6457382855956D-01
33  3.2000000000000D-01 -1.6703216707083D+00  2.3669980094632D-01
34  3.3000000000000D-01 -1.6757984932406D+00  2.0583442091189D-01
35  3.4000000000000D-01 -1.6776260681952D+00  1.7199165670324D-01
36  3.5000000000000D-01 -1.6758063204105D+00  1.3520003133751D-01
37  3.6000000000000D-01 -1.6703525081242D+00  9.5503212494377D-02
38  3.7000000000000D-01 -1.6612894548862D+00  5.2960491341605D-02
39  3.8000000000000D-01 -1.6486537358275D+00  7.6471798780386D-03
40  3.9000000000000D-01 -1.6324938276421D+00 -4.0345055592271D-02
41  4.0000000000000D-01 -1.6128701783227D+00 -9.0908008827505D-02
42  4.1000000000000D-01 -1.5898552304696D+00 -1.4391683313633D-01
43  4.2000000000000D-01 -1.5635333800403D+00 -1.9923006069619D-01
44  4.3000000000000D-01 -1.5340008695365D+00 -2.5668974436406D-01
45  4.4000000000000D-01 -1.5013656141984D+00 -3.1612172526973D-01
46  4.5000000000000D-01 -1.4657469597644D+00 -3.7733602939323D-01
47  4.6000000000000D-01 -1.4272753708469D+00 -4.4012739529695D-01
48  4.7000000000000D-01 -1.3860920496421D+00 -5.0427593382525D-01
49  4.8000000000000D-01 -1.3423484905700D+00 -5.6954791089627D-01
50  4.9000000000000D-01 -1.2962059529708D+00 -6.3569668001410D-01
51  5.0000000000000D-01 -1.2478348753604D+00 -7.0246373203242D-01
52  5.1000000000000D-01 -1.1974142345062D+00 -7.6957984812874D-01
53  5.2000000000000D-01 -1.1451308320101D+00 -8.3676638672116D-01
54  5.3000000000000D-01 -1.0911784773126D+00 -9.0373676087773D-01
55  5.4000000000000D-01 -1.0357572515403D+00 -9.7019778030133D-01
56  5.5000000000000D-01 -9.7907250314743D-01 -1.0358514675507D+00
57  5.6000000000000D-01 -9.2133403647272D-01 -1.1003965389455D+00
58  5.7000000000000D-01 -8.6275505081188D-01 -1.1635303259804D+00
59  5.8000000000000D-01 -8.0355121290953D-01 -1.2249504597836D+00
60  5.9000000000000D-01 -7.4393951063084D-01 -1.2843569419605D+00
61  6.0000000000000D-01 -6.8413740321467D-01 -1.3414536801720D+00
62  6.1000000000000D-01 -6.2436139525093D-01 -1.3959510477361D+00
63  6.2000000000000D-01 -5.6482640938170D-01 -1.4475670041251D+00
64  6.3000000000000D-01 -5.0574427639808D-01 -1.4960297838266D+00
65  6.4000000000000D-01 -4.4732283019675D-01 -1.5410794886286D+00
66  6.5000000000000D-01 -3.8976505631606D-01 -1.5824695719373D+00
67  6.6000000000000D-01 -3.3326761786599D-01 -1.6199694123216D+00
68  6.7000000000000D-01 -2.7802005994278D-01 -1.6533656583790D+00
69  6.8000000000000D-01 -2.2420390104444D-01 -1.6824637556558D+00
70  6.9000000000000D-01 -1.7199181690760D-01 -1.7070892922298D+00
71  7.0000000000000D-01 -1.2154617044531D-01 -1.7270904522186D+00
72  7.1000000000000D-01 -7.3018737668217D-02 -1.7423383521111D+00
73  7.2000000000000D-01 -2.6549792247335D-02 -1.7527284698331D+00
74  7.3000000000000D-01  1.7732600642271D-02 -1.7581816748458D+00
75  7.4000000000000D-01  5.9713115822108D-02 -1.7586449291633D+00
76  7.5000000000000D-01  9.9289934618325D-02 -1.7540923376383D+00
77  7.6000000000000D-01  1.3637510475261D-01 -1.7445254707142D+00
78  7.7000000000000D-01  1.7089479469727D-01 -1.7299734812881D+00
79  7.8000000000000D-01  2.0278963380640D-01 -1.7104933179782D+00
80  7.9000000000000D-01  2.3201489138746D-01 -1.6861696279877D+00
81  8.0000000000000D-01  2.5854055907360D-01 -1.6571144573648D+00
82  8.1000000000000D-01  2.8235133564834D-01 -1.6234667483266D+00
83  8.2000000000000D-01  3.0344651426135D-01 -1.5853916350433D+00
84  8.3000000000000D-01  3.2183977275640D-01 -1.5430795409995D+00
85  8.4000000000000D-01  3.3755886860378D-01 -1.4967450827443D+00
86  8.5000000000000D-01  3.5064524068748D-01 -1.4466257865008D+00
87  8.6000000000000D-01  3.6115352093939D-01 -1.3929806257376D+00
88  8.7000000000000D-01  3.6915095953898D-01 -1.3360883893885D+00
89  8.8000000000000D-01  3.7471676810809D-01 -1.2762458919651D+00
90  8.9000000000000D-01  3.7794138602724D-01 -1.2137660383190D+00
91  9.0000000000000D-01  3.7892567568313D-01 -1.1489757572918D+00
92  9.1000000000000D-01  3.7778005312527D-01 -1.0822138199231D+00
93  9.2000000000000D-01  3.7462356125917D-01 -1.0138285592671D+00
94  9.3000000000000D-01  3.6958289332573D-01 -9.4417551016121D-01
95  9.4000000000000D-01  3.6279137499764D-01 -8.7361498847057D-01
96  9.5000000000000D-01  3.5438791394290D-01 -8.0250963034148D-01
97  9.6000000000000D-01  3.4451607596741D-01 -7.3122241753784D-01
98  9.7000000000000D-01  3.3332266082031D-01 -6.6011297239179D-01
99  9.8000000000000D-01  3.2095677277416D-01 -5.8953583612511D-01
100  9.9000000000000D-01  3.0756874165067D-01 -5.1983804813856D-01
101  1.0000000000000D+00  2.9330900990621D-01 -4.5135667672562D-01
102  1.0100000000000D+00  2.7832707056735D-01 -3.8441653723250D-01
103  1.0200000000000D+00  2.6277049896732D-01 -3.1932817911324D-01
104  1.0300000000000D+00  2.4678441619638D-01 -2.5638698350565D-01
105  1.0400000000000D+00  2.3050882442407D-01 -1.9586672869431D-01
106  1.0500000000000D+00  2.1407931779647D-01 -1.3802215270285D-01
107  1.0600000000000D+00  1.9762577623248D-01 -8.3086045961034D-02
108  1.0700000000000D+00  1.8127163779367D-01 -3.1267914348512D-02
109  1.0800000000000D+00  1.6513423917266D-01  1.7244823362365D-02
110  1.0900000000000D+00  1.4932074813544D-01  6.2296153477952D-02
111  1.1000000000000D+00  1.3393087324517D-01  1.0375435692034D-01
112  1.1100000000000D+00  1.1905549326080D-01  1.4151491022342D-01
113  1.1200000000000D+00  1.0477734483110D-01  1.7549857455113D-01
114  1.1300000000000D+00  9.1167735057133D-02  2.0565839879811D-01
115  1.1400000000000D+00  7.8288179763596D-02  2.3197534932451D-01
116  1.1500000000000D+00  6.6190829209427D-02  2.5445697834272D-01
117  1.1600000000000D+00  5.4919363755625D-02  2.7313528864692D-01
118  1.1700000000000D+00  4.4504613049744D-02  2.8807531308433D-01
119  1.1800000000000D+00  3.4968579504742D-02  2.9936594098113D-01
120  1.1900000000000D+00  2.6324672221582D-02  3.0711919932474D-01
121  1.2000000000000D+00  1.8576835750830D-02  3.1147160986671D-01
122  1.2100000000000D+00  1.1718240840395D-02  3.1258542203425D-01
123  1.2200000000000D+00  5.7349980567810D-03  3.1064113782740D-01
124  1.2300000000000D+00  6.0636475849660D-04  3.0583734957789D-01
125  1.2400000000000D+00 -3.6988319413454D-03  2.9839465752262D-01
126  1.2500000000000D+00 -7.2169128052553D-03  2.8854654124202D-01
127  1.2600000000000D+00 -9.9897145809721D-03  2.7654050678514D-01
128  1.2700000000000D+00 -1.2066651174703D-02  2.6263756100067D-01
129  1.2800000000000D+00 -1.3500895647607D-02  2.4710705075940D-01
130  1.2900000000000D+00 -1.4349683286118D-02  2.3022841822394D-01
131  1.3000000000000D+00 -1.4674691959669D-02  2.1228501596674D-01
132  1.3100000000000D+00 -1.4539708440776D-02  1.9356453226940D-01
133  1.3200000000000D+00 -1.4011381929745D-02  1.7436056019857D-01
134  1.3300000000000D+00 -1.3157311293975D-02  1.5496100443762D-01
135  1.3400000000000D+00 -1.2046439792625D-02  1.3565701242257D-01
136  1.3500000000000D+00 -1.0748612001014D-02  1.1673793336705D-01
137  1.3600000000000D+00 -9.3321811063491D-03  9.8482615987079D-02
138  1.3700000000000D+00 -7.8666165699383D-03  8.1172875046994D-02
139  1.3800000000000D+00 -6.4144264352318D-03  6.5061488106253D-02
140  1.3900000000000D+00 -5.0308338771035D-03  5.0375551524193D-02
141  1.4000000000000D+00 -3.7675880832998D-03  3.7328862257318D-02
142  1.4100000000000D+00 -2.6586794179240D-03  2.6073157600955D-02
143  1.4200000000000D+00 -1.7379686980841D-03  1.6759973476654D-02
144  1.4300000000000D+00 -1.0226718534034D-03  9.4837354660911D-03
145  1.4400000000000D+00 -5.2182076760477D-04  4.3116344416536D-03
146  1.4500000000000D+00 -2.6156800069089D-04  1.4968331995387D-03
147  1.4600000000000D+00 -1.4265458343136D-04  3.2314433692605D-04
148  1.4700000000000D+00 -4.0639103067783D-05 -3.5986594361781D-05
149  1.4800000000000D+00  7.3445693896619D-06 -1.8566879499086D-05
150  1.4900000000000D+00  6.2439103036108D-06 -1.5784442090428D-05
151  1.5000000000000D+00  0.0000000000000D+00  0.0000000000000D+00
152  1.5100000000000D+00  0.0000000000000D+00  0.0000000000000D+00
153  1.5200000000000D+00  0.0000000000000D+00  0.0000000000000D+00
154  1.5300000000000D+00  0.0000000000000D+00  0.0000000000000D+00
155  1.5400000000000D+00  0.0000000000000D+00  0.0000000000000D+00
156  1.5500000000000D+00  0.0000000000000D+00  0.0000000000000D+00
157  1.5600000000000D+00  0.0000000000000D+00  0.0000000000000D+00
158  1.5700000000000D+00  0.0000000000000D+00  0.0000000000000D+00
159  1.5800000000000D+00  0.0000000000000D+00  0.0000000000000D+00
160  1.5900000000000D+00  0.0000000000000D+00  0.0000000000000D+00
161  1.6000000000000D+00  0.0000000000000D+00  0.0000000000000D+00
162  1.6100000000000D+00  0.0000000000000D+00  0.0000000000000D+00
163  1.6200000000000D+00  0.0000000000000D+00  0.0000000000000D+00
164  1.6300000000000D+00  0.0000000000000D+00  0.0000000000000D+00
165  1.6400000000000D+00  0.0000000000000D+00  0.0000000000000D+00
166  1.6500000000000D+00  0.0000000000000D+00  0.0000000000000D+00
167  1.6600000000000D+00  0.0000000000000D+00  0.0000000000000D+00
168  1.6700000000000D+00  0.0000000000000D+00  0.0000000000000D+00
169  1.6800000000000D+00  0.0000000000000D+00  0.0000000000000D+00
170  1.6900000000000D+00  0.0000000000000D+00  0.0000000000000D+00
171  1.7000000000000D+00  0.0000000000000D+00  0.0000000000000D+00
172  1.7100000000000D+00  0.0000000000000D+00  0.0000000000000D+00
173  1.7200000000000D+00  0.0000000000000D+00  0.0000000000000D+00
174  1.7300000000000D+00  0.0000000000000D+00  0.0000000000000D+00
175  1.7400000000000D+00  0.0000000000000D+00  0.0000000000000D+00
176  1.7500000000000D+00  0.0000000000000D+00  0.0000000000000D+00
177  1.7600000000000D+00  0.0000000000000D+00  0.0000000000000D+00
178  1.7700000000000D+00  0.0000000000000D+00  0.0000000000000D+00
179  1.7800000000000D+00  0.0000000000000D+00  0.0000000000000D+00
180  1.7900000000000D+00  0.0000000000000D+00  0.0000000000000D+00
181  1.8000000000000D+00  0.0000000000000D+00  0.0000000000000D+00
182  1.8100000000000D+00  0.0000000000000D+00  0.0000000000000D+00
183  1.8200000000000D+00  0.0000000000000D+00  0.0000000000000D+00
184  1.8300000000000D+00  0.0000000000000D+00  0.0000000000000D+00
185  1.8400000000000D+00  0.0000000000000D+00  0.0000000000000D+00
186  1.8500000000000D+00  0.0000000000000D+00  0.0000000000000D+00
187  1.8600000000000D+00  0.0000000000000D+00  0.0000000000000D+00
188  1.8700000000000D+00  0.0000000000000D+00  0.0000000000000D+00
189  1.8800000000000D+00  0.0000000000000D+00  0.0000000000000D+00
190  1.8900000000000D+00  0.0000000000000D+00  0.0000000000000D+00
191  1.9000000000000D+00  0.0000000000000D+00  0.0000000000000D+00
192  1.9100000000000D+00  0.0000000000000D+00  0.0000000000000D+00
193  1.9200000000000D+00  0.0000000000000D+00  0.0000000000000D+00
194  1.9300000000000D+00  0.0000000000000D+00  0.0000000000000D+00
195  1.9400000000000D+00  0.0000000000000D+00  0.0000000000000D+00
196  1.9500000000000D+00  0.0000000000000D+00  0.0000000000000D+00
197  1.9600000000000D+00  0.0000000000000D+00  0.0000000000000D+00
198  1.9700000000000D+00  0.0000000000000D+00  0.0000000000000D+00
199  1.9800000000000D+00  0.0000000000000D+00  0.0000000000000D+00
200  1.9900000000000D+00  0.0000000000000D+00  0.0000000000000D+00
201  2.0000000000000D+00  0.0000000000000D+00  0.0000000000000D+00
202  2.0100000000000D+00  0.0000000000000D+00  0.0000000000000D+00
203  2.0200000000000D+00  0.0000000000000D+00  0.0000000000000D+00
204  2.0300000000000D+00  0.0000000000000D+00  0.0000000000000D+00
205  2.0400000000000D+00  0.0000000000000D+00  0.0000000000000D+00
206  2.0500000000000D+00  0.0000000000000D+00  0.0000000000000D+00
207  2.0600000000000D+00  0.0000000000000D+00  0.0000000000000D+00
208  2.0700000000000D+00  0.0000000000000D+00  0.0000000000000D+00
209  2.0800000000000D+00  0.0000000000000D+00  0.0000000000000D+00
210  2.0900000000000D+00  0.0000000000000D+00  0.0000000000000D+00
211  2.1000000000000D+00  0.0000000000000D+00  0.0000000000000D+00
212  2.1100000000000D+00  0.0000000000000D+00  0.0000000000000D+00
213  2.1200000000000D+00  0.0000000000000D+00  0.0000000000000D+00
214  2.1300000000000D+00  0.0000000000000D+00  0.0000000000000D+00
215  2.1400000000000D+00  0.0000000000000D+00  0.0000000000000D+00
216  2.1500000000000D+00  0.0000000000000D+00  0.0000000000000D+00
217  2.1600000000000D+00  0.0000000000000D+00  0.0000000000000D+00
218  2.1700000000000D+00  0.0000000000000D+00  0.0000000000000D+00
219  2.1800000000000D+00  0.0000000000000D+00  0.0000000000000D+00
220  2.1900000000000D+00  0.0000000000000D+00  0.0000000000000D+00
221  2.2000000000000D+00  0.0000000000000D+00  0.0000000000000D+00
222  2.2100000000000D+00  0.0000000000000D+00  0.0000000000000D+00
223  2.2200000000000D+00  0.0000000000000D+00  0.0000000000000D+00
224  2.2300000000000D+00  0.0000000000000D+00  0.0000000000000D+00
225  2.2400000000000D+00  0.0000000000000D+00  0.0000000000000D+00
226  2.2500000000000D+00  0.0000000000000D+00  0.0000000000000D+00
227  2.2600000000000D+00  0.0000000000000D+00  0.0000000000000D+00
228  2.2700000000000D+00  0.0000000000000D+00  0.0000000000000D+00
229  2.2800000000000D+00  0.0000000000000D+00  0.0000000000000D+00
230  2.2900000000000D+00  0.0000000000000D+00  0.0000000000000D+00
231  2.3000000000000D+00  0.0000000000000D+00  0.0000000000000D+00
232  2.3100000000000D+00  0.0000000000000D+00  0.0000000000000D+00
233  2.3200000000000D+00  0.0000000000000D+00  0.0000000000000D+00
234  2.3300000000000D+00  0.0000000000000D+00  0.0000000000000D+00
235  2.3400000000000D+00  0.0000000000000D+00  0.0000000000000D+00
236  2.3500000000000D+00  0.0000000000000D+00  0.0000000000000D+00
237  2.3600000000000D+00  0.0000000000000D+00  0.0000000000000D+00
238  2.3700000000000D+00  0.0000000000000D+00  0.0000000000000D+00
239  2.3800000000000D+00  0.0000000000000D+00  0.0000000000000D+00
240  2.3900000000000D+00  0.0000000000000D+00  0.0000000000000D+00
241  2.4000000000000D+00  0.0000000000000D+00  0.0000000000000D+00
242  2.4100000000000D+00  0.0000000000000D+00  0.0000000000000D+00
243  2.4200000000000D+00  0.0000000000000D+00  0.0000000000000D+00
244  2.4300000000000D+00  0.0000000000000D+00  0.0000000000000D+00
245  2.4400000000000D+00  0.0000000000000D+00  0.0000000000000D+00
246  2.4500000000000D+00  0.0000000000000D+00  0.0000000000000D+00
247  2.4600000000000D+00  0.0000000000000D+00  0.0000000000000D+00
248  2.4700000000000D+00  0.0000000000000D+00  0.0000000000000D+00
249  2.4800000000000D+00  0.0000000000000D+00  0.0000000000000D+00
250  2.4900000000000D+00  0.0000000000000D+00  0.0000000000000D+00
251  2.5000000000000D+00  0.0000000000000D+00  0.0000000000000D+00
252  2.5100000000000D+00  0.0000000000000D+00  0.0000000000000D+00
253  2.5200000000000D+00  0.0000000000000D+00  0.0000000000000D+00
254  2.5300000000000D+00  0.0000000000000D+00  0.0000000000000D+00
255  2.5400000000000D+00  0.0000000000000D+00  0.0000000000000D+00
256  2.5500000000000D+00  0.0000000000000D+00  0.0000000000000D+00
257  2.5600000000000D+00  0.0000000000000D+00  0.0000000000000D+00
258  2.5700000000000D+00  0.0000000000000D+00  0.0000000000000D+00
259  2.5800000000000D+00  0.0000000000000D+00  0.0000000000000D+00
260  2.5900000000000D+00  0.0000000000000D+00  0.0000000000000D+00
261  2.6000000000000D+00  0.0000000000000D+00  0.0000000000000D+00
262  2.6100000000000D+00  0.0000000000000D+00  0.0000000000000D+00
263  2.6200000000000D+00  0.0000000000000D+00  0.0000000000000D+00
264  2.6300000000000D+00  0.0000000000000D+00  0.0000000000000D+00
265  2.6400000000000D+00  0.0000000000000D+00  0.0000000000000D+00
266  2.6500000000000D+00  0.0000000000000D+00  0.0000000000000D+00
267  2.6600000000000D+00  0.0000000000000D+00  0.0000000000000D+00
268  2.6700000000000D+00  0.0000000000000D+00  0.0000000000000D+00
269  2.6800000000000D+00  0.0000000000000D+00  0.0000000000000D+00
270  2.6900000000000D+00  0.0000000000000D+00  0.0000000000000D+00
271  2.7000000000000D+00  0.0000000000000D+00  0.0000000000000D+00
272  2.7100000000000D+00  0.0000000000000D+00  0.0000000000000D+00
273  2.7200000000000D+00  0.0000000000000D+00  0.0000000000000D+00
274  2.7300000000000D+00  0.0000000000000D+00  0.0000000000000D+00
275  2.7400000000000D+00  0.0000000000000D+00  0.0000000000000D+00
276  2.7500000000000D+00  0.0000000000000D+00  0.0000000000000D+00
277  2.7600000000000D+00  0.0000000000000D+00  0.0000000000000D+00
278  2.7700000000000D+00  0.0000000000000D+00  0.0000000000000D+00
279  2.7800000000000D+00  0.0000000000000D+00  0.0000000000000D+00
280  2.7900000000000D+00  0.0000000000000D+00  0.0000000000000D+00
281  2.8000000000000D+00  0.0000000000000D+00  0.0000000000000D+00
282  2.8100000000000D+00  0.0000000000000D+00  0.0000000000000D+00
283  2.8200000000000D+00  0.0000000000000D+00  0.0000000000000D+00
284  2.8300000000000D+00  0.0000000000000D+00  0.0000000000000D+00
285  2.8400000000000D+00  0.0000000000000D+00  0.0000000000000D+00
286  2.8500000000000D+00  0.0000000000000D+00  0.0000000000000D+00
287  2.8600000000000D+00  0.0000000000000D+00  0.0000000000000D+00
288  2.8700000000000D+00  0.0000000000000D+00  0.0000000000000D+00
289  2.8800000000000D+00  0.0000000000000D+00  0.0000000000000D+00
290  2.8900000000000D+00  0.0000000000000D+00  0.0000000000000D+00
291  2.9000000000000D+00  0.0000000000000D+00  0.0000000000000D+00
292  2.9100000000000D+00  0.0000000000000D+00  0.0000000000000D+00
293  2.9200000000000D+00  0.0000000000000D+00  0.0000000000000D+00
294  2.9300000000000D+00  0.0000000000000D+00  0.0000000000000D+00
295  2.9400000000000D+00  0.0000000000000D+00  0.0000000000000D+00
296  2.9500000000000D+00  0.0000000000000D+00  0.0000000000000D+00
297  2.9600000000000D+00  0.0000000000000D+00  0.0000000000000D+00
298  2.9700000000000D+00  0.0000000000000D+00  0.0000000000000D+00
299  2.9800000000000D+00  0.0000000000000D+00  0.0000000000000D+00
300  2.9900000000000D+00  0.0000000000000D+00  0.0000000000000D+00
301  3.0000000000000D+00  0.0000000000000D+00  0.0000000000000D+00
302  3.0100000000000D+00  0.0000000000000D+00  0.0000000000000D+00
303  3.0200000000000D+00  0.0000000000000D+00  0.0000000000000D+00
304  3.0300000000000D+00  0.0000000000000D+00  0.0000000000000D+00
305  3.0400000000000D+00  0.0000000000000D+00  0.0000000000000D+00
306  3.0500000000000D+00  0.0000000000000D+00  0.0000000000000D+00
307  3.0600000000000D+00  0.0000000000000D+00  0.0000000000000D+00
308  3.0700000000000D+00  0.0000000000000D+00  0.0000000000000D+00
309  3.0800000000000D+00  0.0000000000000D+00  0.0000000000000D+00
310  3.0900000000000D+00  0.0000000000000D+00  0.0000000000000D+00
311  3.1000000000000D+00  0.0000000000000D+00  0.0000000000000D+00
312  3.1100000000000D+00  0.0000000000000D+00  0.0000000000000D+00
313  3.1200000000000D+00  0.0000000000000D+00  0.0000000000000D+00
314  3.1300000000000D+00  0.0000000000000D+00  0.0000000000000D+00
315  3.1400000000000D+00  0.0000000000000D+00  0.0000000000000D+00
316  3.1500000000000D+00  0.0000000000000D+00  0.0000000000000D+00
317  3.1600000000000D+00  0.0000000000000D+00  0.0000000000000D+00
318  3.1700000000000D+00  0.0000000000000D+00  0.0000000000000D+00
319  3.1800000000000D+00  0.0000000000000D+00  0.0000000000000D+00
320  3.1900000000000D+00  0.0000000000000D+00  0.0000000000000D+00
321  3.2000000000000D+00  0.0000000000000D+00  0.0000000000000D+00
322  3.2100000000000D+00  0.0000000000000D+00  0.0000000000000D+00
323  3.2200000000000D+00  0.0000000000000D+00  0.0000000000000D+00
324  3.2300000000000D+00  0.0000000000000D+00  0.0000000000000D+00
325  3.2400000000000D+00  0.0000000000000D+00  0.0000000000000D+00
326  3.2500000000000D+00  0.0000000000000D+00  0.0000000000000D+00
327  3.2600000000000D+00  0.0000000000000D+00  0.0000000000000D+00
328  3.2700000000000D+00  0.0000000000000D+00  0.0000000000000D+00
329  3.2800000000000D+00  0.0000000000000D+00  0.0000000000000D+00
330  3.2900000000000D+00  0.0000000000000D+00  0.0000000000000D+00
331  3.3000000000000D+00  0.0000000000000D+00  0.0000000000000D+00
332  3.3100000000000D+00  0.0000000000000D+00  0.0000000000000D+00
333  3.3200000000000D+00  0.0000000000000D+00  0.0000000000000D+00
334  3.3300000000000D+00  0.0000000000000D+00  0.0000000000000D+00
335  3.3400000000000D+00  0.0000000000000D+00  0.0000000000000D+00
336  3.3500000000000D+00  0.0000000000000D+00  0.0000000000000D+00
337  3.3600000000000D+00  0.0000000000000D+00  0.0000000000000D+00
338  3.3700000000000D+00  0.0000000000000D+00  0.0000000000000D+00
339  3.3800000000000D+00  0.0000000000000D+00  0.0000000000000D+00
340  3.3900000000000D+00  0.0000000000000D+00  0.0000000000000D+00
341  3.4000000000000D+00  0.0000000000000D+00  0.0000000000000D+00
342  3.4100000000000D+00  0.0000000000000D+00  0.0000000000000D+00
343  3.4200000000000D+00  0.0000000000000D+00  0.0000000000000D+00
344  3.4300000000000D+00  0.0000000000000D+00  0.0000000000000D+00
345  3.4400000000000D+00  0.0000000000000D+00  0.0000000000000D+00
346  3.4500000000000D+00  0.0000000000000D+00  0.0000000000000D+00
347  3.4600000000000D+00  0.0000000000000D+00  0.0000000000000D+00
348  3.4700000000000D+00  0.0000000000000D+00  0.0000000000000D+00
349  3.4800000000000D+00  0.0000000000000D+00  0.0000000000000D+00
350  3.4900000000000D+00  0.0000000000000D+00  0.0000000000000D+00
351  3.5000000000000D+00  0.0000000000000D+00  0.0000000000000D+00
352  3.5100000000000D+00  0.0000000000000D+00  0.0000000000000D+00
353  3.5200000000000D+00  0.0000000000000D+00  0.0000000000000D+00
354  3.5300000000000D+00  0.0000000000000D+00  0.0000000000000D+00
355  3.5400000000000D+00  0.0000000000000D+00  0.0000000000000D+00
356  3.5500000000000D+00  0.0000000000000D+00  0.0000000000000D+00
357  3.5600000000000D+00  0.0000000000000D+00  0.0000000000000D+00
358  3.5700000000000D+00  0.0000000000000D+00  0.0000000000000D+00
359  3.5800000000000D+00  0.0000000000000D+00  0.0000000000000D+00
360  3.5900000000000D+00  0.0000000000000D+00  0.0000000000000D+00
361  3.6000000000000D+00  0.0000000000000D+00  0.0000000000000D+00
362  3.6100000000000D+00  0.0000000000000D+00  0.0000000000000D+00
363  3.6200000000000D+00  0.0000000000000D+00  0.0000000000000D+00
364  3.6300000000000D+00  0.0000000000000D+00  0.0000000000000D+00
365  3.6400000000000D+00  0.0000000000000D+00  0.0000000000000D+00
366  3.6500000000000D+00  0.0000000000000D+00  0.0000000000000D+00
367  3.6600000000000D+00  0.0000000000000D+00  0.0000000000000D+00
368  3.6700000000000D+00  0.0000000000000D+00  0.0000000000000D+00
369  3.6800000000000D+00  0.0000000000000D+00  0.0000000000000D+00
370  3.6900000000000D+00  0.0000000000000D+00  0.0000000000000D+00
371  3.7000000000000D+00  0.0000000000000D+00  0.0000000000000D+00
372  3.7100000000000D+00  0.0000000000000D+00  0.0000000000000D+00
373  3.7200000000000D+00  0.0000000000000D+00  0.0000000000000D+00
374  3.7300000000000D+00  0.0000000000000D+00  0.0000000000000D+00
375  3.7400000000000D+00  0.0000000000000D+00  0.0000000000000D+00
376  3.7500000000000D+00  0.0000000000000D+00  0.0000000000000D+00
377  3.7600000000000D+00  0.0000000000000D+00  0.0000000000000D+00
378  3.7700000000000D+00  0.0000000000000D+00  0.0000000000000D+00
379  3.7800000000000D+00  0.0000000000000D+00  0.0000000000000D+00
380  3.7900000000000D+00  0.0000000000000D+00  0.0000000000000D+00
381  3.8000000000000D+00  0.0000000000000D+00  0.0000000000000D+00
382  3.8100000000000D+00  0.0000000000000D+00  0.0000000000000D+00
383  3.8200000000000D+00  0.0000000000000D+00  0.0000000000000D+00
384  3.8300000000000D+00  0.0000000000000D+00  0.0000000000000D+00
385  3.8400000000000D+00  0.0000000000000D+00  0.0000000000000D+00
386  3.8500000000000D+00  0.0000000000000D+00  0.0000000000000D+00
387  3.8600000000000D+00  0.0000000000000D+00  0.0000000000000D+00
388  3.8700000000000D+00  0.0000000000000D+00  0.0000000000000D+00
389  3.8800000000000D+00  0.0000000000000D+00  0.0000000000000D+00
390  3.8900000000000D+00  0.0000000000000D+00  0.0000000000000D+00
391  3.9000000000000D+00  0.0000000000000D+00  0.0000000000000D+00
392  3.9100000000000D+00  0.0000000000000D+00  0.0000000000000D+00
393  3.9200000000000D+00  0.0000000000000D+00  0.0000000000000D+00
394  3.9300000000000D+00  0.0000000000000D+00  0.0000000000000D+00
395  3.9400000000000D+00  0.0000000000000D+00  0.0000000000000D+00
396  3.9500000000000D+00  0.0000000000000D+00  0.0000000000000D+00
397  3.9600000000000D+00  0.0000000000000D+00  0.0000000000000D+00
398  3.9700000000000D+00  0.0000000000000D+00  0.0000000000000D+00
399  3.9800000000000D+00  0.0000000000000D+00  0.0000000000000D+00
400  3.9900000000000D+00  0.0000000000000D+00  0.0000000000000D+00
401  4.0000000000000D+00  0.0000000000000D+00  0.0000000000000D+00
402  4.0100000000000D+00  0.0000000000000D+00  0.0000000000000D+00
403  4.0200000000000D+00  0.0000000000000D+00  0.0000000000000D+00
404  4.0300000000000D+00  0.0000000000000D+00  0.0000000000000D+00
405  4.0400000000000D+00  0.0000000000000D+00  0.0000000000000D+00
406  4.0500000000000D+00  0.0000000000000D+00  0.0000000000000D+00
407  4.0600000000000D+00  0.0000000000000D+00  0.0000000000000D+00
408  4.0700000000000D+00  0.0000000000000D+00  0.0000000000000D+00
409  4.0800000000000D+00  0.0000000000000D+00  0.0000000000000D+00
410  4.0900000000000D+00  0.0000000000000D+00  0.0000000000000D+00
411  4.1000000000000D+00  0.0000000000000D+00  0.0000000000000D+00
412  4.1100000000000D+00  0.0000000000000D+00  0.0000000000000D+00
413  4.1200000000000D+00  0.0000000000000D+00  0.0000000000000D+00
414  4.1300000000000D+00  0.0000000000000D+00  0.0000000000000D+00
415  4.1400000000000D+00  0.0000000000000D+00  0.0000000000000D+00
416  4.1500000000000D+00  0.0000000000000D+00  0.0000000000000D+00
417  4.1600000000000D+00  0.0000000000000D+00  0.0000000000000D+00
418  4.1700000000000D+00  0.0000000000000D+00  0.0000000000000D+00
419  4.1800000000000D+00  0.0000000000000D+00  0.0000000000000D+00
420  4.1900000000000D+00  0.0000000000000D+00  0.0000000000000D+00
421  4.2000000000000D+00  0.0000000000000D+00  0.0000000000000D+00
422  4.2100000000000D+00  0.0000000000000D+00  0.0000000000000D+00
423  4.2200000000000D+00  0.0000000000000D+00  0.0000000000000D+00
424  4.2300000000000D+00  0.0000000000000D+00  0.0000000000000D+00
425  4.2400000000000D+00  0.0000000000000D+00  0.0000000000000D+00
426  4.2500000000000D+00  0.0000000000000D+00  0.0000000000000D+00
427  4.2600000000000D+00  0.0000000000000D+00  0.0000000000000D+00
428  4.2700000000000D+00  0.0000000000000D+00  0.0000000000000D+00
429  4.2800000000000D+00  0.0000000000000D+00  0.0000000000000D+00
430  4.2900000000000D+00  0.0000000000000D+00  0.0000000000000D+00
431  4.3000000000000D+00  0.0000000000000D+00  0.0000000000000D+00
432  4.3100000000000D+00  0.0000000000000D+00  0.0000000000000D+00
433  4.3200000000000D+00  0.0000000000000D+00  0.0000000000000D+00
434  4.3300000000000D+00  0.0000000000000D+00  0.0000000000000D+00
435  4.3400000000000D+00  0.0000000000000D+00  0.0000000000000D+00
436  4.3500000000000D+00  0.0000000000000D+00  0.0000000000000D+00
437  4.3600000000000D+00  0.0000000000000D+00  0.0000000000000D+00
438  4.3700000000000D+00  0.0000000000000D+00  0.0000000000000D+00
439  4.3800000000000D+00  0.0000000000000D+00  0.0000000000000D+00
440  4.3900000000000D+00  0.0000000000000D+00  0.0000000000000D+00
441  4.4000000000000D+00  0.0000000000000D+00  0.0000000000000D+00
442  4.4100000000000D+00  0.0000000000000D+00  0.0000000000000D+00
443  4.4200000000000D+00  0.0000000000000D+00  0.0000000000000D+00
444  4.4300000000000D+00  0.0000000000000D+00  0.0000000000000D+00