Rh    ONCVPSP  r_core=  1.31  1.36  1.31
45.0000     17.0000      150116    zatom,zion,pspd
8    11     2     4   601     0    pspcod,pspxc,lmax,lloc,mmax,r2well
6.00000000  0.06000000  0.00000000    rchrg fchrg qchrg
2     2     2     0     0    nproj
0                 extension_switch
0                         1.8730949886550D+01  1.4065324531387D+00
1  0.0000000000000D+00 -0.0000000000000D+00  0.0000000000000D+00
2  1.0000000000000D-02 -8.0661065881764D-02  3.1414317650244D-02
3  2.0000000000000D-02 -1.6116216188790D-01  6.2761372736754D-02
4  3.0000000000000D-02 -2.4134323111606D-01  9.3972414867696D-02
5  4.0000000000000D-02 -3.2104405023055D-01  1.2497574692841D-01
6  5.0000000000000D-02 -4.0010416518360D-01  1.5569532366743D-01
7  6.0000000000000D-02 -4.7836284934976D-01  1.8604943554501D-01
8  7.0000000000000D-02 -5.5565909102744D-01  2.1594950448160D-01
9  8.0000000000000D-02 -6.3183161682652D-01  2.4529901665449D-01
10  9.0000000000000D-02 -7.0671895692667D-01  2.7399261563736D-01
11  1.0000000000000D-01 -7.8015955756430D-01  3.0191537702579D-01
12  1.1000000000000D-01 -8.5199194539210D-01  3.2894228323613D-01
13  1.2000000000000D-01 -9.2205494756924D-01  3.5493791442358D-01
14  1.3000000000000D-01 -9.9018797058650D-01  3.7975636852964D-01
15  1.4000000000000D-01 -1.0562313398902D+00  4.0324142030552D-01
16  1.5000000000000D-01 -1.1200267014914D+00  4.2522692581603D-01
17  1.6000000000000D-01 -1.1814174855842D+00  4.4553747548432D-01
18  1.7000000000000D-01 -1.2402494314555D+00  4.6398929529593D-01
19  1.8000000000000D-01 -1.2963711715385D+00  4.8039139190936D-01
20  1.9000000000000D-01 -1.3496348721834D+00  4.9454693484933D-01
21  2.0000000000000D-01 -1.3998969259701D+00  5.0625486242052D-01
22  2.1000000000000D-01 -1.4470186931359D+00  5.1531170159555D-01
23  2.2000000000000D-01 -1.4908672828673D+00  5.2151357732553D-01
24  2.3000000000000D-01 -1.5313163709519D+00  5.2465839686043D-01
25  2.4000000000000D-01 -1.5682470430908D+00  5.2454817810799D-01
26  2.5000000000000D-01 -1.6015486611254D+00  5.2099150928155D-01
27  2.6000000000000D-01 -1.6311197327587D+00  5.1380608422936D-01
28  2.7000000000000D-01 -1.6568687910520D+00  5.0282132345910D-01
29  2.8000000000000D-01 -1.6787152556176D+00  4.8788100044638D-01
30  2.9000000000000D-01 -1.6965902801247D+00  4.6884587891885D-01
31  3.0000000000000D-01 -1.7104375684179D+00  4.4559630726307D-01
32  3.1000000000000D-01 -1.7202141500338D+00  4.1803473830701D-01
33  3.2000000000000D-01 -1.7258911007153D+00  3.8608812713818D-01
34  3.3000000000000D-01 -1.7274542112139D+00  3.4971021357237D-01
35  3.4000000000000D-01 -1.7249045777965D+00  3.0888360618873D-01
36  3.5000000000000D-01 -1.7182591017684D+00  2.6362162179709D-01
37  3.6000000000000D-01 -1.7075509270125D+00  2.1396997320831D-01
38  3.7000000000000D-01 -1.6928297486147D+00  1.6000808811556D-01
39  3.8000000000000D-01 -1.6741620219950D+00  1.0185014817454D-01
40  3.9000000000000D-01 -1.6516310850111D+00  3.9645897269070D-02
41  4.0000000000000D-01 -1.6253371235413D+00 -2.6419022814874D-02
42  4.1000000000000D-01 -1.5953970351838D+00 -9.6123023331285D-02
43  4.2000000000000D-01 -1.5619441627170D+00 -1.6920890317529D-01
44  4.3000000000000D-01 -1.5251278975262D+00 -2.4538456849467D-01
45  4.4000000000000D-01 -1.4851131528963D+00 -3.2432413927496D-01
46  4.5000000000000D-01 -1.4420797076194D+00 -4.0566944318573D-01
47  4.6000000000000D-01 -1.3962214217318D+00 -4.8903189256571D-01
48  4.7000000000000D-01 -1.3477453279066D+00 -5.7399473509777D-01
49  4.8000000000000D-01 -1.2968706189498D+00 -6.6011563191189D-01
50  4.9000000000000D-01 -1.2438274753662D+00 -7.4692966347820D-01
51  5.0000000000000D-01 -1.1888558291413D+00 -8.3395259091311D-01
52  5.1000000000000D-01 -1.1322040422157D+00 -9.2068435981344D-01
53  5.2000000000000D-01 -1.0741274682842D+00 -1.0066129280087D+00
54  5.3000000000000D-01 -1.0148868474636D+00 -1.0912185557154D+00
55  5.4000000000000D-01 -9.5474694035468D-01 -1.1739775370216D+00
56  5.5000000000000D-01 -8.9397462680278D-01 -1.2543672662535D+00
57  5.6000000000000D-01 -8.3283749422636D-01 -1.3318701075763D+00
58  5.7000000000000D-01 -7.7160195166115D-01 -1.4059784452133D+00
59  5.8000000000000D-01 -7.1053169119240D-01 -1.4761988503311D+00
60  5.9000000000000D-01 -6.4988577563005D-01 -1.5420571822663D+00
61  6.0000000000000D-01 -5.8991735967934D-01 -1.6031020271119D+00
62  6.1000000000000D-01 -5.3087140735097D-01 -1.6589106995401D+00
63  6.2000000000000D-01 -4.7298393061443D-01 -1.7090912507351D+00
64  6.3000000000000D-01 -4.1647972140955D-01 -1.7532883343494D+00
65  6.4000000000000D-01 -3.6157123185618D-01 -1.7911860257018D+00
66  6.5000000000000D-01 -3.0845757390393D-01 -1.8225102736977D+00
67  6.6000000000000D-01 -2.5732259642909D-01 -1.8470336466134D+00
68  6.7000000000000D-01 -2.0833414360508D-01 -1.8645769446823D+00
69  6.8000000000000D-01 -1.6164318103830D-01 -1.8750110752335D+00
70  6.9000000000000D-01 -1.1738310648812D-01 -1.8782583862913D+00
71  7.0000000000000D-01 -7.5668254768054D-02 -1.8742958536096D+00
72  7.1000000000000D-01 -3.6594157738930D-02 -1.8631538065538D+00
73  7.2000000000000D-01 -2.3695827543387D-04 -1.8449166495944D+00
74  7.3000000000000D-01  3.3346805971694D-02 -1.8197225453114D+00
75  7.4000000000000D-01  6.4120143609928D-02 -1.7877623390560D+00
76  7.5000000000000D-01  9.2065724343149D-02 -1.7492786913924D+00
77  7.6000000000000D-01  1.1718544639512D-01 -1.7045638238651D+00
78  7.7000000000000D-01  1.3949985845775D-01 -1.6539568579230D+00
79  7.8000000000000D-01  1.5904760541096D-01 -1.5978410461892D+00
80  7.9000000000000D-01  1.7588464781328D-01 -1.5366403844842D+00
81  8.0000000000000D-01  1.9008333640698D-01 -1.4708157947384D+00
82  8.1000000000000D-01  2.0173135177184D-01 -1.4008609164098D+00
83  8.2000000000000D-01  2.1093052071950D-01 -1.3272975488166D+00
84  8.3000000000000D-01  2.1779552233855D-01 -1.2506707911033D+00
85  8.4000000000000D-01  2.2245249777336D-01 -1.1715439303640D+00
86  8.5000000000000D-01  2.2503757884058D-01 -1.0904931317171D+00
87  8.6000000000000D-01  2.2569535145484D-01 -1.0081019868667D+00
88  8.7000000000000D-01  2.2457727054806D-01 -9.2495597987324D-01
89  8.8000000000000D-01  2.2184004372305D-01 -8.4163693049174D-01
90  8.9000000000000D-01  2.1764400127797D-01 -7.5871747649282D-01
91  9.0000000000000D-01  2.1215147046630D-01 -6.7675565682685D-01
92  9.1000000000000D-01  2.0552517190314D-01 -5.9628965727308D-01
93  9.2000000000000D-01  1.9792665587339D-01 -5.1783277925032D-01
94  9.3000000000000D-01  1.8951479591351D-01 -4.4186869065593D-01
95  9.4000000000000D-01  1.8044435639308D-01 -3.6884701482126D-01
96  9.5000000000000D-01  1.7086464987744D-01 -2.9917930979099D-01
97  9.6000000000000D-01  1.6091870241053D-01 -2.3323698033360D-01
98  9.7000000000000D-01  1.5074106828922D-01 -1.7134414725932D-01
99  9.8000000000000D-01  1.4045757006879D-01 -1.1377793284654D-01
100  9.9000000000000D-01  1.3018441084435D-01 -6.0766254405113D-02
101  1.0000000000000D+00  1.2002737793371D-01 -1.2486023716787D-02
102  1.0100000000000D+00  1.1008128832894D-01  3.0937731588175D-02
103  1.0200000000000D+00  1.0042967670754D-01  6.9431876554353D-02
104  1.0300000000000D+00  9.1145071296629D-02  1.0297330389743D-01
105  1.0400000000000D+00  8.2286619976981D-02  1.3159535404176D-01
106  1.0500000000000D+00  7.3902579638645D-02  1.5537836669648D-01
107  1.0600000000000D+00  6.6029800062549D-02  1.7445013179392D-01
108  1.0700000000000D+00  5.8694129936257D-02  1.8898324307529D-01
109  1.0800000000000D+00  5.1911616182479D-02  1.9919053721821D-01
110  1.0900000000000D+00  4.5686459726736D-02  2.0532826770874D-01
111  1.1000000000000D+00  4.0014718748002D-02  2.0768413710481D-01
112  1.1100000000000D+00  3.4884267963860D-02  2.0657558409524D-01
113  1.1200000000000D+00  3.0276023953755D-02  2.0234551252837D-01
114  1.1300000000000D+00  2.6163723029192D-02  1.9535866001014D-01
115  1.1400000000000D+00  2.2516322618821D-02  1.8599347474039D-01
116  1.1500000000000D+00  1.9299084841181D-02  1.7463792117203D-01
117  1.1600000000000D+00  1.6474223847063D-02  1.6168791896243D-01
118  1.1700000000000D+00  1.4002315841110D-02  1.4753464776670D-01
119  1.1800000000000D+00  1.1843942398987D-02  1.3256281853114D-01
120  1.1900000000000D+00  9.9601185714403D-03  1.1714894395268D-01
121  1.2000000000000D+00  8.3132915968090D-03  1.0165543623341D-01
122  1.2100000000000D+00  6.8701616061304D-03  8.6415095127940D-02
123  1.2200000000000D+00  5.6007606436781D-03  7.1740436710147D-02
124  1.2300000000000D+00  4.4780569282732D-03  5.7926050629072D-02
125  1.2400000000000D+00  3.4837575152311D-03  4.5214238117272D-02
126  1.2500000000000D+00  2.6042531395213D-03  3.3821666222517D-02
127  1.2600000000000D+00  1.8303173577860D-03  2.3940808064687D-02
128  1.2700000000000D+00  1.1633135694905D-03  1.5703310558277D-02
129  1.2800000000000D+00  6.0997121456280D-04  9.2109226946711D-03
130  1.2900000000000D+00  1.8164836699590D-04  4.5403133444301D-03
131  1.3000000000000D+00 -9.6326289940598D-05  1.8331312779810D-03
132  1.3100000000000D+00 -2.0695568622299D-04  7.2775624956651D-04
133  1.3200000000000D+00 -9.6696606215490D-05  1.4756962844685D-04
134  1.3300000000000D+00  1.1280063907696D-05 -3.7356841510972D-05
135  1.3400000000000D+00  5.0993210156117D-06 -1.6887716998111D-05
136  1.3500000000000D+00  0.0000000000000D+00  0.0000000000000D+00
137  1.3600000000000D+00  0.0000000000000D+00  0.0000000000000D+00
138  1.3700000000000D+00  0.0000000000000D+00  0.0000000000000D+00
139  1.3800000000000D+00  0.0000000000000D+00  0.0000000000000D+00
140  1.3900000000000D+00  0.0000000000000D+00  0.0000000000000D+00
141  1.4000000000000D+00  0.0000000000000D+00  0.0000000000000D+00
142  1.4100000000000D+00  0.0000000000000D+00  0.0000000000000D+00
143  1.4200000000000D+00  0.0000000000000D+00  0.0000000000000D+00
144  1.4300000000000D+00  0.0000000000000D+00  0.0000000000000D+00
145  1.4400000000000D+00  0.0000000000000D+00  0.0000000000000D+00
146  1.4500000000000D+00  0.0000000000000D+00  0.0000000000000D+00
147  1.4600000000000D+00  0.0000000000000D+00  0.0000000000000D+00
148  1.4700000000000D+00  0.0000000000000D+00  0.0000000000000D+00
149  1.4800000000000D+00  0.0000000000000D+00  0.0000000000000D+00
150  1.4900000000000D+00  0.0000000000000D+00  0.0000000000000D+00
151  1.5000000000000D+00  0.0000000000000D+00  0.0000000000000D+00
152  1.5100000000000D+00  0.0000000000000D+00  0.0000000000000D+00
153  1.5200000000000D+00  0.0000000000000D+00  0.0000000000000D+00
154  1.5300000000000D+00  0.0000000000000D+00  0.0000000000000D+00
155  1.5400000000000D+00  0.0000000000000D+00  0.0000000000000D+00
156  1.5500000000000D+00  0.0000000000000D+00  0.0000000000000D+00
157  1.5600000000000D+00  0.0000000000000D+00  0.0000000000000D+00
158  1.5700000000000D+00  0.0000000000000D+00  0.0000000000000D+00
159  1.5800000000000D+00  0.0000000000000D+00  0.0000000000000D+00
160  1.5900000000000D+00  0.0000000000000D+00  0.0000000000000D+00
161  1.6000000000000D+00  0.0000000000000D+00  0.0000000000000D+00
162  1.6100000000000D+00  0.0000000000000D+00  0.0000000000000D+00
163  1.6200000000000D+00  0.0000000000000D+00  0.0000000000000D+00
164  1.6300000000000D+00  0.0000000000000D+00  0.0000000000000D+00
165  1.6400000000000D+00  0.0000000000000D+00  0.0000000000000D+00
166  1.6500000000000D+00  0.0000000000000D+00  0.0000000000000D+00
167  1.6600000000000D+00  0.0000000000000D+00  0.0000000000000D+00
168  1.6700000000000D+00  0.0000000000000D+00  0.0000000000000D+00
169  1.6800000000000D+00  0.0000000000000D+00  0.0000000000000D+00
170  1.6900000000000D+00  0.0000000000000D+00  0.0000000000000D+00
171  1.7000000000000D+00  0.0000000000000D+00  0.0000000000000D+00
172  1.7100000000000D+00  0.0000000000000D+00  0.0000000000000D+00
173  1.7200000000000D+00  0.0000000000000D+00  0.0000000000000D+00
174  1.7300000000000D+00  0.0000000000000D+00  0.0000000000000D+00
175  1.7400000000000D+00  0.0000000000000D+00  0.0000000000000D+00
176  1.7500000000000D+00  0.0000000000000D+00  0.0000000000000D+00
177  1.7600000000000D+00  0.0000000000000D+00  0.0000000000000D+00
178  1.7700000000000D+00  0.0000000000000D+00  0.0000000000000D+00
179  1.7800000000000D+00  0.0000000000000D+00  0.0000000000000D+00
180  1.7900000000000D+00  0.0000000000000D+00  0.0000000000000D+00
181  1.8000000000000D+00  0.0000000000000D+00  0.0000000000000D+00
182  1.8100000000000D+00  0.0000000000000D+00  0.0000000000000D+00
183  1.8200000000000D+00  0.0000000000000D+00  0.0000000000000D+00
184  1.8300000000000D+00  0.0000000000000D+00  0.0000000000000D+00
185  1.8400000000000D+00  0.0000000000000D+00  0.0000000000000D+00
186  1.8500000000000D+00  0.0000000000000D+00  0.0000000000000D+00
187  1.8600000000000D+00  0.0000000000000D+00  0.0000000000000D+00
188  1.8700000000000D+00  0.0000000000000D+00  0.0000000000000D+00
189  1.8800000000000D+00  0.0000000000000D+00  0.0000000000000D+00
190  1.8900000000000D+00  0.0000000000000D+00  0.0000000000000D+00
191  1.9000000000000D+00  0.0000000000000D+00  0.0000000000000D+00
192  1.9100000000000D+00  0.0000000000000D+00  0.0000000000000D+00
193  1.9200000000000D+00  0.0000000000000D+00  0.0000000000000D+00
194  1.9300000000000D+00  0.0000000000000D+00  0.0000000000000D+00
195  1.9400000000000D+00  0.0000000000000D+00  0.0000000000000D+00
196  1.9500000000000D+00  0.0000000000000D+00  0.0000000000000D+00
197  1.9600000000000D+00  0.0000000000000D+00  0.0000000000000D+00
198  1.9700000000000D+00  0.0000000000000D+00  0.0000000000000D+00
199  1.9800000000000D+00  0.0000000000000D+00  0.0000000000000D+00
200  1.9900000000000D+00  0.0000000000000D+00  0.0000000000000D+00
201  2.0000000000000D+00  0.0000000000000D+00  0.0000000000000D+00
202  2.0100000000000D+00  0.0000000000000D+00  0.0000000000000D+00
203  2.0200000000000D+00  0.0000000000000D+00  0.0000000000000D+00
204  2.0300000000000D+00  0.0000000000000D+00  0.0000000000000D+00
205  2.0400000000000D+00  0.0000000000000D+00  0.0000000000000D+00
206  2.0500000000000D+00  0.0000000000000D+00  0.0000000000000D+00
207  2.0600000000000D+00  0.0000000000000D+00  0.0000000000000D+00
208  2.0700000000000D+00  0.0000000000000D+00  0.0000000000000D+00
209  2.0800000000000D+00  0.0000000000000D+00  0.0000000000000D+00
210  2.0900000000000D+00  0.0000000000000D+00  0.0000000000000D+00
211  2.1000000000000D+00  0.0000000000000D+00  0.0000000000000D+00
212  2.1100000000000D+00  0.0000000000000D+00  0.0000000000000D+00
213  2.1200000000000D+00  0.0000000000000D+00  0.0000000000000D+00
214  2.1300000000000D+00  0.0000000000000D+00  0.0000000000000D+00
215  2.1400000000000D+00  0.0000000000000D+00  0.0000000000000D+00
216  2.1500000000000D+00  0.0000000000000D+00  0.0000000000000D+00
217  2.1600000000000D+00  0.0000000000000D+00  0.0000000000000D+00
218  2.1700000000000D+00  0.0000000000000D+00  0.0000000000000D+00
219  2.1800000000000D+00  0.0000000000000D+00  0.0000000000000D+00
220  2.1900000000000D+00  0.0000000000000D+00  0.0000000000000D+00
221  2.2000000000000D+00  0.0000000000000D+00  0.0000000000000D+00
222  2.2100000000000D+00  0.0000000000000D+00  0.0000000000000D+00
223  2.2200000000000D+00  0.0000000000000D+00  0.0000000000000D+00
224  2.2300000000000D+00  0.0000000000000D+00  0.0000000000000D+00
225  2.2400000000000D+00  0.0000000000000D+00  0.0000000000000D+00
226  2.2500000000000D+00  0.0000000000000D+00  0.0000000000000D+00
227  2.2600000000000D+00  0.0000000000000D+00  0.0000000000000D+00
228  2.2700000000000D+00  0.0000000000000D+00  0.0000000000000D+00
229  2.2800000000000D+00  0.0000000000000D+00  0.0000000000000D+00
230  2.2900000000000D+00  0.0000000000000D+00  0.0000000000000D+00
231  2.3000000000000D+00  0.0000000000000D+00  0.0000000000000D+00
232  2.3100000000000D+00  0.0000000000000D+00  0.0000000000000D+00
233  2.3200000000000D+00  0.0000000000000D+00  0.0000000000000D+00
234  2.3300000000000D+00  0.0000000000000D+00  0.0000000000000D+00
235  2.3400000000000D+00  0.0000000000000D+00  0.0000000000000D+00
236  2.3500000000000D+00  0.0000000000000D+00  0.0000000000000D+00
237  2.3600000000000D+00  0.0000000000000D+00  0.0000000000000D+00
238  2.3700000000000D+00  0.0000000000000D+00  0.0000000000000D+00
239  2.3800000000000D+00  0.0000000000000D+00  0.0000000000000D+00
240  2.3900000000000D+00  0.0000000000000D+00  0.0000000000000D+00
241  2.4000000000000D+00  0.0000000000000D+00  0.0000000000000D+00
242  2.4100000000000D+00  0.0000000000000D+00  0.0000000000000D+00
243  2.4200000000000D+00  0.0000000000000D+00  0.0000000000000D+00
244  2.4300000000000D+00  0.0000000000000D+00  0.0000000000000D+00
245  2.4400000000000D+00  0.0000000000000D+00  0.0000000000000D+00
246  2.4500000000000D+00  0.0000000000000D+00  0.0000000000000D+00
247  2.4600000000000D+00  0.0000000000000D+00  0.0000000000000D+00
248  2.4700000000000D+00  0.0000000000000D+00  0.0000000000000D+00
249  2.4800000000000D+00  0.0000000000000D+00  0.0000000000000D+00
250  2.4900000000000D+00  0.0000000000000D+00  0.0000000000000D+00
251  2.5000000000000D+00  0.0000000000000D+00  0.0000000000000D+00
252  2.5100000000000D+00  0.0000000000000D+00  0.0000000000000D+00
253  2.5200000000000D+00  0.0000000000000D+00  0.0000000000000D+00
254  2.5300000000000D+00  0.0000000000000D+00  0.0000000000000D+00
255  2.5400000000000D+00  0.0000000000000D+00  0.0000000000000D+00
256  2.5500000000000D+00  0.0000000000000D+00  0.0000000000000D+00
257  2.5600000000000D+00  0.0000000000000D+00  0.0000000000000D+00
258  2.5700000000000D+00  0.0000000000000D+00  0.0000000000000D+00
259  2.5800000000000D+00  0.0000000000000D+00  0.0000000000000D+00
260  2.5900000000000D+00  0.0000000000000D+00  0.0000000000000D+00
261  2.6000000000000D+00  0.0000000000000D+00  0.0000000000000D+00
262  2.6100000000000D+00  0.0000000000000D+00  0.0000000000000D+00
263  2.6200000000000D+00  0.0000000000000D+00  0.0000000000000D+00
264  2.6300000000000D+00  0.0000000000000D+00  0.0000000000000D+00
265  2.6400000000000D+00  0.0000000000000D+00  0.0000000000000D+00
266  2.6500000000000D+00  0.0000000000000D+00  0.0000000000000D+00
267  2.6600000000000D+00  0.0000000000000D+00  0.0000000000000D+00
268  2.6700000000000D+00  0.0000000000000D+00  0.0000000000000D+00
269  2.6800000000000D+00  0.0000000000000D+00  0.0000000000000D+00
270  2.6900000000000D+00  0.0000000000000D+00  0.0000000000000D+00
271  2.7000000000000D+00  0.0000000000000D+00  0.0000000000000D+00
272  2.7100000000000D+00  0.0000000000000D+00  0.0000000000000D+00
273  2.7200000000000D+00  0.0000000000000D+00  0.0000000000000D+00
274  2.7300000000000D+00  0.0000000000000D+00  0.0000000000000D+00
275  2.7400000000000D+00  0.0000000000000D+00  0.0000000000000D+00
276  2.7500000000000D+00  0.0000000000000D+00  0.0000000000000D+00
277  2.7600000000000D+00  0.0000000000000D+00  0.0000000000000D+00
278  2.7700000000000D+00  0.0000000000000D+00  0.0000000000000D+00
279  2.7800000000000D+00  0.0000000000000D+00  0.0000000000000D+00
280  2.7900000000000D+00  0.0000000000000D+00  0.0000000000000D+00
281  2.8000000000000D+00  0.0000000000000D+00  0.0000000000000D+00
282  2.8100000000000D+00  0.0000000000000D+00  0.0000000000000D+00
283  2.8200000000000D+00  0.0000000000000D+00  0.0000000000000D+00
284  2.8300000000000D+00  0.0000000000000D+00  0.0000000000000D+00
285  2.8400000000000D+00  0.0000000000000D+00  0.0000000000000D+00
286  2.8500000000000D+00  0.0000000000000D+00  0.0000000000000D+00
287  2.8600000000000D+00  0.0000000000000D+00  0.0000000000000D+00
288  2.8700000000000D+00  0.0000000000000D+00  0.0000000000000D+00
289  2.8800000000000D+00  0.0000000000000D+00  0.0000000000000D+00
290  2.8900000000000D+00  0.0000000000000D+00  0.0000000000000D+00
291  2.9000000000000D+00  0.0000000000000D+00  0.0000000000000D+00
292  2.9100000000000D+00  0.0000000000000D+00  0.0000000000000D+00
293  2.9200000000000D+00  0.0000000000000D+00  0.0000000000000D+00
294  2.9300000000000D+00  0.0000000000000D+00  0.0000000000000D+00
295  2.9400000000000D+00  0.0000000000000D+00  0.0000000000000D+00
296  2.9500000000000D+00  0.0000000000000D+00  0.0000000000000D+00
297  2.9600000000000D+00  0.0000000000000D+00  0.0000000000000D+00
298  2.9700000000000D+00  0.0000000000000D+00  0.0000000000000D+00
299  2.9800000000000D+00  0.0000000000000D+00  0.0000000000000D+00
300  2.9900000000000D+00  0.0000000000000D+00  0.0000000000000D+00
301  3.0000000000000D+00  0.0000000000000D+00  0.0000000000000D+00
302  3.0100000000000D+00  0.0000000000000D+00  0.0000000000000D+00
303  3.0200000000000D+00  0.0000000000000D+00  0.0000000000000D+00
304  3.0300000000000D+00  0.0000000000000D+00  0.0000000000000D+00
305  3.0400000000000D+00  0.0000000000000D+00  0.0000000000000D+00
306  3.0500000000000D+00  0.0000000000000D+00  0.0000000000000D+00
307  3.0600000000000D+00  0.0000000000000D+00  0.0000000000000D+00
308  3.0700000000000D+00  0.0000000000000D+00  0.0000000000000D+00
309  3.0800000000000D+00  0.0000000000000D+00  0.0000000000000D+00
310  3.0900000000000D+00  0.0000000000000D+00  0.0000000000000D+00
311  3.1000000000000D+00  0.0000000000000D+00  0.0000000000000D+00
312  3.1100000000000D+00  0.0000000000000D+00  0.0000000000000D+00
313  3.1200000000000D+00  0.0000000000000D+00  0.0000000000000D+00
314  3.1300000000000D+00  0.0000000000000D+00  0.0000000000000D+00
315  3.1400000000000D+00  0.0000000000000D+00  0.0000000000000D+00
316  3.1500000000000D+00  0.0000000000000D+00  0.0000000000000D+00
317  3.1600000000000D+00  0.0000000000000D+00  0.0000000000000D+00
318  3.1700000000000D+00  0.0000000000000D+00  0.0000000000000D+00
319  3.1800000000000D+00  0.0000000000000D+00  0.0000000000000D+00
320  3.1900000000000D+00  0.0000000000000D+00  0.0000000000000D+00
321  3.2000000000000D+00  0.0000000000000D+00  0.0000000000000D+00
322  3.2100000000000D+00  0.0000000000000D+00  0.0000000000000D+00
323  3.2200000000000D+00  0.0000000000000D+00  0.0000000000000D+00
324  3.2300000000000D+00  0.0000000000000D+00  0.0000000000000D+00
325  3.2400000000000D+00  0.0000000000000D+00  0.0000000000000D+00
326  3.2500000000000D+00  0.0000000000000D+00  0.0000000000000D+00
327  3.2600000000000D+00  0.0000000000000D+00  0.0000000000000D+00
328  3.2700000000000D+00  0.0000000000000D+00  0.0000000000000D+00
329  3.2800000000000D+00  0.0000000000000D+00  0.0000000000000D+00
330  3.2900000000000D+00  0.0000000000000D+00  0.0000000000000D+00
331  3.3000000000000D+00  0.0000000000000D+00  0.0000000000000D+00
332  3.3100000000000D+00  0.0000000000000D+00  0.0000000000000D+00
333  3.3200000000000D+00  0.0000000000000D+00  0.0000000000000D+00
334  3.3300000000000D+00  0.0000000000000D+00  0.0000000000000D+00
335  3.3400000000000D+00  0.0000000000000D+00  0.0000000000000D+00
336  3.3500000000000D+00  0.0000000000000D+00  0.0000000000000D+00
337  3.3600000000000D+00  0.0000000000000D+00  0.0000000000000D+00
338  3.3700000000000D+00  0.0000000000000D+00  0.0000000000000D+00
339  3.3800000000000D+00  0.0000000000000D+00  0.0000000000000D+00
340  3.3900000000000D+00  0.0000000000000D+00  0.0000000000000D+00
341  3.4000000000000D+00  0.0000000000000D+00  0.0000000000000D+00
342  3.4100000000000D+00  0.0000000000000D+00  0.0000000000000D+00
343  3.4200000000000D+00  0.0000000000000D+00  0.0000000000000D+00
344  3.4300000000000D+00  0.0000000000000D+00  0.0000000000000D+00
345  3.4400000000000D+00  0.0000000000000D+00  0.0000000000000D+00
346  3.4500000000000D+00  0.0000000000000D+00  0.0000000000000D+00
347  3.4600000000000D+00  0.0000000000000D+00  0.0000000000000D+00
348  3.4700000000000D+00  0.0000000000000D+00  0.0000000000000D+00
349  3.4800000000000D+00  0.0000000000000D+00  0.0000000000000D+00
350  3.4900000000000D+00  0.0000000000000D+00  0.0000000000000D+00
351  3.5000000000000D+00  0.0000000000000D+00  0.0000000000000D+00
352  3.5100000000000D+00  0.0000000000000D+00  0.0000000000000D+00
353  3.5200000000000D+00  0.0000000000000D+00  0.0000000000000D+00
354  3.5300000000000D+00  0.0000000000000D+00  0.0000000000000D+00
355  3.5400000000000D+00  0.0000000000000D+00  0.0000000000000D+00
356  3.5500000000000D+00  0.0000000000000D+00  0.0000000000000D+00
357  3.5600000000000D+00  0.0000000000000D+00  0.0000000000000D+00
358  3.5700000000000D+00  0.0000000000000D+00  0.0000000000000D+00
359  3.5800000000000D+00  0.0000000000000D+00  0.0000000000000D+00
360  3.5900000000000D+00  0.0000000000000D+00  0.0000000000000D+00
361  3.6000000000000D+00  0.0000000000000D+00  0.0000000000000D+00
362  3.6100000000000D+00  0.0000000000000D+00  0.0000000000000D+00
363  3.6200000000000D+00  0.0000000000000D+00  0.0000000000000D+00
364  3.6300000000000D+00  0.0000000000000D+00  0.0000000000000D+00
365  3.6400000000000D+00  0.0000000000000D+00  0.0000000000000D+00
366  3.6500000000000D+00  0.0000000000000D+00  0.0000000000000D+00
367  3.6600000000000D+00  0.0000000000000D+00  0.0000000000000D+00
368  3.6700000000000D+00  0.0000000000000D+00  0.0000000000000D+00
369  3.6800000000000D+00  0.0000000000000D+00  0.0000000000000D+00
370  3.6900000000000D+00  0.0000000000000D+00  0.0000000000000D+00
371  3.7000000000000D+00  0.0000000000000D+00  0.0000000000000D+00
372  3.7100000000000D+00  0.0000000000000D+00  0.0000000000000D+00
373  3.7200000000000D+00  0.0000000000000D+00  0.0000000000000D+00
374  3.7300000000000D+00  0.0000000000000D+00  0.0000000000000D+00
375  3.7400000000000D+00  0.0000000000000D+00  0.0000000000000D+00
376  3.7500000000000D+00  0.0000000000000D+00  0.0000000000000D+00
377  3.7600000000000D+00  0.0000000000000D+00  0.0000000000000D+00
378  3.7700000000000D+00  0.0000000000000D+00  0.0000000000000D+00
379  3.7800000000000D+00  0.0000000000000D+00  0.0000000000000D+00
380  3.7900000000000D+00  0.0000000000000D+00  0.0000000000000D+00
381  3.8000000000000D+00  0.0000000000000D+00  0.0000000000000D+00
382  3.8100000000000D+00  0.0000000000000D+00  0.0000000000000D+00
383  3.8200000000000D+00  0.0000000000000D+00  0.0000000000000D+00
384  3.8300000000000D+00  0.0000000000000D+00  0.0000000000000D+00
385  3.8400000000000D+00  0.0000000000000D+00  0.0000000000000D+00
386  3.8500000000000D+00  0.0000000000000D+00  0.0000000000000D+00
387  3.8600000000000D+00  0.0000000000000D+00  0.0000000000000D+00
388  3.8700000000000D+00  0.0000000000000D+00  0.0000000000000D+00
389  3.8800000000000D+00  0.0000000000000D+00  0.0000000000000D+00
390  3.8900000000000D+00  0.0000000000000D+00  0.0000000000000D+00
391  3.9000000000000D+00  0.0000000000000D+00  0.0000000000000D+00
392  3.9100000000000D+00  0.0000000000000D+00  0.0000000000000D+00
393  3.9200000000000D+00  0.0000000000000D+00  0.0000000000000D+00
394  3.9300000000000D+00  0.0000000000000D+00  0.0000000000000D+00
395  3.9400000000000D+00  0.0000000000000D+00  0.0000000000000D+00
396  3.9500000000000D+00  0.0000000000000D+00  0.0000000000000D+00
397  3.9600000000000D+00  0.0000000000000D+00  0.0000000000000D+00
398  3.9700000000000D+00  0.0000000000000D+00  0.0000000000000D+00
399  3.9800000000000D+00  0.0000000000000D+00  0.0000000000000D+00
400  3.9900000000000D+00  0.0000000000000D+00  0.0000000000000D+00
401  4.0000000000000D+00  0.0000000000000D+00  0.0000000000000D+00
402  4.0100000000000D+00  0.0000000000000D+00  0.0000000000000D+00
403  4.0200000000000D+00  0.0000000000000D+00  0.0000000000000D+00
404  4.0300000000000D+00  0.0000000000000D+00  0.0000000000000D+00
405  4.0400000000000D+00  0.0000000000000D+00  0.0000000000000D+00
406  4.0500000000000D+00  0.0000000000000D+00  0.0000000000000D+00
407  4.0600000000000D+00  0.0000000000000D+00  0.0000000000000D+00
408  4.0700000000000D+00  0.0000000000000D+00  0.0000000000000D+00
409  4.0800000000000D+00  0.0000000000000D+00  0.0000000000000D+00
410  4.0900000000000D+00  0.0000000000000D+00  0.0000000000000D+00
411  4.1000000000000D+00  0.0000000000000D+00  0.0000000000000D+00
412  4.1100000000000D+00  0.0000000000000D+00  0.0000000000000D+00
413  4.1200000000000D+00  0.0000000000000D+00  0.0000000000000D+00
414  4.1300000000000D+00  0.0000000000000D+00  0.0000000000000D+00
415  4.1400000000000D+00  0.0000000000000D+00  0.0000000000000D+00
416  4.1500000000000D+00  0.0000000000000D+00  0.0000000000000D+00
417  4.1600000000000D+00  0.0000000000000D+00  0.0000000000000D+00
418  4.1700000000000D+00  0.0000000000000D+00  0.0000000000000D+00
419  4.1800000000000D+00  0.0000000000000D+00  0.0000000000000D+00
420  4.1900000000000D+00  0.0000000000000D+00  0.0000000000000D+00
421  4.2000000000000D+00  0.0000000000000D+00  0.0000000000000D+00
422  4.2100000000000D+00  0.0000000000000D+00  0.0000000000000D+00
423  4.2200000000000D+00  0.0000000000000D+00  0.0000000000000D+00
424  4.2300000000000D+00  0.0000000000000D+00  0.0000000000000D+00
425  4.2400000000000D+00  0.0000000000000D+00  0.0000000000000D+00
426  4.2500000000000D+00  0.0000000000000D+00  0.0000000000000D+00
427  4.2600000000000D+00  0.0000000000000D+00  0.0000000000000D+00
428  4.2700000000000D+00  0.0000000000000D+00  0.0000000000000D+00
429  4.2800000000000D+00  0.0000000000000D+00  0.0000000000000D+00
430  4.2900000000000D+00  0.0000000000000D+00  0.0000000000000D+00
431  4.3000000000000D+00  0.0000000000000D+00  0.0000000000000D+00
432  4.3100000000000D+00  0.0000000000000D+00  0.0000000000000D+00
433  4.3200000000000D+00  0.0000000000000D+00  0.0000000000000D+00
434  4.3300000000000D+00  0.0000000000000D+00  0.0000000000000D+00
435  4.3400000000000D+00  0.0000000000000D+00  0.0000000000000D+00
436  4.3500000000000D+00  0.0000000000000D+00  0.0000000000000D+00
437  4.3600000000000D+00  0.0000000000000D+00  0.0000000000000D+00
438  4.3700000000000D+00  0.0000000000000D+00  0.0000000000000D+00
439  4.3800000000000D+00  0.0000000000000D+00  0.0000000000000D+00
440  4.3900000000000D+00  0.0000000000000D+00  0.0000000000000D+00
441  4.4000000000000D+00  0.0000000000000D+00  0.0000000000000D+00
442  4.4100000000000D+00  0.0000000000000D+00  0.0000000000000D+00
443  4.4200000000000D+00  0.0000000000000D+00  0.0000000000000D+00
444  4.4300000000000D+00  0.0000000000000D+00  0.0000000000000D+00