Cu    ONCVPSP  r_core=  1.26  1.46  1.76
29.0000     19.0000      151103    zatom,zion,pspd
8      11   2     4   600     0    pspcod,pspxc,lmax,lloc,mmax,r2well
5.99000000  5.00000000  0.00000000    rchrg fchrg qchrg
2     2     2     0     0    nproj
0                 extension_switch
0                         4.6964245926348D+00 -4.3128680825934D-01
1  0.0000000000000D+00 -8.3023834474005D-09 -2.1610245343195D-08
2  1.0000000000000D-02  1.0562887325533D-01  3.6774429641345D-02
3  2.0000000000000D-02  2.1067610633964D-01  7.2910169346724D-02
4  3.0000000000000D-02  3.1456690660548D-01  1.0778296691699D-01
5  4.0000000000000D-02  4.1674005933468D-01  1.4079715272002D-01
6  5.0000000000000D-02  5.1665442608395D-01  1.7139920437332D-01
7  6.0000000000000D-02  6.1379510033866D-01  1.9909045526255D-01
8  7.0000000000000D-02  7.0767911620899D-01  2.2343868745280D-01
9  8.0000000000000D-02  7.9786061420466D-01  2.4408837115944D-01
10  9.0000000000000D-02  8.8393537820959D-01  2.6076933918650D-01
11  1.0000000000000D-01  9.6554466945635D-01  2.7330371511870D-01
12  1.1000000000000D-01  1.0423782963573D+00  2.8161094799675D-01
13  1.2000000000000D-01  1.1141768732389D+00  2.8571084307410D-01
14  1.3000000000000D-01  1.1807332360845D+00  2.8572451735075D-01
15  1.4000000000000D-01  1.2418929990379D+00  2.8187324916741D-01
16  1.5000000000000D-01  1.2975542513627D+00  2.7447523244996D-01
17  1.6000000000000D-01  1.3476664104858D+00  2.6394028743749D-01
18  1.7000000000000D-01  1.3922282623960D+00  2.5076262011942D-01
19  1.8000000000000D-01  1.4312852356970D+00  2.3551176137665D-01
20  1.9000000000000D-01  1.4649259697788D+00  2.1882185322487D-01
21  2.0000000000000D-01  1.4932782505754D+00  2.0137948289093D-01
22  2.1000000000000D-01  1.5165043989886D+00  1.8391029507077D-01
23  2.2000000000000D-01  1.5347962070555D+00  1.6716463803707D-01
24  2.3000000000000D-01  1.5483695251195D+00  1.5190251978825D-01
25  2.4000000000000D-01  1.5574586094839D+00  1.3887816574192D-01
26  2.5000000000000D-01  1.5623103441537D+00  1.2882447925996D-01
27  2.6000000000000D-01  1.5631784522238D+00  1.2243771033465D-01
28  2.7000000000000D-01  1.5603178122114D+00  1.2036263595788D-01
29  2.8000000000000D-01  1.5539789921474D+00  1.2317854804209D-01
30  2.9000000000000D-01  1.5444031095859D+00  1.3138633137400D-01
31  3.0000000000000D-01  1.5318171189381D+00  1.4539689518346D-01
32  3.1000000000000D-01  1.5164296188106D+00  1.6552119782516D-01
33  3.2000000000000D-01  1.4984272614897D+00  1.9196207522893D-01
34  3.3000000000000D-01  1.4779718345516D+00  2.2480805069275D-01
35  3.4000000000000D-01  1.4551980710300D+00  2.6402926687391D-01
36  3.5000000000000D-01  1.4302122298785D+00  3.0947564115536D-01
37  3.6000000000000D-01  1.4030914729122D+00  3.6087730365503D-01
38  3.7000000000000D-01  1.3738840482941D+00  4.1784733379827D-01
39  3.8000000000000D-01  1.3426102742449D+00  4.7988676738984D-01
40  3.9000000000000D-01  1.3092643003320D+00  5.4639180234592D-01
41  4.0000000000000D-01  1.2738166077280D+00  6.1666308850475D-01
42  4.1000000000000D-01  1.2362171945475D+00  6.8991694604985D-01
43  4.2000000000000D-01  1.1963993780673D+00  7.6529831884476D-01
44  4.3000000000000D-01  1.1542841325811D+00  8.4189523413735D-01
45  4.4000000000000D-01  1.1097848701173D+00  9.1875450933428D-01
46  4.5000000000000D-01  1.0628125614658D+00  9.9489842048712D-01
47  4.6000000000000D-01  1.0132810871361D+00  1.0693420263029D+00
48  4.7000000000000D-01  9.6111270216066D-01  1.1411108263287D+00
49  4.8000000000000D-01  9.0624349519246D-01  1.2092584227940D+00
50  4.9000000000000D-01  8.4862872120732D-01  1.2728838526474D+00
51  5.0000000000000D-01  7.8824788835138D-01  1.3311482597014D+00
52  5.1000000000000D-01  7.2510948306259D-01  1.3832905864763D+00
53  5.2000000000000D-01  6.5925522349749D-01  1.4286419811923D+00
54  5.3000000000000D-01  5.9076373941546D-01  1.4666386371387D+00
55  5.4000000000000D-01  5.1975358685721D-01  1.4968328089495D+00
56  5.5000000000000D-01  4.4638551805950D-01  1.5189017827414D+00
57  5.6000000000000D-01  3.7086394081452D-01  1.5326546139491D+00
58  5.7000000000000D-01  2.9343751667771D-01  1.5380364873948D+00
59  5.8000000000000D-01  2.1439886380097D-01  1.5351305980013D+00
60  5.9000000000000D-01  1.3408334732414D-01  1.5241574965342D+00
61  6.0000000000000D-01  5.2866958013157D-02  1.5054718923770D+00
62  6.1000000000000D-01 -2.8836702314651D-02  1.4795569532441D+00
63  6.2000000000000D-01 -1.1058029228513D-01  1.4470161894182D+00
64  6.3000000000000D-01 -1.9188740584959D-01  1.4085630564574D+00
65  6.4000000000000D-01 -2.7225798069059D-01  1.3650084542993D+00
66  6.5000000000000D-01 -3.5117435499695D-01  1.3172463419560D+00
67  6.6000000000000D-01 -4.2810787375038D-01  1.2662377240760D+00
68  6.7000000000000D-01 -5.0252593365845D-01  1.2129932982732D+00
69  6.8000000000000D-01 -5.7389934582381D-01  1.1585550795727D+00
70  6.9000000000000D-01 -6.4170988745871D-01  1.1039773397948D+00
71  7.0000000000000D-01 -7.0545790851179D-01  1.0503072149937D+00
72  7.1000000000000D-01 -7.6466985612491D-01  9.9856534277674D-01
73  7.2000000000000D-01 -8.1890557948742D-01  9.4972689315901D-01
74  7.3000000000000D-01 -8.6776527989716D-01  9.0470335158397D-01
75  7.4000000000000D-01 -9.1089597568635D-01  8.6432540080410D-01
76  7.5000000000000D-01 -9.4799735899124D-01  8.2932722982961D-01
77  7.6000000000000D-01 -9.7882693112165D-01  8.0033257315194D-01
78  7.7000000000000D-01 -1.0032043152621D+00  7.7784275260462D-01
79  7.8000000000000D-01 -1.0210146592325D+00  7.6222695800735D-01
80  7.9000000000000D-01 -1.0322110568150D+00  7.5371496177261D-01
81  8.0000000000000D-01 -1.0368159334092D+00  7.5239241773913D-01
82  8.1000000000000D-01 -1.0349213602025D+00  7.5819884645084D-01
83  8.2000000000000D-01 -1.0266882802853D+00  7.7092835882778D-01
84  8.3000000000000D-01 -1.0123446498522D+00  7.9023311862658D-01
85  8.4000000000000D-01 -9.9218251742439D-01  8.1562949224461D-01
86  8.5000000000000D-01 -9.6655408354053D-01  8.4650678327630D-01
87  8.6000000000000D-01 -9.3586680221080D-01  8.8213839976862D-01
88  8.7000000000000D-01 -9.0057760325211D-01  9.2169525530532D-01
89  8.8000000000000D-01 -8.6118633107323D-01  9.6426116178900D-01
90  8.9000000000000D-01 -8.1822851023550D-01  1.0088499329400D+00
91  9.0000000000000D-01 -7.7226756088539D-01  1.0544238838587D+00
92  9.1000000000000D-01 -7.2388659768413D-01  1.0999133841806D+00
93  9.2000000000000D-01 -6.7367995393407D-01  1.1442371009571D+00
94  9.3000000000000D-01 -6.2224457805250D-01  1.1863225528594D+00
95  9.4000000000000D-01 -5.7017145225494D-01  1.2251265899462D+00
96  9.5000000000000D-01 -5.1803718321423D-01  1.2596554132340D+00
97  9.6000000000000D-01 -4.6639591154850D-01  1.2889837556905D+00
98  9.7000000000000D-01 -4.1577168132439D-01  1.3122728608790D+00
99  9.8000000000000D-01 -3.6665140229651D-01  1.3287869174226D+00
100  9.9000000000000D-01 -3.1947852681424D-01  1.3379076355091D+00
101  1.0000000000000D+00 -2.7464755017114D-01  1.3391466859082D+00
102  1.0100000000000D+00 -2.3249942756984D-01  1.3321557626491D+00
103  1.0200000000000D+00 -1.9331798401522D-01  1.3167340744866D+00
104  1.0300000000000D+00 -1.5732737475503D-01  1.2928331190779D+00
105  1.0400000000000D+00 -1.2469063413920D-01  1.2605586453481D+00
106  1.0500000000000D+00 -9.5509329890016D-02  1.2201697640515D+00
107  1.0600000000000D+00 -6.9824320373626D-02  1.1720752172011D+00
108  1.0700000000000D+00 -4.7617589470526D-02  1.1168268770897D+00
109  1.0800000000000D+00 -2.8815114953657D-02  1.0551105944179D+00
110  1.0900000000000D+00 -1.3290705882181D-02  9.8773456830154D-01
111  1.1000000000000D+00 -8.7072633617737D-04  9.1561545835888D-01
112  1.1100000000000D+00  8.6603930091430D-03  8.3976250034985D-01
113  1.1200000000000D+00  1.5553971005491D-02  7.6125993119944D-01
114  1.1300000000000D+00  2.0090346249683D-02  6.8124805747405D-01
115  1.1400000000000D+00  2.2571739017385D-02  6.0090333044707D-01
116  1.1500000000000D+00  2.3314849217350D-02  5.2141780819822D-01
117  1.1600000000000D+00  2.2643341532550D-02  4.4397840271775D-01
118  1.1700000000000D+00  2.0880371113270D-02  3.6974631759151D-01
119  1.1800000000000D+00  1.8341298954602D-02  2.9983706421710D-01
120  1.1900000000000D+00  1.5326687937559D-02  2.3530125015588D-01
121  1.2000000000000D+00  1.2115955272887D-02  1.7710732982704D-01
122  1.2100000000000D+00  8.9615023196192D-03  1.2612559899525D-01
123  1.2200000000000D+00  6.0822377791444D-03  8.3116534949572D-02
124  1.2300000000000D+00  3.6539165698541D-03  4.8672192678558D-02
125  1.2400000000000D+00  1.7944106487610D-03  2.3093092644158D-02
126  1.2500000000000D+00  6.4558198682044D-04  7.3694580899050D-03
127  1.2600000000000D+00  1.6716134242717D-04  8.3083406429241D-04
128  1.2700000000000D+00  2.3404380568680D-05 -3.4053893586746D-04
129  1.2800000000000D+00 -1.3262094581891D-06  8.4029991293281D-05
130  1.2900000000000D+00  2.6525008150169D-08  5.8780562089849D-05
131  1.3000000000000D+00  7.3766004391858D-07 -2.2789009059178D-05
132  1.3100000000000D+00 -1.5375703785196D-07 -3.7485387798075D-07
133  1.3200000000000D+00 -2.2436100519490D-07 -5.4698369609554D-07
134  1.3300000000000D+00  0.0000000000000D+00  0.0000000000000D+00
135  1.3400000000000D+00  0.0000000000000D+00  0.0000000000000D+00
136  1.3500000000000D+00  0.0000000000000D+00  0.0000000000000D+00
137  1.3600000000000D+00  0.0000000000000D+00  0.0000000000000D+00
138  1.3700000000000D+00  0.0000000000000D+00  0.0000000000000D+00
139  1.3800000000000D+00  0.0000000000000D+00  0.0000000000000D+00
140  1.3900000000000D+00  0.0000000000000D+00  0.0000000000000D+00
141  1.4000000000000D+00  0.0000000000000D+00  0.0000000000000D+00
142  1.4100000000000D+00  0.0000000000000D+00  0.0000000000000D+00
143  1.4200000000000D+00  0.0000000000000D+00  0.0000000000000D+00
144  1.4300000000000D+00  0.0000000000000D+00  0.0000000000000D+00
145  1.4400000000000D+00  0.0000000000000D+00  0.0000000000000D+00
146  1.4500000000000D+00  0.0000000000000D+00  0.0000000000000D+00
147  1.4600000000000D+00  0.0000000000000D+00  0.0000000000000D+00
148  1.4700000000000D+00  0.0000000000000D+00  0.0000000000000D+00
149  1.4800000000000D+00  0.0000000000000D+00  0.0000000000000D+00
150  1.4900000000000D+00  0.0000000000000D+00  0.0000000000000D+00
151  1.5000000000000D+00  0.0000000000000D+00  0.0000000000000D+00
152  1.5100000000000D+00  0.0000000000000D+00  0.0000000000000D+00
153  1.5200000000000D+00  0.0000000000000D+00  0.0000000000000D+00
154  1.5300000000000D+00  0.0000000000000D+00  0.0000000000000D+00
155  1.5400000000000D+00  0.0000000000000D+00  0.0000000000000D+00
156  1.5500000000000D+00  0.0000000000000D+00  0.0000000000000D+00
157  1.5600000000000D+00  0.0000000000000D+00  0.0000000000000D+00
158  1.5700000000000D+00  0.0000000000000D+00  0.0000000000000D+00
159  1.5800000000000D+00  0.0000000000000D+00  0.0000000000000D+00
160  1.5900000000000D+00  0.0000000000000D+00  0.0000000000000D+00
161  1.6000000000000D+00  0.0000000000000D+00  0.0000000000000D+00
162  1.6100000000000D+00  0.0000000000000D+00  0.0000000000000D+00
163  1.6200000000000D+00  0.0000000000000D+00  0.0000000000000D+00
164  1.6300000000000D+00  0.0000000000000D+00  0.0000000000000D+00
165  1.6400000000000D+00  0.0000000000000D+00  0.0000000000000D+00
166  1.6500000000000D+00  0.0000000000000D+00  0.0000000000000D+00
167  1.6600000000000D+00  0.0000000000000D+00  0.0000000000000D+00
168  1.6700000000000D+00  0.0000000000000D+00  0.0000000000000D+00
169  1.6800000000000D+00  0.0000000000000D+00  0.0000000000000D+00
170  1.6900000000000D+00  0.0000000000000D+00  0.0000000000000D+00
171  1.7000000000000D+00  0.0000000000000D+00  0.0000000000000D+00
172  1.7100000000000D+00  0.0000000000000D+00  0.0000000000000D+00
173  1.7200000000000D+00  0.0000000000000D+00  0.0000000000000D+00
174  1.7300000000000D+00  0.0000000000000D+00  0.0000000000000D+00
175  1.7400000000000D+00  0.0000000000000D+00  0.0000000000000D+00
176  1.7500000000000D+00  0.0000000000000D+00  0.0000000000000D+00
177  1.7600000000000D+00  0.0000000000000D+00  0.0000000000000D+00
178  1.7700000000000D+00  0.0000000000000D+00  0.0000000000000D+00
179  1.7800000000000D+00  0.0000000000000D+00  0.0000000000000D+00
180  1.7900000000000D+00  0.0000000000000D+00  0.0000000000000D+00
181  1.8000000000000D+00  0.0000000000000D+00  0.0000000000000D+00
182  1.8100000000000D+00  0.0000000000000D+00  0.0000000000000D+00
183  1.8200000000000D+00  0.0000000000000D+00  0.0000000000000D+00
184  1.8300000000000D+00  0.0000000000000D+00  0.0000000000000D+00
185  1.8400000000000D+00  0.0000000000000D+00  0.0000000000000D+00
186  1.8500000000000D+00  0.0000000000000D+00  0.0000000000000D+00
187  1.8600000000000D+00  0.0000000000000D+00  0.0000000000000D+00
188  1.8700000000000D+00  0.0000000000000D+00  0.0000000000000D+00
189  1.8800000000000D+00  0.0000000000000D+00  0.0000000000000D+00
190  1.8900000000000D+00  0.0000000000000D+00  0.0000000000000D+00
191  1.9000000000000D+00  0.0000000000000D+00  0.0000000000000D+00
192  1.9100000000000D+00  0.0000000000000D+00  0.0000000000000D+00
193  1.9200000000000D+00  0.0000000000000D+00  0.0000000000000D+00
194  1.9300000000000D+00  0.0000000000000D+00  0.0000000000000D+00
195  1.9400000000000D+00  0.0000000000000D+00  0.0000000000000D+00
196  1.9500000000000D+00  0.0000000000000D+00  0.0000000000000D+00
197  1.9600000000000D+00  0.0000000000000D+00  0.0000000000000D+00
198  1.9700000000000D+00  0.0000000000000D+00  0.0000000000000D+00
199  1.9800000000000D+00  0.0000000000000D+00  0.0000000000000D+00
200  1.9900000000000D+00  0.0000000000000D+00  0.0000000000000D+00
201  2.0000000000000D+00  0.0000000000000D+00  0.0000000000000D+00
202  2.0100000000000D+00  0.0000000000000D+00  0.0000000000000D+00
203  2.0200000000000D+00  0.0000000000000D+00  0.0000000000000D+00
204  2.0300000000000D+00  0.0000000000000D+00  0.0000000000000D+00
205  2.0400000000000D+00  0.0000000000000D+00  0.0000000000000D+00
206  2.0500000000000D+00  0.0000000000000D+00  0.0000000000000D+00
207  2.0600000000000D+00  0.0000000000000D+00  0.0000000000000D+00
208  2.0700000000000D+00  0.0000000000000D+00  0.0000000000000D+00
209  2.0800000000000D+00  0.0000000000000D+00  0.0000000000000D+00
210  2.0900000000000D+00  0.0000000000000D+00  0.0000000000000D+00
211  2.1000000000000D+00  0.0000000000000D+00  0.0000000000000D+00
212  2.1100000000000D+00  0.0000000000000D+00  0.0000000000000D+00
213  2.1200000000000D+00  0.0000000000000D+00  0.0000000000000D+00
214  2.1300000000000D+00  0.0000000000000D+00  0.0000000000000D+00
215  2.1400000000000D+00  0.0000000000000D+00  0.0000000000000D+00
216  2.1500000000000D+00  0.0000000000000D+00  0.0000000000000D+00
217  2.1600000000000D+00  0.0000000000000D+00  0.0000000000000D+00
218  2.1700000000000D+00  0.0000000000000D+00  0.0000000000000D+00
219  2.1800000000000D+00  0.0000000000000D+00  0.0000000000000D+00
220  2.1900000000000D+00  0.0000000000000D+00  0.0000000000000D+00
221  2.2000000000000D+00  0.0000000000000D+00  0.0000000000000D+00
222  2.2100000000000D+00  0.0000000000000D+00  0.0000000000000D+00
223  2.2200000000000D+00  0.0000000000000D+00  0.0000000000000D+00
224  2.2300000000000D+00  0.0000000000000D+00  0.0000000000000D+00
225  2.2400000000000D+00  0.0000000000000D+00  0.0000000000000D+00
226  2.2500000000000D+00  0.0000000000000D+00  0.0000000000000D+00
227  2.2600000000000D+00  0.0000000000000D+00  0.0000000000000D+00
228  2.2700000000000D+00  0.0000000000000D+00  0.0000000000000D+00
229  2.2800000000000D+00  0.0000000000000D+00  0.0000000000000D+00
230  2.2900000000000D+00  0.0000000000000D+00  0.0000000000000D+00
231  2.3000000000000D+00  0.0000000000000D+00  0.0000000000000D+00
232  2.3100000000000D+00  0.0000000000000D+00  0.0000000000000D+00
233  2.3200000000000D+00  0.0000000000000D+00  0.0000000000000D+00
234  2.3300000000000D+00  0.0000000000000D+00  0.0000000000000D+00
235  2.3400000000000D+00  0.0000000000000D+00  0.0000000000000D+00
236  2.3500000000000D+00  0.0000000000000D+00  0.0000000000000D+00
237  2.3600000000000D+00  0.0000000000000D+00  0.0000000000000D+00
238  2.3700000000000D+00  0.0000000000000D+00  0.0000000000000D+00
239  2.3800000000000D+00  0.0000000000000D+00  0.0000000000000D+00
240  2.3900000000000D+00  0.0000000000000D+00  0.0000000000000D+00
241  2.4000000000000D+00  0.0000000000000D+00  0.0000000000000D+00
242  2.4100000000000D+00  0.0000000000000D+00  0.0000000000000D+00
243  2.4200000000000D+00  0.0000000000000D+00  0.0000000000000D+00
244  2.4300000000000D+00  0.0000000000000D+00  0.0000000000000D+00
245  2.4400000000000D+00  0.0000000000000D+00  0.0000000000000D+00
246  2.4500000000000D+00  0.0000000000000D+00  0.0000000000000D+00
247  2.4600000000000D+00  0.0000000000000D+00  0.0000000000000D+00
248  2.4700000000000D+00  0.0000000000000D+00  0.0000000000000D+00
249  2.4800000000000D+00  0.0000000000000D+00  0.0000000000000D+00
250  2.4900000000000D+00  0.0000000000000D+00  0.0000000000000D+00
251  2.5000000000000D+00  0.0000000000000D+00  0.0000000000000D+00
252  2.5100000000000D+00  0.0000000000000D+00  0.0000000000000D+00
253  2.5200000000000D+00  0.0000000000000D+00  0.0000000000000D+00
254  2.5300000000000D+00  0.0000000000000D+00  0.0000000000000D+00
255  2.5400000000000D+00  0.0000000000000D+00  0.0000000000000D+00
256  2.5500000000000D+00  0.0000000000000D+00  0.0000000000000D+00
257  2.5600000000000D+00  0.0000000000000D+00  0.0000000000000D+00
258  2.5700000000000D+00  0.0000000000000D+00  0.0000000000000D+00
259  2.5800000000000D+00  0.0000000000000D+00  0.0000000000000D+00
260  2.5900000000000D+00  0.0000000000000D+00  0.0000000000000D+00
261  2.6000000000000D+00  0.0000000000000D+00  0.0000000000000D+00
262  2.6100000000000D+00  0.0000000000000D+00  0.0000000000000D+00
263  2.6200000000000D+00  0.0000000000000D+00  0.0000000000000D+00
264  2.6300000000000D+00  0.0000000000000D+00  0.0000000000000D+00
265  2.6400000000000D+00  0.0000000000000D+00  0.0000000000000D+00
266  2.6500000000000D+00  0.0000000000000D+00  0.0000000000000D+00
267  2.6600000000000D+00  0.0000000000000D+00  0.0000000000000D+00
268  2.6700000000000D+00  0.0000000000000D+00  0.0000000000000D+00
269  2.6800000000000D+00  0.0000000000000D+00  0.0000000000000D+00
270  2.6900000000000D+00  0.0000000000000D+00  0.0000000000000D+00
271  2.7000000000000D+00  0.0000000000000D+00  0.0000000000000D+00
272  2.7100000000000D+00  0.0000000000000D+00  0.0000000000000D+00
273  2.7200000000000D+00  0.0000000000000D+00  0.0000000000000D+00
274  2.7300000000000D+00  0.0000000000000D+00  0.0000000000000D+00
275  2.7400000000000D+00  0.0000000000000D+00  0.0000000000000D+00
276  2.7500000000000D+00  0.0000000000000D+00  0.0000000000000D+00
277  2.7600000000000D+00  0.0000000000000D+00  0.0000000000000D+00
278  2.7700000000000D+00  0.0000000000000D+00  0.0000000000000D+00
279  2.7800000000000D+00  0.0000000000000D+00  0.0000000000000D+00
280  2.7900000000000D+00  0.0000000000000D+00  0.0000000000000D+00
281  2.8000000000000D+00  0.0000000000000D+00  0.0000000000000D+00
282  2.8100000000000D+00  0.0000000000000D+00  0.0000000000000D+00
283  2.8200000000000D+00  0.0000000000000D+00  0.0000000000000D+00
284  2.8300000000000D+00  0.0000000000000D+00  0.0000000000000D+00
285  2.8400000000000D+00  0.0000000000000D+00  0.0000000000000D+00
286  2.8500000000000D+00  0.0000000000000D+00  0.0000000000000D+00
287  2.8600000000000D+00  0.0000000000000D+00  0.0000000000000D+00
288  2.8700000000000D+00  0.0000000000000D+00  0.0000000000000D+00
289  2.8800000000000D+00  0.0000000000000D+00  0.0000000000000D+00
290  2.8900000000000D+00  0.0000000000000D+00  0.0000000000000D+00
291  2.9000000000000D+00  0.0000000000000D+00  0.0000000000000D+00
292  2.9100000000000D+00  0.0000000000000D+00  0.0000000000000D+00
293  2.9200000000000D+00  0.0000000000000D+00  0.0000000000000D+00
294  2.9300000000000D+00  0.0000000000000D+00  0.0000000000000D+00
295  2.9400000000000D+00  0.0000000000000D+00  0.0000000000000D+00
296  2.9500000000000D+00  0.0000000000000D+00  0.0000000000000D+00
297  2.9600000000000D+00  0.0000000000000D+00  0.0000000000000D+00
298  2.9700000000000D+00  0.0000000000000D+00  0.0000000000000D+00
299  2.9800000000000D+00  0.0000000000000D+00  0.0000000000000D+00
300  2.9900000000000D+00  0.0000000000000D+00  0.0000000000000D+00
301  3.0000000000000D+00  0.0000000000000D+00  0.0000000000000D+00
302  3.0100000000000D+00  0.0000000000000D+00  0.0000000000000D+00
303  3.0200000000000D+00  0.0000000000000D+00  0.0000000000000D+00
304  3.0300000000000D+00  0.0000000000000D+00  0.0000000000000D+00
305  3.0400000000000D+00  0.0000000000000D+00  0.0000000000000D+00
306  3.0500000000000D+00  0.0000000000000D+00  0.0000000000000D+00
307  3.0600000000000D+00  0.0000000000000D+00  0.0000000000000D+00
308  3.0700000000000D+00  0.0000000000000D+00  0.0000000000000D+00
309  3.0800000000000D+00  0.0000000000000D+00  0.0000000000000D+00
310  3.0900000000000D+00  0.0000000000000D+00  0.0000000000000D+00
311  3.1000000000000D+00  0.0000000000000D+00  0.0000000000000D+00
312  3.1100000000000D+00  0.0000000000000D+00  0.0000000000000D+00
313  3.1200000000000D+00  0.0000000000000D+00  0.0000000000000D+00
314  3.1300000000000D+00  0.0000000000000D+00  0.0000000000000D+00
315  3.1400000000000D+00  0.0000000000000D+00  0.0000000000000D+00
316  3.1500000000000D+00  0.0000000000000D+00  0.0000000000000D+00
317  3.1600000000000D+00  0.0000000000000D+00  0.0000000000000D+00
318  3.1700000000000D+00  0.0000000000000D+00  0.0000000000000D+00
319  3.1800000000000D+00  0.0000000000000D+00  0.0000000000000D+00
320  3.1900000000000D+00  0.0000000000000D+00  0.0000000000000D+00
321  3.2000000000000D+00  0.0000000000000D+00  0.0000000000000D+00
322  3.2100000000000D+00  0.0000000000000D+00  0.0000000000000D+00
323  3.2200000000000D+00  0.0000000000000D+00  0.0000000000000D+00
324  3.2300000000000D+00  0.0000000000000D+00  0.0000000000000D+00
325  3.2400000000000D+00  0.0000000000000D+00  0.0000000000000D+00
326  3.2500000000000D+00  0.0000000000000D+00  0.0000000000000D+00
327  3.2600000000000D+00  0.0000000000000D+00  0.0000000000000D+00
328  3.2700000000000D+00  0.0000000000000D+00  0.0000000000000D+00
329  3.2800000000000D+00  0.0000000000000D+00  0.0000000000000D+00
330  3.2900000000000D+00  0.0000000000000D+00  0.0000000000000D+00
331  3.3000000000000D+00  0.0000000000000D+00  0.0000000000000D+00
332  3.3100000000000D+00  0.0000000000000D+00  0.0000000000000D+00
333  3.3200000000000D+00  0.0000000000000D+00  0.0000000000000D+00
334  3.3300000000000D+00  0.0000000000000D+00  0.0000000000000D+00
335  3.3400000000000D+00  0.0000000000000D+00  0.0000000000000D+00
336  3.3500000000000D+00  0.0000000000000D+00  0.0000000000000D+00
337  3.3600000000000D+00  0.0000000000000D+00  0.0000000000000D+00
338  3.3700000000000D+00  0.0000000000000D+00  0.0000000000000D+00
339  3.3800000000000D+00  0.0000000000000D+00  0.0000000000000D+00
340  3.3900000000000D+00  0.0000000000000D+00  0.0000000000000D+00
341  3.4000000000000D+00  0.0000000000000D+00  0.0000000000000D+00
342  3.4100000000000D+00  0.0000000000000D+00  0.0000000000000D+00
343  3.4200000000000D+00  0.0000000000000D+00  0.0000000000000D+00
344  3.4300000000000D+00  0.0000000000000D+00  0.0000000000000D+00
345  3.4400000000000D+00  0.0000000000000D+00  0.0000000000000D+00
346  3.4500000000000D+00  0.0000000000000D+00  0.0000000000000D+00
347  3.4600000000000D+00  0.0000000000000D+00  0.0000000000000D+00
348  3.4700000000000D+00  0.0000000000000D+00  0.0000000000000D+00
349  3.4800000000000D+00  0.0000000000000D+00  0.0000000000000D+00
350  3.4900000000000D+00  0.0000000000000D+00  0.0000000000000D+00
351  3.5000000000000D+00  0.0000000000000D+00  0.0000000000000D+00
352  3.5100000000000D+00  0.0000000000000D+00  0.0000000000000D+00
353  3.5200000000000D+00  0.0000000000000D+00  0.0000000000000D+00
354  3.5300000000000D+00  0.0000000000000D+00  0.0000000000000D+00
355  3.5400000000000D+00  0.0000000000000D+00  0.0000000000000D+00
356  3.5500000000000D+00  0.0000000000000D+00  0.0000000000000D+00
357  3.5600000000000D+00  0.0000000000000D+00  0.0000000000000D+00
358  3.5700000000000D+00  0.0000000000000D+00  0.0000000000000D+00
359  3.5800000000000D+00  0.0000000000000D+00  0.0000000000000D+00
360  3.5900000000000D+00  0.0000000000000D+00  0.0000000000000D+00
361  3.6000000000000D+00  0.0000000000000D+00  0.0000000000000D+00
362  3.6100000000000D+00  0.0000000000000D+00  0.0000000000000D+00
363  3.6200000000000D+00  0.0000000000000D+00  0.0000000000000D+00
364  3.6300000000000D+00  0.0000000000000D+00  0.0000000000000D+00
365  3.6400000000000D+00  0.0000000000000D+00  0.0000000000000D+00
366  3.6500000000000D+00  0.0000000000000D+00  0.0000000000000D+00
367  3.6600000000000D+00  0.0000000000000D+00  0.0000000000000D+00
368  3.6700000000000D+00  0.0000000000000D+00  0.0000000000000D+00
369  3.6800000000000D+00  0.0000000000000D+00  0.0000000000000D+00
370  3.6900000000000D+00  0.0000000000000D+00  0.0000000000000D+00
371  3.7000000000000D+00  0.0000000000000D+00  0.0000000000000D+00
372  3.7100000000000D+00  0.0000000000000D+00  0.0000000000000D+00
373  3.7200000000000D+00  0.0000000000000D+00  0.0000000000000D+00
374  3.7300000000000D+00  0.0000000000000D+00  0.0000000000000D+00
375  3.7400000000000D+00  0.0000000000000D+00  0.0000000000000D+00
376  3.7500000000000D+00  0.0000000000000D+00  0.0000000000000D+00
377  3.7600000000000D+00  0.0000000000000D+00  0.0000000000000D+00
378  3.7700000000000D+00  0.0000000000000D+00  0.0000000000000D+00
379  3.7800000000000D+00  0.0000000000000D+00  0.0000000000000D+00
380  3.7900000000000D+00  0.0000000000000D+00  0.0000000000000D+00
381  3.8000000000000D+00  0.0000000000000D+00  0.0000000000000D+00
382  3.8100000000000D+00  0.0000000000000D+00  0.0000000000000D+00
383  3.8200000000000D+00  0.0000000000000D+00  0.0000000000000D+00
384  3.8300000000000D+00  0.0000000000000D+00  0.0000000000000D+00
385  3.8400000000000D+00  0.0000000000000D+00  0.0000000000000D+00
386  3.8500000000000D+00  0.0000000000000D+00  0.0000000000000D+00
387  3.8600000000000D+00  0.0000000000000D+00  0.0000000000000D+00
388  3.8700000000000D+00  0.0000000000000D+00  0.0000000000000D+00
389  3.8800000000000D+00  0.0000000000000D+00  0.0000000000000D+00
390  3.8900000000000D+00  0.0000000000000D+00  0.0000000000000D+00
391  3.9000000000000D+00  0.0000000000000D+00  0.0000000000000D+00
392  3.9100000000000D+00  0.0000000000000D+00  0.0000000000000D+00
393  3.9200000000000D+00  0.0000000000000D+00  0.0000000000000D+00
394  3.9300000000000D+00  0.0000000000000D+00  0.0000000000000D+00
395  3.9400000000000D+00  0.0000000000000D+00  0.0000000000000D+00
396  3.9500000000000D+00  0.0000000000000D+00  0.0000000000000D+00
397  3.9600000000000D+00  0.0000000000000D+00  0.0000000000000D+00
398  3.9700000000000D+00  0.0000000000000D+00  0.0000000000000D+00
399  3.9800000000000D+00  0.0000000000000D+00  0.0000000000000D+00
400  3.9900000000000D+00  0.0000000000000D+00  0.0000000000000D+00
401  4.0000000000000D+00  0.0000000000000D+00  0.0000000000000D+00
402  4.0100000000000D+00  0.0000000000000D+00  0.0000000000000D+00
403  4.0200000000000D+00  0.0000000000000D+00  0.0000000000000D+00
404  4.0300000000000D+00  0.0000000000000D+00  0.0000000000000D+00
405  4.0400000000000D+00  0.0000000000000D+00  0.0000000000000D+00
406  4.0500000000000D+00  0.0000000000000D+00  0.0000000000000D+00
407  4.0600000000000D+00  0.0000000000000D+00  0.0000000000000D+00
408  4.0700000000000D+00  0.0000000000000D+00  0.0000000000000D+00
409  4.0800000000000D+00  0.0000000000000D+00  0.0000000000000D+00
410  4.0900000000000D+00  0.0000000000000D+00  0.0000000000000D+00
411  4.1000000000000D+00  0.0000000000000D+00  0.0000000000000D+00
412  4.1100000000000D+00  0.0000000000000D+00  0.0000000000000D+00
413  4.1200000000000D+00  0.0000000000000D+00  0.0000000000000D+00
414  4.1300000000000D+00  0.0000000000000D+00  0.0000000000000D+00
415  4.1400000000000D+00  0.0000000000000D+00  0.0000000000000D+00
416  4.1500000000000D+00  0.0000000000000D+00  0.0000000000000D+00
417  4.1600000000000D+00  0.0000000000000D+00  0.0000000000000D+00
418  4.1700000000000D+00  0.0000000000000D+00  0.0000000000000D+00
419  4.1800000000000D+00  0.0000000000000D+00  0.0000000000000D+00
420  4.1900000000000D+00  0.0000000000000D+00  0.0000000000000D+00
421  4.2000000000000D+00  0.0000000000000D+00  0.0000000000000D+00
422  4.2100000000000D+00  0.0000000000000D+00  0.0000000000000D+00
423  4.2200000000000D+00  0.0000000000000D+00  0.0000000000000D+00
424  4.2300000000000D+00  0.0000000000000D+00  0.0000000000000D+00
425  4.2400000000000D+00  0.0000000000000D+00  0.0000000000000D+00
426  4.2500000000000D+00  0.0000000000000D+00  0.0000000000000D+00
427  4.2600000000000D+00  0.0000000000000D+00  0.0000000000000D+00
428  4.2700000000000D+00  0.0000000000000D+00  0.0000000000000D+00
429  4.2800000000000D+00  0.0000000000000D+00  0.0000000000000D+00
430  4.2900000000000D+00  0.0000000000000D+00  0.0000000000000D+00
431  4.3000000000000D+00  0.0000000000000D+00  0.0000000000000D+00
432  4.3100000000000D+00  0.0000000000000D+00  0.0000000000000D+00
433  4.3200000000000D+00  0.0000000000000D+00  0.0000000000000D+00
434  4.3300000000000D+00  0.0000000000000D+00  0.0000000000000D+00
435  4.3400000000000D+00  0.0000000000000D+00  0.0000000000000D+00
436  4.3500000000000D+00  0.0000000000000D+00  0.0000000000000D+00
437  4.3600000000000D+00  0.0000000000000D+00  0.0000000000000D+00
438  4.3700000000000D+00  0.0000000000000D+00  0.0000000000000D+00
439  4.3800000000000D+00  0.0000000000000D+00  0.0000000000000D+00
440  4.3900000000000D+00  0.0000000000000D+00  0.0000000000000D+00
441  4.4000000000000D+00  0.0000000000000D+00  0.0000000000000D+00
442  4.4100000000000D+00  0.0000000000000D+00  0.0000000000000D+00
443  4.4200000000000D+00  0.0000000000000D+00  0.0000000000000D+00
444  4.4300000000000D+00  0.0000000000000D+00  0.0000000000000D+00