Cu    ONCVPSP  r_core=  1.26  1.46  1.76
29.0000     19.0000      160520    zatom,zion,pspd
8      11   2     4   600     0    pspcod,pspxc,lmax,lloc,mmax,r2well
5.99000000  5.00000000  0.00000000    rchrg fchrg qchrg
2     3     2     0    nproj
3                 extension_switch
4     4     0    nprojso
0                        -4.3027202660090D-01  4.6992502390262D+00
1  0.0000000000000D+00 -2.1677899364470D-08 -8.2898294895273D-09
2  1.0000000000000D-02  3.6851388862369D-02  1.0561074829167D-01
3  2.0000000000000D-02  7.3061770537147D-02  2.1064034096114D-01
4  3.0000000000000D-02  1.0800462281077D-01  3.1451446085099D-01
5  4.0000000000000D-02  1.4108209958384D-01  4.1667235078867D-01
6  5.0000000000000D-02  1.7173864002683D-01  5.1657330338942D-01
7  6.0000000000000D-02  1.9947371886064D-01  6.1370280867369D-01
8  7.0000000000000D-02  2.2385347749625D-01  7.0757825538691D-01
9  8.0000000000000D-02  2.4452099744591D-01  7.9775409019902D-01
10  9.0000000000000D-02  2.6120500374120D-01  8.8382634903082D-01
11  1.0000000000000D-01  2.7372681656716D-01  9.6543648641556D-01
12  1.1000000000000D-01  2.8200540337142D-01  1.0422744418408D+00
13  1.2000000000000D-01  2.8606042069144D-01  1.1140808961841D+00
14  1.3000000000000D-01  2.8601317416342D-01  1.1806486863931D+00
15  1.4000000000000D-01  2.8208546589098D-01  1.2418233621813D+00
16  1.5000000000000D-01  2.7459633978870D-01  1.2975028844320D+00
17  1.6000000000000D-01  2.6395677688823D-01  1.3476364809136D+00
18  1.7000000000000D-01  2.5066243311361D-01  1.3922226905209D+00
19  1.8000000000000D-01  2.3528455092463D-01  1.4313066422748D+00
20  1.9000000000000D-01  2.1845921274399D-01  1.4649766294446D+00
21  2.0000000000000D-01  2.0087513752269D-01  1.4933600521485D+00
22  2.1000000000000D-01  1.8326025150859D-01  1.5166188133810D+00
23  2.2000000000000D-01  1.6636728968319D-01  1.5349442633969D+00
24  2.3000000000000D-01  1.5095870492050D-01  1.5485517955543D+00
25  2.4000000000000D-01  1.3779117728164D-01  1.5576752029267D+00
26  2.5000000000000D-01  1.2760002567545D-01  1.5625609091169D+00
27  2.6000000000000D-01  1.2108382817035D-01  1.5634621886551D+00
28  2.7000000000000D-01  1.1888955543170D-01  1.5606334921011D+00
29  2.8000000000000D-01  1.2159851408178D-01  1.5543249884963D+00
30  2.9000000000000D-01  1.2971338335192D-01  1.5447774331587D+00
31  3.0000000000000D-01  1.4364660943869D-01  1.5322174620749D+00
32  3.1000000000000D-01  1.6371039781794D-01  1.5168534054278D+00
33  3.2000000000000D-01  1.9010851483835D-01  1.4988717022778D+00
34  3.3000000000000D-01  2.2293007673268D-01  1.4784339862742D+00
35  3.4000000000000D-01  2.6214546735181D-01  1.4556748987417D+00
36  3.5000000000000D-01  3.0760448612454D-01  1.4307006708186D+00
37  3.6000000000000D-01  3.5903678570708D-01  1.4035885007945D+00
38  3.7000000000000D-01  4.1605461530296D-01  1.3743867366974D+00
39  3.8000000000000D-01  4.7815784151310D-01  1.3431158578235D+00
40  3.9000000000000D-01  5.4474117466363D-01  1.3097702326000D+00
41  4.0000000000000D-01  6.1510348568323D-01  1.2743206142334D+00
42  4.1000000000000D-01  6.8845905758936D-01  1.2367173203383D+00
43  4.2000000000000D-01  7.6395057728842D-01  1.1968940284532D+00
44  4.3000000000000D-01  8.4066363844432D-01  1.1547721063281D+00
45  4.4000000000000D-01  9.1764249531638D-01  1.1102653843489D+00
46  4.5000000000000D-01  9.9390678132655D-01  1.0632852677089D+00
47  4.6000000000000D-01  1.0684688852214D+00  1.0137460781174D+00
48  4.7000000000000D-01  1.1403516624834D+00  9.6157050913996D-01
49  4.8000000000000D-01  1.2086061504510D+00  9.0669507580458D-01
50  4.9000000000000D-01  1.2723289526496D+00  8.4907543796978D-01
51  5.0000000000000D-01  1.3306789612242D+00  7.8869147818121D-01
52  5.1000000000000D-01  1.3828930960681D+00  7.2555201832454D-01
53  5.2000000000000D-01  1.4283007551535D+00  6.5969906527697D-01
54  5.3000000000000D-01  1.4663366924135D+00  5.9121148386805D-01
55  5.4000000000000D-01  1.4965520669120D+00  5.2020800563007D-01
56  5.5000000000000D-01  1.5186234395656D+00  4.4684949390487D-01
57  5.6000000000000D-01  1.5323595306738D+00  3.7134039962027D-01
58  5.7000000000000D-01  1.5377055923464D+00  2.9392935722126D-01
59  5.8000000000000D-01  1.5347452939199D+00  2.1490888658999D-01
60  5.9000000000000D-01  1.5237000645825D+00  1.3461418391856D-01
61  6.0000000000000D-01  1.5049258851863D+00  5.3421002227491D-02
62  6.1000000000000D-01  1.4789075692827D+00 -2.8257359951962D-02
63  6.2000000000000D-01  1.4462506212423D+00 -1.0997392548798D-01
64  6.3000000000000D-01  1.4076708058282D+00 -1.9125270769347D-01
65  6.4000000000000D-01  1.3639816077083D+00 -2.7159411174216D-01
66  6.5000000000000D-01  1.3160798007898D+00 -3.5048098342366D-01
67  6.6000000000000D-01  1.2649293844562D+00 -4.2738520652347D-01
68  6.7000000000000D-01  1.2115441765125D+00 -5.0177473812410D-01
69  6.8000000000000D-01  1.1569693801814D+00 -5.7312096109369D-01
70  6.9000000000000D-01  1.1022624640312D+00 -6.4090622526028D-01
71  7.0000000000000D-01  1.0484737090579D+00 -7.0463144333508D-01
72  7.1000000000000D-01  9.9662678588056D-01 -7.6382360470445D-01
73  7.2000000000000D-01  9.4769972684725D-01 -8.1804306986037D-01
74  7.3000000000000D-01  9.0260665280035D-01 -8.6689051047790D-01
75  7.4000000000000D-01  8.6218060228438D-01 -9.1001336499035D-01
76  7.5000000000000D-01  8.2715779242887D-01 -9.4711168682289D-01
77  7.6000000000000D-01  7.9816361566145D-01 -9.7794327220829D-01
78  7.7000000000000D-01  7.7570064546346D-01 -1.0023279664669D+00
79  7.8000000000000D-01  7.6013888805026D-01 -1.0201510616082D+00
80  7.9000000000000D-01  7.5170847576171D-01 -1.0313657138675D+00
81  8.0000000000000D-01  7.5049495289218D-01 -1.0359943270220D+00
82  8.1000000000000D-01  7.5643725649188D-01 -1.0341288657255D+00
83  8.2000000000000D-01  7.6932844424014D-01 -1.0259300823206D+00
84  8.3000000000000D-01  7.8881916978027D-01 -1.0116256602651D+00
85  8.4000000000000D-01  8.1442385389784D-01 -9.9150729707653D-01
86  8.5000000000000D-01  8.4552944861737D-01 -9.6592676918338D-01
87  8.6000000000000D-01  8.8140664167475D-01 -9.3529103988961D-01
88  8.7000000000000D-01  9.2122330185693D-01 -9.0005648945688D-01
89  8.8000000000000D-01  9.6405992230404D-01 -8.6072236273667D-01
90  8.9000000000000D-01  1.0089267798951D+00 -8.1782354451904D-01
91  9.0000000000000D-01  1.0547824950607D+00 -7.7192278551724D-01
92  9.1000000000000D-01  1.1005536484603D+00 -7.2360251242125D-01
93  9.2000000000000D-01  1.1451550894979D+00 -6.7345636351601D-01
94  9.3000000000000D-01  1.1875105570676D+00 -6.2208059680365D-01
95  9.4000000000000D-01  1.2265732255435D+00 -5.7006552027661D-01
96  9.5000000000000D-01  1.2613457890211D+00 -5.1798709389309D-01
97  9.6000000000000D-01  1.2908997042299D+00 -4.6639884989803D-01
98  9.7000000000000D-01  1.3143932271832D+00 -4.1582427247389D-01
99  9.8000000000000D-01  1.3310879006485D+00 -3.6674976925375D-01
100  9.9000000000000D-01  1.3403631776574D+00 -3.1961835645444D-01
101  1.0000000000000D+00  1.3417289006378D+00 -2.7482416625144D-01
102  1.0100000000000D+00  1.3348353965557D+00 -2.3270786943790D-01
103  1.0200000000000D+00  1.3194809925717D+00 -1.9355308957454D-01
104  1.0300000000000D+00  1.2956168056695D+00 -1.5758386617095D-01
105  1.0400000000000D+00  1.2633487114343D+00 -1.2496320471972D-01
106  1.0500000000000D+00  1.2229364518575D+00 -9.5792730556315D-02
107  1.0600000000000D+00  1.1747898928756D+00 -7.0113444143666D-02
108  1.0700000000000D+00  1.1194625025913D+00 -4.7907552421273D-02
109  1.0800000000000D+00  1.0576421700739D+00 -2.9101332196412D-02
110  1.0900000000000D+00  9.9013953806184D-01 -1.3568961183806D-02
111  1.1000000000000D+00  9.1787407047131D-01 -1.1372341434184D-03
112  1.1100000000000D+00  8.4185811701963D-01  8.4089342381160D-03
113  1.1200000000000D+00  7.6317928177177D-01  1.5320335087102D-02
114  1.1300000000000D+00  6.8298143074876D-01  1.9876745916945D-02
115  1.1400000000000D+00  6.0244470289671D-01  2.2379803454412D-02
116  1.1500000000000D+00  5.2276490607992D-01  2.3145612811861D-02
117  1.1600000000000D+00  4.4513269734576D-01  2.2497243951812D-02
118  1.1700000000000D+00  3.7071295433860D-01  2.0757268586190D-02
119  1.1800000000000D+00  3.0062472706259D-01  1.8240486428025D-02
120  1.1900000000000D+00  2.3592196422665D-01  1.5246931643874D-02
121  1.2000000000000D+00  1.7757620817015D-01  1.2055534699055D-02
122  1.2100000000000D+00  1.2646053754626D-01  8.9182608296162D-03
123  1.2200000000000D+00  8.3337865050521D-02  6.0536405487239D-03
124  1.2300000000000D+00  4.8802165124703D-02  3.6371315073665D-03
125  1.2400000000000D+00  2.3155018051762D-02  1.7864341775745D-03
126  1.2500000000000D+00  7.3895127627317D-03  6.4302719520246D-04
127  1.2600000000000D+00  8.3345559755049D-04  1.6685965389736D-04
128  1.2700000000000D+00 -3.4126478201513D-04  2.3514411765164D-05
129  1.2800000000000D+00  8.4225724858176D-05 -1.3540663520027D-06
130  1.2900000000000D+00  5.8921123432366D-05  6.8980882351284D-09
131  1.3000000000000D+00 -2.2840607145229D-05  7.4515949274686D-07
132  1.3100000000000D+00 -3.7633378253980D-07 -1.5360924161861D-07
133  1.3200000000000D+00 -5.4914316065794D-07 -2.2414534214662D-07
134  1.3300000000000D+00  0.0000000000000D+00  0.0000000000000D+00
135  1.3400000000000D+00  0.0000000000000D+00  0.0000000000000D+00
136  1.3500000000000D+00  0.0000000000000D+00  0.0000000000000D+00
137  1.3600000000000D+00  0.0000000000000D+00  0.0000000000000D+00
138  1.3700000000000D+00  0.0000000000000D+00  0.0000000000000D+00
139  1.3800000000000D+00  0.0000000000000D+00  0.0000000000000D+00
140  1.3900000000000D+00  0.0000000000000D+00  0.0000000000000D+00
141  1.4000000000000D+00  0.0000000000000D+00  0.0000000000000D+00
142  1.4100000000000D+00  0.0000000000000D+00  0.0000000000000D+00
143  1.4200000000000D+00  0.0000000000000D+00  0.0000000000000D+00
144  1.4300000000000D+00  0.0000000000000D+00  0.0000000000000D+00
145  1.4400000000000D+00  0.0000000000000D+00  0.0000000000000D+00
146  1.4500000000000D+00  0.0000000000000D+00  0.0000000000000D+00
147  1.4600000000000D+00  0.0000000000000D+00  0.0000000000000D+00
148  1.4700000000000D+00  0.0000000000000D+00  0.0000000000000D+00
149  1.4800000000000D+00  0.0000000000000D+00  0.0000000000000D+00
150  1.4900000000000D+00  0.0000000000000D+00  0.0000000000000D+00
151  1.5000000000000D+00  0.0000000000000D+00  0.0000000000000D+00
152  1.5100000000000D+00  0.0000000000000D+00  0.0000000000000D+00
153  1.5200000000000D+00  0.0000000000000D+00  0.0000000000000D+00
154  1.5300000000000D+00  0.0000000000000D+00  0.0000000000000D+00
155  1.5400000000000D+00  0.0000000000000D+00  0.0000000000000D+00
156  1.5500000000000D+00  0.0000000000000D+00  0.0000000000000D+00
157  1.5600000000000D+00  0.0000000000000D+00  0.0000000000000D+00
158  1.5700000000000D+00  0.0000000000000D+00  0.0000000000000D+00
159  1.5800000000000D+00  0.0000000000000D+00  0.0000000000000D+00
160  1.5900000000000D+00  0.0000000000000D+00  0.0000000000000D+00
161  1.6000000000000D+00  0.0000000000000D+00  0.0000000000000D+00
162  1.6100000000000D+00  0.0000000000000D+00  0.0000000000000D+00
163  1.6200000000000D+00  0.0000000000000D+00  0.0000000000000D+00
164  1.6300000000000D+00  0.0000000000000D+00  0.0000000000000D+00
165  1.6400000000000D+00  0.0000000000000D+00  0.0000000000000D+00
166  1.6500000000000D+00  0.0000000000000D+00  0.0000000000000D+00
167  1.6600000000000D+00  0.0000000000000D+00  0.0000000000000D+00
168  1.6700000000000D+00  0.0000000000000D+00  0.0000000000000D+00
169  1.6800000000000D+00  0.0000000000000D+00  0.0000000000000D+00
170  1.6900000000000D+00  0.0000000000000D+00  0.0000000000000D+00
171  1.7000000000000D+00  0.0000000000000D+00  0.0000000000000D+00
172  1.7100000000000D+00  0.0000000000000D+00  0.0000000000000D+00
173  1.7200000000000D+00  0.0000000000000D+00  0.0000000000000D+00
174  1.7300000000000D+00  0.0000000000000D+00  0.0000000000000D+00
175  1.7400000000000D+00  0.0000000000000D+00  0.0000000000000D+00
176  1.7500000000000D+00  0.0000000000000D+00  0.0000000000000D+00
177  1.7600000000000D+00  0.0000000000000D+00  0.0000000000000D+00
178  1.7700000000000D+00  0.0000000000000D+00  0.0000000000000D+00
179  1.7800000000000D+00  0.0000000000000D+00  0.0000000000000D+00
180  1.7900000000000D+00  0.0000000000000D+00  0.0000000000000D+00
181  1.8000000000000D+00  0.0000000000000D+00  0.0000000000000D+00
182  1.8100000000000D+00  0.0000000000000D+00  0.0000000000000D+00
183  1.8200000000000D+00  0.0000000000000D+00  0.0000000000000D+00
184  1.8300000000000D+00  0.0000000000000D+00  0.0000000000000D+00
185  1.8400000000000D+00  0.0000000000000D+00  0.0000000000000D+00
186  1.8500000000000D+00  0.0000000000000D+00  0.0000000000000D+00
187  1.8600000000000D+00  0.0000000000000D+00  0.0000000000000D+00
188  1.8700000000000D+00  0.0000000000000D+00  0.0000000000000D+00
189  1.8800000000000D+00  0.0000000000000D+00  0.0000000000000D+00
190  1.8900000000000D+00  0.0000000000000D+00  0.0000000000000D+00
191  1.9000000000000D+00  0.0000000000000D+00  0.0000000000000D+00
192  1.9100000000000D+00  0.0000000000000D+00  0.0000000000000D+00
193  1.9200000000000D+00  0.0000000000000D+00  0.0000000000000D+00
194  1.9300000000000D+00  0.0000000000000D+00  0.0000000000000D+00
195  1.9400000000000D+00  0.0000000000000D+00  0.0000000000000D+00
196  1.9500000000000D+00  0.0000000000000D+00  0.0000000000000D+00
197  1.9600000000000D+00  0.0000000000000D+00  0.0000000000000D+00
198  1.9700000000000D+00  0.0000000000000D+00  0.0000000000000D+00
199  1.9800000000000D+00  0.0000000000000D+00  0.0000000000000D+00
200  1.9900000000000D+00  0.0000000000000D+00  0.0000000000000D+00
201  2.0000000000000D+00  0.0000000000000D+00  0.0000000000000D+00
202  2.0100000000000D+00  0.0000000000000D+00  0.0000000000000D+00
203  2.0200000000000D+00  0.0000000000000D+00  0.0000000000000D+00
204  2.0300000000000D+00  0.0000000000000D+00  0.0000000000000D+00
205  2.0400000000000D+00  0.0000000000000D+00  0.0000000000000D+00
206  2.0500000000000D+00  0.0000000000000D+00  0.0000000000000D+00
207  2.0600000000000D+00  0.0000000000000D+00  0.0000000000000D+00
208  2.0700000000000D+00  0.0000000000000D+00  0.0000000000000D+00
209  2.0800000000000D+00  0.0000000000000D+00  0.0000000000000D+00
210  2.0900000000000D+00  0.0000000000000D+00  0.0000000000000D+00
211  2.1000000000000D+00  0.0000000000000D+00  0.0000000000000D+00
212  2.1100000000000D+00  0.0000000000000D+00  0.0000000000000D+00
213  2.1200000000000D+00  0.0000000000000D+00  0.0000000000000D+00
214  2.1300000000000D+00  0.0000000000000D+00  0.0000000000000D+00
215  2.1400000000000D+00  0.0000000000000D+00  0.0000000000000D+00
216  2.1500000000000D+00  0.0000000000000D+00  0.0000000000000D+00
217  2.1600000000000D+00  0.0000000000000D+00  0.0000000000000D+00
218  2.1700000000000D+00  0.0000000000000D+00  0.0000000000000D+00
219  2.1800000000000D+00  0.0000000000000D+00  0.0000000000000D+00
220  2.1900000000000D+00  0.0000000000000D+00  0.0000000000000D+00
221  2.2000000000000D+00  0.0000000000000D+00  0.0000000000000D+00
222  2.2100000000000D+00  0.0000000000000D+00  0.0000000000000D+00
223  2.2200000000000D+00  0.0000000000000D+00  0.0000000000000D+00
224  2.2300000000000D+00  0.0000000000000D+00  0.0000000000000D+00
225  2.2400000000000D+00  0.0000000000000D+00  0.0000000000000D+00
226  2.2500000000000D+00  0.0000000000000D+00  0.0000000000000D+00
227  2.2600000000000D+00  0.0000000000000D+00  0.0000000000000D+00
228  2.2700000000000D+00  0.0000000000000D+00  0.0000000000000D+00
229  2.2800000000000D+00  0.0000000000000D+00  0.0000000000000D+00
230  2.2900000000000D+00  0.0000000000000D+00  0.0000000000000D+00
231  2.3000000000000D+00  0.0000000000000D+00  0.0000000000000D+00
232  2.3100000000000D+00  0.0000000000000D+00  0.0000000000000D+00
233  2.3200000000000D+00  0.0000000000000D+00  0.0000000000000D+00
234  2.3300000000000D+00  0.0000000000000D+00  0.0000000000000D+00
235  2.3400000000000D+00  0.0000000000000D+00  0.0000000000000D+00
236  2.3500000000000D+00  0.0000000000000D+00  0.0000000000000D+00
237  2.3600000000000D+00  0.0000000000000D+00  0.0000000000000D+00
238  2.3700000000000D+00  0.0000000000000D+00  0.0000000000000D+00
239  2.3800000000000D+00  0.0000000000000D+00  0.0000000000000D+00
240  2.3900000000000D+00  0.0000000000000D+00  0.0000000000000D+00
241  2.4000000000000D+00  0.0000000000000D+00  0.0000000000000D+00
242  2.4100000000000D+00  0.0000000000000D+00  0.0000000000000D+00
243  2.4200000000000D+00  0.0000000000000D+00  0.0000000000000D+00
244  2.4300000000000D+00  0.0000000000000D+00  0.0000000000000D+00
245  2.4400000000000D+00  0.0000000000000D+00  0.0000000000000D+00
246  2.4500000000000D+00  0.0000000000000D+00  0.0000000000000D+00
247  2.4600000000000D+00  0.0000000000000D+00  0.0000000000000D+00
248  2.4700000000000D+00  0.0000000000000D+00  0.0000000000000D+00
249  2.4800000000000D+00  0.0000000000000D+00  0.0000000000000D+00
250  2.4900000000000D+00  0.0000000000000D+00  0.0000000000000D+00
251  2.5000000000000D+00  0.0000000000000D+00  0.0000000000000D+00
252  2.5100000000000D+00  0.0000000000000D+00  0.0000000000000D+00
253  2.5200000000000D+00  0.0000000000000D+00  0.0000000000000D+00
254  2.5300000000000D+00  0.0000000000000D+00  0.0000000000000D+00
255  2.5400000000000D+00  0.0000000000000D+00  0.0000000000000D+00
256  2.5500000000000D+00  0.0000000000000D+00  0.0000000000000D+00
257  2.5600000000000D+00  0.0000000000000D+00  0.0000000000000D+00
258  2.5700000000000D+00  0.0000000000000D+00  0.0000000000000D+00
259  2.5800000000000D+00  0.0000000000000D+00  0.0000000000000D+00
260  2.5900000000000D+00  0.0000000000000D+00  0.0000000000000D+00
261  2.6000000000000D+00  0.0000000000000D+00  0.0000000000000D+00
262  2.6100000000000D+00  0.0000000000000D+00  0.0000000000000D+00
263  2.6200000000000D+00  0.0000000000000D+00  0.0000000000000D+00
264  2.6300000000000D+00  0.0000000000000D+00  0.0000000000000D+00
265  2.6400000000000D+00  0.0000000000000D+00  0.0000000000000D+00
266  2.6500000000000D+00  0.0000000000000D+00  0.0000000000000D+00
267  2.6600000000000D+00  0.0000000000000D+00  0.0000000000000D+00
268  2.6700000000000D+00  0.0000000000000D+00  0.0000000000000D+00
269  2.6800000000000D+00  0.0000000000000D+00  0.0000000000000D+00
270  2.6900000000000D+00  0.0000000000000D+00  0.0000000000000D+00
271  2.7000000000000D+00  0.0000000000000D+00  0.0000000000000D+00
272  2.7100000000000D+00  0.0000000000000D+00  0.0000000000000D+00
273  2.7200000000000D+00  0.0000000000000D+00  0.0000000000000D+00
274  2.7300000000000D+00  0.0000000000000D+00  0.0000000000000D+00
275  2.7400000000000D+00  0.0000000000000D+00  0.0000000000000D+00
276  2.7500000000000D+00  0.0000000000000D+00  0.0000000000000D+00
277  2.7600000000000D+00  0.0000000000000D+00  0.0000000000000D+00
278  2.7700000000000D+00  0.0000000000000D+00  0.0000000000000D+00
279  2.7800000000000D+00  0.0000000000000D+00  0.0000000000000D+00
280  2.7900000000000D+00  0.0000000000000D+00  0.0000000000000D+00
281  2.8000000000000D+00  0.0000000000000D+00  0.0000000000000D+00
282  2.8100000000000D+00  0.0000000000000D+00  0.0000000000000D+00
283  2.8200000000000D+00  0.0000000000000D+00  0.0000000000000D+00
284  2.8300000000000D+00  0.0000000000000D+00  0.0000000000000D+00
285  2.8400000000000D+00  0.0000000000000D+00  0.0000000000000D+00
286  2.8500000000000D+00  0.0000000000000D+00  0.0000000000000D+00
287  2.8600000000000D+00  0.0000000000000D+00  0.0000000000000D+00
288  2.8700000000000D+00  0.0000000000000D+00  0.0000000000000D+00
289  2.8800000000000D+00  0.0000000000000D+00  0.0000000000000D+00
290  2.8900000000000D+00  0.0000000000000D+00  0.0000000000000D+00
291  2.9000000000000D+00  0.0000000000000D+00  0.0000000000000D+00
292  2.9100000000000D+00  0.0000000000000D+00  0.0000000000000D+00
293  2.9200000000000D+00  0.0000000000000D+00  0.0000000000000D+00
294  2.9300000000000D+00  0.0000000000000D+00  0.0000000000000D+00
295  2.9400000000000D+00  0.0000000000000D+00  0.0000000000000D+00
296  2.9500000000000D+00  0.0000000000000D+00  0.0000000000000D+00
297  2.9600000000000D+00  0.0000000000000D+00  0.0000000000000D+00
298  2.9700000000000D+00  0.0000000000000D+00  0.0000000000000D+00
299  2.9800000000000D+00  0.0000000000000D+00  0.0000000000000D+00
300  2.9900000000000D+00  0.0000000000000D+00  0.0000000000000D+00
301  3.0000000000000D+00  0.0000000000000D+00  0.0000000000000D+00
302  3.0100000000000D+00  0.0000000000000D+00  0.0000000000000D+00
303  3.0200000000000D+00  0.0000000000000D+00  0.0000000000000D+00
304  3.0300000000000D+00  0.0000000000000D+00  0.0000000000000D+00
305  3.0400000000000D+00  0.0000000000000D+00  0.0000000000000D+00
306  3.0500000000000D+00  0.0000000000000D+00  0.0000000000000D+00
307  3.0600000000000D+00  0.0000000000000D+00  0.0000000000000D+00
308  3.0700000000000D+00  0.0000000000000D+00  0.0000000000000D+00
309  3.0800000000000D+00  0.0000000000000D+00  0.0000000000000D+00
310  3.0900000000000D+00  0.0000000000000D+00  0.0000000000000D+00
311  3.1000000000000D+00  0.0000000000000D+00  0.0000000000000D+00
312  3.1100000000000D+00  0.0000000000000D+00  0.0000000000000D+00
313  3.1200000000000D+00  0.0000000000000D+00  0.0000000000000D+00
314  3.1300000000000D+00  0.0000000000000D+00  0.0000000000000D+00
315  3.1400000000000D+00  0.0000000000000D+00  0.0000000000000D+00
316  3.1500000000000D+00  0.0000000000000D+00  0.0000000000000D+00
317  3.1600000000000D+00  0.0000000000000D+00  0.0000000000000D+00
318  3.1700000000000D+00  0.0000000000000D+00  0.0000000000000D+00
319  3.1800000000000D+00  0.0000000000000D+00  0.0000000000000D+00
320  3.1900000000000D+00  0.0000000000000D+00  0.0000000000000D+00
321  3.2000000000000D+00  0.0000000000000D+00  0.0000000000000D+00
322  3.2100000000000D+00  0.0000000000000D+00  0.0000000000000D+00
323  3.2200000000000D+00  0.0000000000000D+00  0.0000000000000D+00
324  3.2300000000000D+00  0.0000000000000D+00  0.0000000000000D+00
325  3.2400000000000D+00  0.0000000000000D+00  0.0000000000000D+00
326  3.2500000000000D+00  0.0000000000000D+00  0.0000000000000D+00
327  3.2600000000000D+00  0.0000000000000D+00  0.0000000000000D+00
328  3.2700000000000D+00  0.0000000000000D+00  0.0000000000000D+00
329  3.2800000000000D+00  0.0000000000000D+00  0.0000000000000D+00
330  3.2900000000000D+00  0.0000000000000D+00  0.0000000000000D+00
331  3.3000000000000D+00  0.0000000000000D+00  0.0000000000000D+00
332  3.3100000000000D+00  0.0000000000000D+00  0.0000000000000D+00
333  3.3200000000000D+00  0.0000000000000D+00  0.0000000000000D+00
334  3.3300000000000D+00  0.0000000000000D+00  0.0000000000000D+00
335  3.3400000000000D+00  0.0000000000000D+00  0.0000000000000D+00
336  3.3500000000000D+00  0.0000000000000D+00  0.0000000000000D+00
337  3.3600000000000D+00  0.0000000000000D+00  0.0000000000000D+00
338  3.3700000000000D+00  0.0000000000000D+00  0.0000000000000D+00
339  3.3800000000000D+00  0.0000000000000D+00  0.0000000000000D+00
340  3.3900000000000D+00  0.0000000000000D+00  0.0000000000000D+00
341  3.4000000000000D+00  0.0000000000000D+00  0.0000000000000D+00
342  3.4100000000000D+00  0.0000000000000D+00  0.0000000000000D+00
343  3.4200000000000D+00  0.0000000000000D+00  0.0000000000000D+00
344  3.4300000000000D+00  0.0000000000000D+00  0.0000000000000D+00
345  3.4400000000000D+00  0.0000000000000D+00  0.0000000000000D+00
346  3.4500000000000D+00  0.0000000000000D+00  0.0000000000000D+00
347  3.4600000000000D+00  0.0000000000000D+00  0.0000000000000D+00
348  3.4700000000000D+00  0.0000000000000D+00  0.0000000000000D+00
349  3.4800000000000D+00  0.0000000000000D+00  0.0000000000000D+00
350  3.4900000000000D+00  0.0000000000000D+00  0.0000000000000D+00
351  3.5000000000000D+00  0.0000000000000D+00  0.0000000000000D+00
352  3.5100000000000D+00  0.0000000000000D+00  0.0000000000000D+00
353  3.5200000000000D+00  0.0000000000000D+00  0.0000000000000D+00
354  3.5300000000000D+00  0.0000000000000D+00  0.0000000000000D+00
355  3.5400000000000D+00  0.0000000000000D+00  0.0000000000000D+00
356  3.5500000000000D+00  0.0000000000000D+00  0.0000000000000D+00
357  3.5600000000000D+00  0.0000000000000D+00  0.0000000000000D+00
358  3.5700000000000D+00  0.0000000000000D+00  0.0000000000000D+00
359  3.5800000000000D+00  0.0000000000000D+00  0.0000000000000D+00
360  3.5900000000000D+00  0.0000000000000D+00  0.0000000000000D+00
361  3.6000000000000D+00  0.0000000000000D+00  0.0000000000000D+00
362  3.6100000000000D+00  0.0000000000000D+00  0.0000000000000D+00
363  3.6200000000000D+00  0.0000000000000D+00  0.0000000000000D+00
364  3.6300000000000D+00  0.0000000000000D+00  0.0000000000000D+00
365  3.6400000000000D+00  0.0000000000000D+00  0.0000000000000D+00
366  3.6500000000000D+00  0.0000000000000D+00  0.0000000000000D+00
367  3.6600000000000D+00  0.0000000000000D+00  0.0000000000000D+00
368  3.6700000000000D+00  0.0000000000000D+00  0.0000000000000D+00
369  3.6800000000000D+00  0.0000000000000D+00  0.0000000000000D+00
370  3.6900000000000D+00  0.0000000000000D+00  0.0000000000000D+00
371  3.7000000000000D+00  0.0000000000000D+00  0.0000000000000D+00
372  3.7100000000000D+00  0.0000000000000D+00  0.0000000000000D+00
373  3.7200000000000D+00  0.0000000000000D+00  0.0000000000000D+00
374  3.7300000000000D+00  0.0000000000000D+00  0.0000000000000D+00
375  3.7400000000000D+00  0.0000000000000D+00  0.0000000000000D+00
376  3.7500000000000D+00  0.0000000000000D+00  0.0000000000000D+00
377  3.7600000000000D+00  0.0000000000000D+00  0.0000000000000D+00
378  3.7700000000000D+00  0.0000000000000D+00  0.0000000000000D+00
379  3.7800000000000D+00  0.0000000000000D+00  0.0000000000000D+00
380  3.7900000000000D+00  0.0000000000000D+00  0.0000000000000D+00
381  3.8000000000000D+00  0.0000000000000D+00  0.0000000000000D+00
382  3.8100000000000D+00  0.0000000000000D+00  0.0000000000000D+00
383  3.8200000000000D+00  0.0000000000000D+00  0.0000000000000D+00
384  3.8300000000000D+00  0.0000000000000D+00  0.0000000000000D+00
385  3.8400000000000D+00  0.0000000000000D+00  0.0000000000000D+00
386  3.8500000000000D+00  0.0000000000000D+00  0.0000000000000D+00
387  3.8600000000000D+00  0.0000000000000D+00  0.0000000000000D+00
388  3.8700000000000D+00  0.0000000000000D+00  0.0000000000000D+00
389  3.8800000000000D+00  0.0000000000000D+00  0.0000000000000D+00
390  3.8900000000000D+00  0.0000000000000D+00  0.0000000000000D+00
391  3.9000000000000D+00  0.0000000000000D+00  0.0000000000000D+00
392  3.9100000000000D+00  0.0000000000000D+00  0.0000000000000D+00
393  3.9200000000000D+00  0.0000000000000D+00  0.0000000000000D+00
394  3.9300000000000D+00  0.0000000000000D+00  0.0000000000000D+00
395  3.9400000000000D+00  0.0000000000000D+00  0.0000000000000D+00
396  3.9500000000000D+00  0.0000000000000D+00  0.0000000000000D+00
397  3.9600000000000D+00  0.0000000000000D+00  0.0000000000000D+00
398  3.9700000000000D+00  0.0000000000000D+00  0.0000000000000D+00
399  3.9800000000000D+00  0.0000000000000D+00  0.0000000000000D+00
400  3.9900000000000D+00  0.0000000000000D+00  0.0000000000000D+00
401  4.0000000000000D+00  0.0000000000000D+00  0.0000000000000D+00
402  4.0100000000000D+00  0.0000000000000D+00  0.0000000000000D+00
403  4.0200000000000D+00  0.0000000000000D+00  0.0000000000000D+00
404  4.0300000000000D+00  0.0000000000000D+00  0.0000000000000D+00
405  4.0400000000000D+00  0.0000000000000D+00  0.0000000000000D+00
406  4.0500000000000D+00  0.0000000000000D+00  0.0000000000000D+00
407  4.0600000000000D+00  0.0000000000000D+00  0.0000000000000D+00
408  4.0700000000000D+00  0.0000000000000D+00  0.0000000000000D+00
409  4.0800000000000D+00  0.0000000000000D+00  0.0000000000000D+00
410  4.0900000000000D+00  0.0000000000000D+00  0.0000000000000D+00
411  4.1000000000000D+00  0.0000000000000D+00  0.0000000000000D+00
412  4.1100000000000D+00  0.0000000000000D+00  0.0000000000000D+00
413  4.1200000000000D+00  0.0000000000000D+00  0.0000000000000D+00
414  4.1300000000000D+00  0.0000000000000D+00  0.0000000000000D+00
415  4.1400000000000D+00  0.0000000000000D+00  0.0000000000000D+00
416  4.1500000000000D+00  0.0000000000000D+00  0.0000000000000D+00
417  4.1600000000000D+00  0.0000000000000D+00  0.0000000000000D+00
418  4.1700000000000D+00  0.0000000000000D+00  0.0000000000000D+00
419  4.1800000000000D+00  0.0000000000000D+00  0.0000000000000D+00
420  4.1900000000000D+00  0.0000000000000D+00  0.0000000000000D+00
421  4.2000000000000D+00  0.0000000000000D+00  0.0000000000000D+00
422  4.2100000000000D+00  0.0000000000000D+00  0.0000000000000D+00
423  4.2200000000000D+00  0.0000000000000D+00  0.0000000000000D+00
424  4.2300000000000D+00  0.0000000000000D+00  0.0000000000000D+00
425  4.2400000000000D+00  0.0000000000000D+00  0.0000000000000D+00
426  4.2500000000000D+00  0.0000000000000D+00  0.0000000000000D+00
427  4.2600000000000D+00  0.0000000000000D+00  0.0000000000000D+00
428  4.2700000000000D+00  0.0000000000000D+00  0.0000000000000D+00
429  4.2800000000000D+00  0.0000000000000D+00  0.0000000000000D+00
430  4.2900000000000D+00  0.0000000000000D+00  0.0000000000000D+00
431  4.3000000000000D+00  0.0000000000000D+00  0.0000000000000D+00
432  4.3100000000000D+00  0.0000000000000D+00  0.0000000000000D+00
433  4.3200000000000D+00  0.0000000000000D+00  0.0000000000000D+00
434  4.3300000000000D+00  0.0000000000000D+00  0.0000000000000D+00
435  4.3400000000000D+00  0.0000000000000D+00  0.0000000000000D+00
436  4.3500000000000D+00  0.0000000000000D+00  0.0000000000000D+00
437  4.3600000000000D+00  0.0000000000000D+00  0.0000000000000D+00
438  4.3700000000000D+00  0.0000000000000D+00  0.0000000000000D+00
439  4.3800000000000D+00  0.0000000000000D+00  0.0000000000000D+00
440  4.3900000000000D+00  0.0000000000000D+00  0.0000000000000D+00
441  4.4000000000000D+00  0.0000000000000D+00  0.0000000000000D+00
442  4.4100000000000D+00  0.0000000000000D+00  0.0000000000000D+00
443  4.4200000000000D+00  0.0000000000000D+00  0.0000000000000D+00