Zn    ONCVPSP  r_core=  1.36  1.66  1.85
30.0000     20.0000      150706    zatom,zion,pspd
8      11   2     4   600     0    pspcod,pspxc,lmax,lloc,mmax,r2well
5.99000000  5.00000000  0.00000000    rchrg fchrg qchrg
2     2     2     0     0    nproj
1                 extension_switch
0                         2.4042352875703D+00 -1.5334511624072D+00
1  0.0000000000000D+00  2.3352182076941D-08  8.2900447617718D-10
2  1.0000000000000D-02  6.4816374076603D-02  2.9386745146503D-02
3  2.0000000000000D-02  1.2979239230525D-01  5.8796691235259D-02
4  3.0000000000000D-02  1.9507788648101D-01  8.8252475547946D-02
5  4.0000000000000D-02  2.6080332162156D-01  1.1777561825821D-01
6  5.0000000000000D-02  3.2707075122489D-01  1.4738598919097D-01
7  6.0000000000000D-02  3.9394552170125D-01  1.7710130434781D-01
8  7.0000000000000D-02  4.6144894746648D-01  2.0693666111938D-01
9  8.0000000000000D-02  5.2955215483146D-01  2.3690412027621D-01
10  9.0000000000000D-02  5.9817126467404D-01  2.6701234182942D-01
11  1.0000000000000D-01  6.6716405159346D-01  2.9726628070360D-01
12  1.1000000000000D-01  7.3632818158034D-01  3.2766694689259D-01
13  1.2000000000000D-01  8.0540109202312D-01  3.5821123340365D-01
14  1.3000000000000D-01  8.7406153801289D-01  3.8889181386751D-01
15  1.4000000000000D-01  9.4193278833900D-01  4.1969711023328D-01
16  1.5000000000000D-01  1.0085874142441D+00  4.5061132951178D-01
17  1.6000000000000D-01  1.0735535748807D+00  4.8161456711045D-01
18  1.7000000000000D-01  1.1363226664092D+00  5.1268297295082D-01
19  1.8000000000000D-01  1.1963581676760D+00  5.4378897530533D-01
20  1.9000000000000D-01  1.2531054852244D+00  5.7490155616240D-01
21  2.0000000000000D-01  1.3060025747421D+00  6.0598657095294D-01
22  2.1000000000000D-01  1.3544910955583D+00  6.3700710466860D-01
23  2.2000000000000D-01  1.3980278399716D+00  6.6792385579103D-01
24  2.3000000000000D-01  1.4360961703970D+00  6.9869553904424D-01
25  2.4000000000000D-01  1.4682171947805D+00  7.2927929778879D-01
26  2.5000000000000D-01  1.4939604145537D+00  7.5963111689892D-01
27  2.6000000000000D-01  1.5129535895068D+00  7.8970622720207D-01
28  2.7000000000000D-01  1.5248915801534D+00  8.1945949300686D-01
29  2.8000000000000D-01  1.5295439500829D+00  8.4884577488987D-01
30  2.9000000000000D-01  1.5267611379747D+00  8.7782026073688D-01
31  3.0000000000000D-01  1.5164790407568D+00  9.0633875902126D-01
32  3.1000000000000D-01  1.4987218851222D+00  9.3435794942617D-01
33  3.2000000000000D-01  1.4736033034509D+00  9.6183558715094D-01
34  3.3000000000000D-01  1.4413255712305D+00  9.8873065855634D-01
35  3.4000000000000D-01  1.4021770053778D+00  1.0150034871655D+00
36  3.5000000000000D-01  1.3565275654611D+00  1.0406157904147D+00
37  3.6000000000000D-01  1.3048227417103D+00  1.0655306889078D+00
38  3.7000000000000D-01  1.2475758539002D+00  1.0897126712363D+00
39  3.8000000000000D-01  1.1853589227550D+00  1.1131275186503D+00
40  3.9000000000000D-01  1.1187923095593D+00  1.1357421949799D+00
41  4.0000000000000D-01  1.0485333493533D+00  1.1575247081749D+00
42  4.1000000000000D-01  9.7526422772964D-01  1.1784439506356D+00
43  4.2000000000000D-01  8.9967937022006D-01  1.1984695261313D+00
44  4.3000000000000D-01  8.2247262609959D-01  1.2175715715157D+00
45  4.4000000000000D-01  7.4432453479261D-01  1.2357205816595D+00
46  4.5000000000000D-01  6.6588996276548D-01  1.2528872460010D+00
47  4.6000000000000D-01  5.8778639178912D-01  1.2690423048851D+00
48  4.7000000000000D-01  5.1058312587753D-01  1.2841564334056D+00
49  4.8000000000000D-01  4.3479166432907D-01  1.2982001598116D+00
50  4.9000000000000D-01  3.6085746253134D-01  1.3111438246808D+00
51  5.0000000000000D-01  2.8915327111550D-01  1.3229575860443D+00
52  5.1000000000000D-01  2.1997420832491D-01  1.3336114744624D+00
53  5.2000000000000D-01  1.5353468091424D-01  1.3430755007572D+00
54  5.3000000000000D-01  8.9967226406792D-02  1.3513198177096D+00
55  5.4000000000000D-01  2.9323305096443D-02  1.3583149355738D+00
56  5.5000000000000D-01 -2.8423975278356D-02  1.3640319897818D+00
57  5.6000000000000D-01 -8.3375264509028D-02  1.3684430577362D+00
58  5.7000000000000D-01 -1.3569861109749D-01  1.3715215201634D+00
59  5.8000000000000D-01 -1.8562148812453D-01  1.3732424611465D+00
60  5.9000000000000D-01 -2.3342139114169D-01  1.3735830997269D+00
61  6.0000000000000D-01 -2.7941523009348D-01  1.3725232448648D+00
62  6.1000000000000D-01 -3.2394776710496D-01  1.3700457646335D+00
63  6.2000000000000D-01 -3.6737937602710D-01  1.3661370597942D+00
64  6.3000000000000D-01 -4.1007341755826D-01  1.3607875313934D+00
65  6.4000000000000D-01 -4.5238353484314D-01  1.3539920317443D+00
66  6.5000000000000D-01 -4.9464117860350D-01  1.3457502881218D+00
67  6.6000000000000D-01 -5.3714366774067D-01  1.3360672887112D+00
68  6.7000000000000D-01 -5.8014308118282D-01  1.3249536208029D+00
69  6.8000000000000D-01 -6.2383625950377D-01  1.3124257519249D+00
70  6.9000000000000D-01 -6.6835617102561D-01  1.2985062455202D+00
71  7.0000000000000D-01 -7.1376486708288D-01  1.2832239039094D+00
72  7.1000000000000D-01 -7.6004821588007D-01  1.2666138325860D+00
73  7.2000000000000D-01 -8.0711256395431D-01  1.2487174213719D+00
74  7.3000000000000D-01 -8.5478343047512D-01  1.2295822395583D+00
75  7.4000000000000D-01 -9.0280629276353D-01  1.2092618438497D+00
76  7.5000000000000D-01 -9.5084947280134D-01  1.1878154996849D+00
77  7.6000000000000D-01 -9.9850908541470D-01  1.1653078182706D+00
78  7.7000000000000D-01 -1.0453159599335D+00  1.1418083134216D+00
79  7.8000000000000D-01 -1.0907444000223D+00  1.1173908839847D+00
80  7.9000000000000D-01 -1.1342226019617D+00  1.0921332292174D+00
81  8.0000000000000D-01 -1.1751445109326D+00  1.0661162059510D+00
82  8.1000000000000D-01 -1.2128828588781D+00  1.0394231376559D+00
83  8.2000000000000D-01 -1.2468030971130D+00  1.0121390866222D+00
84  8.3000000000000D-01 -1.2762779127761D+00  9.8435010133509D-01
85  8.4000000000000D-01 -1.3007020010692D+00  9.5614245175082D-01
86  8.5000000000000D-01 -1.3195067554621D+00  9.2760186554240D-01
87  8.6000000000000D-01 -1.3321745359339D+00  8.9881277847606D-01
88  8.7000000000000D-01 -1.3382521809893D+00  8.6985761189907D-01
89  8.8000000000000D-01 -1.3373634425566D+00  8.4081608986420D-01
90  8.9000000000000D-01 -1.3292200437019D+00  8.1176460769596D-01
91  9.0000000000000D-01 -1.3136310869617D+00  7.8277566283357D-01
92  9.1000000000000D-01 -1.2905105754202D+00  7.5391735758313D-01
93  9.2000000000000D-01 -1.2598828487043D+00  7.2525298200289D-01
94  9.3000000000000D-01 -1.2218857809698D+00  6.9684068356016D-01
95  9.4000000000000D-01 -1.1767716367156D+00  6.6873322846959D-01
96  9.5000000000000D-01 -1.1249055318095D+00  6.4097785778773D-01
97  9.6000000000000D-01 -1.0667615001966D+00  6.1361623944079D-01
98  9.7000000000000D-01 -1.0029162208781D+00  5.8668451541656D-01
99  9.8000000000000D-01 -9.3404051141235D-01  5.6021344148352D-01
100  9.9000000000000D-01 -8.6088874627066D-01  5.3422861490250D-01
101  1.0000000000000D+00 -7.8428640546421D-01  5.0875078386366D-01
102  1.0100000000000D+00 -7.0511600225145D-01  4.8379623076585D-01
103  1.0200000000000D+00 -6.2430167698924D-01  4.5937722000707D-01
104  1.0300000000000D+00 -5.4279277614847D-01  4.3550249971572D-01
105  1.0400000000000D+00 -4.6154676055080D-01  4.1217784583800D-01
106  1.0500000000000D+00 -3.8151180388507D-01  3.8940663627226D-01
107  1.0600000000000D+00 -3.0360945322420D-01  3.6719044219702D-01
108  1.0700000000000D+00 -2.2871772336654D-01  3.4552962358606D-01
109  1.0800000000000D+00 -1.5765499069421D-01  3.2442391594717D-01
110  1.0900000000000D+00 -9.1165034258239D-02  3.0387299576377D-01
111  1.1000000000000D+00 -2.9903554495588D-02  2.8387701257740D-01
112  1.1100000000000D+00  2.5573537293360D-02  2.6443707673306D-01
113  1.1200000000000D+00  7.4819798331448D-02  2.4555569280569D-01
114  1.1300000000000D+00  1.1750569071261D-01  2.2723713022447D-01
115  1.1400000000000D+00  1.5342360304115D-01  2.0948772387444D-01
116  1.1500000000000D+00  1.8249034495468D-01  1.9231609933851D-01
117  1.1600000000000D+00  2.0474705530573D-01  1.7573331915979D-01
118  1.1700000000000D+00  2.2035652621093D-01  1.5975294850456D-01
119  1.1800000000000D+00  2.2959798603283D-01  1.4439103993745D-01
120  1.1900000000000D+00  2.3285946084521D-01  1.2966603954270D-01
121  1.2000000000000D+00  2.3062787798673D-01  1.1559861810048D-01
122  1.2100000000000D+00  2.2347712517958D-01  1.0221143270345D-01
123  1.2200000000000D+00  2.1205432000983D-01  8.9528825584579D-02
124  1.2300000000000D+00  1.9706459996233D-01  7.7576468831588D-02
125  1.2400000000000D+00  1.7925476386309D-01  6.6380964418606D-02
126  1.2500000000000D+00  1.5939611781356D-01  5.5969409731823D-02
127  1.2600000000000D+00  1.3826691688525D-01  4.6368940184676D-02
128  1.2700000000000D+00  1.1663478410301D-01  3.7606260571862D-02
129  1.2800000000000D+00  9.5239478133365D-02  2.9707174249564D-02
130  1.2900000000000D+00  7.4776484291707D-02  2.2696131606806D-02
131  1.3000000000000D+00  5.5881421803577D-02  1.6595770212232D-02
132  1.3100000000000D+00  3.9116897537286D-02  1.1426593646151D-02
133  1.3200000000000D+00  2.4968381772120D-02  7.2092344602058D-03
134  1.3300000000000D+00  1.3746875659551D-02  3.9391682631162D-03
135  1.3400000000000D+00  5.8273427967355D-03  1.6587556674875D-03
136  1.3500000000000D+00  1.5451002655440D-03  4.2763193058719D-04
137  1.3600000000000D+00  4.3922225399439D-05 -2.1992164722440D-06
138  1.3700000000000D+00 -8.5114472846861D-05 -2.8840333986840D-05
139  1.3800000000000D+00  4.6549945853308D-05  1.5002541841144D-05
140  1.3900000000000D+00  8.8067734936375D-06  2.7881689495630D-06
141  1.4000000000000D+00 -8.2673433119292D-06 -2.7525678885525D-06
142  1.4100000000000D+00 -2.3112558198998D-07 -4.4992156750596D-08
143  1.4200000000000D+00 -3.5607628948721D-07 -6.9315737764042D-08
144  1.4300000000000D+00  0.0000000000000D+00  0.0000000000000D+00
145  1.4400000000000D+00  0.0000000000000D+00  0.0000000000000D+00
146  1.4500000000000D+00  0.0000000000000D+00  0.0000000000000D+00
147  1.4600000000000D+00  0.0000000000000D+00  0.0000000000000D+00
148  1.4700000000000D+00  0.0000000000000D+00  0.0000000000000D+00
149  1.4800000000000D+00  0.0000000000000D+00  0.0000000000000D+00
150  1.4900000000000D+00  0.0000000000000D+00  0.0000000000000D+00
151  1.5000000000000D+00  0.0000000000000D+00  0.0000000000000D+00
152  1.5100000000000D+00  0.0000000000000D+00  0.0000000000000D+00
153  1.5200000000000D+00  0.0000000000000D+00  0.0000000000000D+00
154  1.5300000000000D+00  0.0000000000000D+00  0.0000000000000D+00
155  1.5400000000000D+00  0.0000000000000D+00  0.0000000000000D+00
156  1.5500000000000D+00  0.0000000000000D+00  0.0000000000000D+00
157  1.5600000000000D+00  0.0000000000000D+00  0.0000000000000D+00
158  1.5700000000000D+00  0.0000000000000D+00  0.0000000000000D+00
159  1.5800000000000D+00  0.0000000000000D+00  0.0000000000000D+00
160  1.5900000000000D+00  0.0000000000000D+00  0.0000000000000D+00
161  1.6000000000000D+00  0.0000000000000D+00  0.0000000000000D+00
162  1.6100000000000D+00  0.0000000000000D+00  0.0000000000000D+00
163  1.6200000000000D+00  0.0000000000000D+00  0.0000000000000D+00
164  1.6300000000000D+00  0.0000000000000D+00  0.0000000000000D+00
165  1.6400000000000D+00  0.0000000000000D+00  0.0000000000000D+00
166  1.6500000000000D+00  0.0000000000000D+00  0.0000000000000D+00
167  1.6600000000000D+00  0.0000000000000D+00  0.0000000000000D+00
168  1.6700000000000D+00  0.0000000000000D+00  0.0000000000000D+00
169  1.6800000000000D+00  0.0000000000000D+00  0.0000000000000D+00
170  1.6900000000000D+00  0.0000000000000D+00  0.0000000000000D+00
171  1.7000000000000D+00  0.0000000000000D+00  0.0000000000000D+00
172  1.7100000000000D+00  0.0000000000000D+00  0.0000000000000D+00
173  1.7200000000000D+00  0.0000000000000D+00  0.0000000000000D+00
174  1.7300000000000D+00  0.0000000000000D+00  0.0000000000000D+00
175  1.7400000000000D+00  0.0000000000000D+00  0.0000000000000D+00
176  1.7500000000000D+00  0.0000000000000D+00  0.0000000000000D+00
177  1.7600000000000D+00  0.0000000000000D+00  0.0000000000000D+00
178  1.7700000000000D+00  0.0000000000000D+00  0.0000000000000D+00
179  1.7800000000000D+00  0.0000000000000D+00  0.0000000000000D+00
180  1.7900000000000D+00  0.0000000000000D+00  0.0000000000000D+00
181  1.8000000000000D+00  0.0000000000000D+00  0.0000000000000D+00
182  1.8100000000000D+00  0.0000000000000D+00  0.0000000000000D+00
183  1.8200000000000D+00  0.0000000000000D+00  0.0000000000000D+00
184  1.8300000000000D+00  0.0000000000000D+00  0.0000000000000D+00
185  1.8400000000000D+00  0.0000000000000D+00  0.0000000000000D+00
186  1.8500000000000D+00  0.0000000000000D+00  0.0000000000000D+00
187  1.8600000000000D+00  0.0000000000000D+00  0.0000000000000D+00
188  1.8700000000000D+00  0.0000000000000D+00  0.0000000000000D+00
189  1.8800000000000D+00  0.0000000000000D+00  0.0000000000000D+00
190  1.8900000000000D+00  0.0000000000000D+00  0.0000000000000D+00
191  1.9000000000000D+00  0.0000000000000D+00  0.0000000000000D+00
192  1.9100000000000D+00  0.0000000000000D+00  0.0000000000000D+00
193  1.9200000000000D+00  0.0000000000000D+00  0.0000000000000D+00
194  1.9300000000000D+00  0.0000000000000D+00  0.0000000000000D+00
195  1.9400000000000D+00  0.0000000000000D+00  0.0000000000000D+00
196  1.9500000000000D+00  0.0000000000000D+00  0.0000000000000D+00
197  1.9600000000000D+00  0.0000000000000D+00  0.0000000000000D+00
198  1.9700000000000D+00  0.0000000000000D+00  0.0000000000000D+00
199  1.9800000000000D+00  0.0000000000000D+00  0.0000000000000D+00
200  1.9900000000000D+00  0.0000000000000D+00  0.0000000000000D+00
201  2.0000000000000D+00  0.0000000000000D+00  0.0000000000000D+00
202  2.0100000000000D+00  0.0000000000000D+00  0.0000000000000D+00
203  2.0200000000000D+00  0.0000000000000D+00  0.0000000000000D+00
204  2.0300000000000D+00  0.0000000000000D+00  0.0000000000000D+00
205  2.0400000000000D+00  0.0000000000000D+00  0.0000000000000D+00
206  2.0500000000000D+00  0.0000000000000D+00  0.0000000000000D+00
207  2.0600000000000D+00  0.0000000000000D+00  0.0000000000000D+00
208  2.0700000000000D+00  0.0000000000000D+00  0.0000000000000D+00
209  2.0800000000000D+00  0.0000000000000D+00  0.0000000000000D+00
210  2.0900000000000D+00  0.0000000000000D+00  0.0000000000000D+00
211  2.1000000000000D+00  0.0000000000000D+00  0.0000000000000D+00
212  2.1100000000000D+00  0.0000000000000D+00  0.0000000000000D+00
213  2.1200000000000D+00  0.0000000000000D+00  0.0000000000000D+00
214  2.1300000000000D+00  0.0000000000000D+00  0.0000000000000D+00
215  2.1400000000000D+00  0.0000000000000D+00  0.0000000000000D+00
216  2.1500000000000D+00  0.0000000000000D+00  0.0000000000000D+00
217  2.1600000000000D+00  0.0000000000000D+00  0.0000000000000D+00
218  2.1700000000000D+00  0.0000000000000D+00  0.0000000000000D+00
219  2.1800000000000D+00  0.0000000000000D+00  0.0000000000000D+00
220  2.1900000000000D+00  0.0000000000000D+00  0.0000000000000D+00
221  2.2000000000000D+00  0.0000000000000D+00  0.0000000000000D+00
222  2.2100000000000D+00  0.0000000000000D+00  0.0000000000000D+00
223  2.2200000000000D+00  0.0000000000000D+00  0.0000000000000D+00
224  2.2300000000000D+00  0.0000000000000D+00  0.0000000000000D+00
225  2.2400000000000D+00  0.0000000000000D+00  0.0000000000000D+00
226  2.2500000000000D+00  0.0000000000000D+00  0.0000000000000D+00
227  2.2600000000000D+00  0.0000000000000D+00  0.0000000000000D+00
228  2.2700000000000D+00  0.0000000000000D+00  0.0000000000000D+00
229  2.2800000000000D+00  0.0000000000000D+00  0.0000000000000D+00
230  2.2900000000000D+00  0.0000000000000D+00  0.0000000000000D+00
231  2.3000000000000D+00  0.0000000000000D+00  0.0000000000000D+00
232  2.3100000000000D+00  0.0000000000000D+00  0.0000000000000D+00
233  2.3200000000000D+00  0.0000000000000D+00  0.0000000000000D+00
234  2.3300000000000D+00  0.0000000000000D+00  0.0000000000000D+00
235  2.3400000000000D+00  0.0000000000000D+00  0.0000000000000D+00
236  2.3500000000000D+00  0.0000000000000D+00  0.0000000000000D+00
237  2.3600000000000D+00  0.0000000000000D+00  0.0000000000000D+00
238  2.3700000000000D+00  0.0000000000000D+00  0.0000000000000D+00
239  2.3800000000000D+00  0.0000000000000D+00  0.0000000000000D+00
240  2.3900000000000D+00  0.0000000000000D+00  0.0000000000000D+00
241  2.4000000000000D+00  0.0000000000000D+00  0.0000000000000D+00
242  2.4100000000000D+00  0.0000000000000D+00  0.0000000000000D+00
243  2.4200000000000D+00  0.0000000000000D+00  0.0000000000000D+00
244  2.4300000000000D+00  0.0000000000000D+00  0.0000000000000D+00
245  2.4400000000000D+00  0.0000000000000D+00  0.0000000000000D+00
246  2.4500000000000D+00  0.0000000000000D+00  0.0000000000000D+00
247  2.4600000000000D+00  0.0000000000000D+00  0.0000000000000D+00
248  2.4700000000000D+00  0.0000000000000D+00  0.0000000000000D+00
249  2.4800000000000D+00  0.0000000000000D+00  0.0000000000000D+00
250  2.4900000000000D+00  0.0000000000000D+00  0.0000000000000D+00
251  2.5000000000000D+00  0.0000000000000D+00  0.0000000000000D+00
252  2.5100000000000D+00  0.0000000000000D+00  0.0000000000000D+00
253  2.5200000000000D+00  0.0000000000000D+00  0.0000000000000D+00
254  2.5300000000000D+00  0.0000000000000D+00  0.0000000000000D+00
255  2.5400000000000D+00  0.0000000000000D+00  0.0000000000000D+00
256  2.5500000000000D+00  0.0000000000000D+00  0.0000000000000D+00
257  2.5600000000000D+00  0.0000000000000D+00  0.0000000000000D+00
258  2.5700000000000D+00  0.0000000000000D+00  0.0000000000000D+00
259  2.5800000000000D+00  0.0000000000000D+00  0.0000000000000D+00
260  2.5900000000000D+00  0.0000000000000D+00  0.0000000000000D+00
261  2.6000000000000D+00  0.0000000000000D+00  0.0000000000000D+00
262  2.6100000000000D+00  0.0000000000000D+00  0.0000000000000D+00
263  2.6200000000000D+00  0.0000000000000D+00  0.0000000000000D+00
264  2.6300000000000D+00  0.0000000000000D+00  0.0000000000000D+00
265  2.6400000000000D+00  0.0000000000000D+00  0.0000000000000D+00
266  2.6500000000000D+00  0.0000000000000D+00  0.0000000000000D+00
267  2.6600000000000D+00  0.0000000000000D+00  0.0000000000000D+00
268  2.6700000000000D+00  0.0000000000000D+00  0.0000000000000D+00
269  2.6800000000000D+00  0.0000000000000D+00  0.0000000000000D+00
270  2.6900000000000D+00  0.0000000000000D+00  0.0000000000000D+00
271  2.7000000000000D+00  0.0000000000000D+00  0.0000000000000D+00
272  2.7100000000000D+00  0.0000000000000D+00  0.0000000000000D+00
273  2.7200000000000D+00  0.0000000000000D+00  0.0000000000000D+00
274  2.7300000000000D+00  0.0000000000000D+00  0.0000000000000D+00
275  2.7400000000000D+00  0.0000000000000D+00  0.0000000000000D+00
276  2.7500000000000D+00  0.0000000000000D+00  0.0000000000000D+00
277  2.7600000000000D+00  0.0000000000000D+00  0.0000000000000D+00
278  2.7700000000000D+00  0.0000000000000D+00  0.0000000000000D+00
279  2.7800000000000D+00  0.0000000000000D+00  0.0000000000000D+00
280  2.7900000000000D+00  0.0000000000000D+00  0.0000000000000D+00
281  2.8000000000000D+00  0.0000000000000D+00  0.0000000000000D+00
282  2.8100000000000D+00  0.0000000000000D+00  0.0000000000000D+00
283  2.8200000000000D+00  0.0000000000000D+00  0.0000000000000D+00
284  2.8300000000000D+00  0.0000000000000D+00  0.0000000000000D+00
285  2.8400000000000D+00  0.0000000000000D+00  0.0000000000000D+00
286  2.8500000000000D+00  0.0000000000000D+00  0.0000000000000D+00
287  2.8600000000000D+00  0.0000000000000D+00  0.0000000000000D+00
288  2.8700000000000D+00  0.0000000000000D+00  0.0000000000000D+00
289  2.8800000000000D+00  0.0000000000000D+00  0.0000000000000D+00
290  2.8900000000000D+00  0.0000000000000D+00  0.0000000000000D+00
291  2.9000000000000D+00  0.0000000000000D+00  0.0000000000000D+00
292  2.9100000000000D+00  0.0000000000000D+00  0.0000000000000D+00
293  2.9200000000000D+00  0.0000000000000D+00  0.0000000000000D+00
294  2.9300000000000D+00  0.0000000000000D+00  0.0000000000000D+00
295  2.9400000000000D+00  0.0000000000000D+00  0.0000000000000D+00
296  2.9500000000000D+00  0.0000000000000D+00  0.0000000000000D+00
297  2.9600000000000D+00  0.0000000000000D+00  0.0000000000000D+00
298  2.9700000000000D+00  0.0000000000000D+00  0.0000000000000D+00
299  2.9800000000000D+00  0.0000000000000D+00  0.0000000000000D+00
300  2.9900000000000D+00  0.0000000000000D+00  0.0000000000000D+00
301  3.0000000000000D+00  0.0000000000000D+00  0.0000000000000D+00
302  3.0100000000000D+00  0.0000000000000D+00  0.0000000000000D+00
303  3.0200000000000D+00  0.0000000000000D+00  0.0000000000000D+00
304  3.0300000000000D+00  0.0000000000000D+00  0.0000000000000D+00
305  3.0400000000000D+00  0.0000000000000D+00  0.0000000000000D+00
306  3.0500000000000D+00  0.0000000000000D+00  0.0000000000000D+00
307  3.0600000000000D+00  0.0000000000000D+00  0.0000000000000D+00
308  3.0700000000000D+00  0.0000000000000D+00  0.0000000000000D+00
309  3.0800000000000D+00  0.0000000000000D+00  0.0000000000000D+00
310  3.0900000000000D+00  0.0000000000000D+00  0.0000000000000D+00
311  3.1000000000000D+00  0.0000000000000D+00  0.0000000000000D+00
312  3.1100000000000D+00  0.0000000000000D+00  0.0000000000000D+00
313  3.1200000000000D+00  0.0000000000000D+00  0.0000000000000D+00
314  3.1300000000000D+00  0.0000000000000D+00  0.0000000000000D+00
315  3.1400000000000D+00  0.0000000000000D+00  0.0000000000000D+00
316  3.1500000000000D+00  0.0000000000000D+00  0.0000000000000D+00
317  3.1600000000000D+00  0.0000000000000D+00  0.0000000000000D+00
318  3.1700000000000D+00  0.0000000000000D+00  0.0000000000000D+00
319  3.1800000000000D+00  0.0000000000000D+00  0.0000000000000D+00
320  3.1900000000000D+00  0.0000000000000D+00  0.0000000000000D+00
321  3.2000000000000D+00  0.0000000000000D+00  0.0000000000000D+00
322  3.2100000000000D+00  0.0000000000000D+00  0.0000000000000D+00
323  3.2200000000000D+00  0.0000000000000D+00  0.0000000000000D+00
324  3.2300000000000D+00  0.0000000000000D+00  0.0000000000000D+00
325  3.2400000000000D+00  0.0000000000000D+00  0.0000000000000D+00
326  3.2500000000000D+00  0.0000000000000D+00  0.0000000000000D+00
327  3.2600000000000D+00  0.0000000000000D+00  0.0000000000000D+00
328  3.2700000000000D+00  0.0000000000000D+00  0.0000000000000D+00
329  3.2800000000000D+00  0.0000000000000D+00  0.0000000000000D+00
330  3.2900000000000D+00  0.0000000000000D+00  0.0000000000000D+00
331  3.3000000000000D+00  0.0000000000000D+00  0.0000000000000D+00
332  3.3100000000000D+00  0.0000000000000D+00  0.0000000000000D+00
333  3.3200000000000D+00  0.0000000000000D+00  0.0000000000000D+00
334  3.3300000000000D+00  0.0000000000000D+00  0.0000000000000D+00
335  3.3400000000000D+00  0.0000000000000D+00  0.0000000000000D+00
336  3.3500000000000D+00  0.0000000000000D+00  0.0000000000000D+00
337  3.3600000000000D+00  0.0000000000000D+00  0.0000000000000D+00
338  3.3700000000000D+00  0.0000000000000D+00  0.0000000000000D+00
339  3.3800000000000D+00  0.0000000000000D+00  0.0000000000000D+00
340  3.3900000000000D+00  0.0000000000000D+00  0.0000000000000D+00
341  3.4000000000000D+00  0.0000000000000D+00  0.0000000000000D+00
342  3.4100000000000D+00  0.0000000000000D+00  0.0000000000000D+00
343  3.4200000000000D+00  0.0000000000000D+00  0.0000000000000D+00
344  3.4300000000000D+00  0.0000000000000D+00  0.0000000000000D+00
345  3.4400000000000D+00  0.0000000000000D+00  0.0000000000000D+00
346  3.4500000000000D+00  0.0000000000000D+00  0.0000000000000D+00
347  3.4600000000000D+00  0.0000000000000D+00  0.0000000000000D+00
348  3.4700000000000D+00  0.0000000000000D+00  0.0000000000000D+00
349  3.4800000000000D+00  0.0000000000000D+00  0.0000000000000D+00
350  3.4900000000000D+00  0.0000000000000D+00  0.0000000000000D+00
351  3.5000000000000D+00  0.0000000000000D+00  0.0000000000000D+00
352  3.5100000000000D+00  0.0000000000000D+00  0.0000000000000D+00
353  3.5200000000000D+00  0.0000000000000D+00  0.0000000000000D+00
354  3.5300000000000D+00  0.0000000000000D+00  0.0000000000000D+00
355  3.5400000000000D+00  0.0000000000000D+00  0.0000000000000D+00
356  3.5500000000000D+00  0.0000000000000D+00  0.0000000000000D+00
357  3.5600000000000D+00  0.0000000000000D+00  0.0000000000000D+00
358  3.5700000000000D+00  0.0000000000000D+00  0.0000000000000D+00
359  3.5800000000000D+00  0.0000000000000D+00  0.0000000000000D+00
360  3.5900000000000D+00  0.0000000000000D+00  0.0000000000000D+00
361  3.6000000000000D+00  0.0000000000000D+00  0.0000000000000D+00
362  3.6100000000000D+00  0.0000000000000D+00  0.0000000000000D+00
363  3.6200000000000D+00  0.0000000000000D+00  0.0000000000000D+00
364  3.6300000000000D+00  0.0000000000000D+00  0.0000000000000D+00
365  3.6400000000000D+00  0.0000000000000D+00  0.0000000000000D+00
366  3.6500000000000D+00  0.0000000000000D+00  0.0000000000000D+00
367  3.6600000000000D+00  0.0000000000000D+00  0.0000000000000D+00
368  3.6700000000000D+00  0.0000000000000D+00  0.0000000000000D+00
369  3.6800000000000D+00  0.0000000000000D+00  0.0000000000000D+00
370  3.6900000000000D+00  0.0000000000000D+00  0.0000000000000D+00
371  3.7000000000000D+00  0.0000000000000D+00  0.0000000000000D+00
372  3.7100000000000D+00  0.0000000000000D+00  0.0000000000000D+00
373  3.7200000000000D+00  0.0000000000000D+00  0.0000000000000D+00
374  3.7300000000000D+00  0.0000000000000D+00  0.0000000000000D+00
375  3.7400000000000D+00  0.0000000000000D+00  0.0000000000000D+00
376  3.7500000000000D+00  0.0000000000000D+00  0.0000000000000D+00
377  3.7600000000000D+00  0.0000000000000D+00  0.0000000000000D+00
378  3.7700000000000D+00  0.0000000000000D+00  0.0000000000000D+00
379  3.7800000000000D+00  0.0000000000000D+00  0.0000000000000D+00
380  3.7900000000000D+00  0.0000000000000D+00  0.0000000000000D+00
381  3.8000000000000D+00  0.0000000000000D+00  0.0000000000000D+00
382  3.8100000000000D+00  0.0000000000000D+00  0.0000000000000D+00
383  3.8200000000000D+00  0.0000000000000D+00  0.0000000000000D+00
384  3.8300000000000D+00  0.0000000000000D+00  0.0000000000000D+00
385  3.8400000000000D+00  0.0000000000000D+00  0.0000000000000D+00
386  3.8500000000000D+00  0.0000000000000D+00  0.0000000000000D+00
387  3.8600000000000D+00  0.0000000000000D+00  0.0000000000000D+00
388  3.8700000000000D+00  0.0000000000000D+00  0.0000000000000D+00
389  3.8800000000000D+00  0.0000000000000D+00  0.0000000000000D+00
390  3.8900000000000D+00  0.0000000000000D+00  0.0000000000000D+00
391  3.9000000000000D+00  0.0000000000000D+00  0.0000000000000D+00
392  3.9100000000000D+00  0.0000000000000D+00  0.0000000000000D+00
393  3.9200000000000D+00  0.0000000000000D+00  0.0000000000000D+00
394  3.9300000000000D+00  0.0000000000000D+00  0.0000000000000D+00
395  3.9400000000000D+00  0.0000000000000D+00  0.0000000000000D+00
396  3.9500000000000D+00  0.0000000000000D+00  0.0000000000000D+00
397  3.9600000000000D+00  0.0000000000000D+00  0.0000000000000D+00
398  3.9700000000000D+00  0.0000000000000D+00  0.0000000000000D+00
399  3.9800000000000D+00  0.0000000000000D+00  0.0000000000000D+00
400  3.9900000000000D+00  0.0000000000000D+00  0.0000000000000D+00
401  4.0000000000000D+00  0.0000000000000D+00  0.0000000000000D+00
402  4.0100000000000D+00  0.0000000000000D+00  0.0000000000000D+00
403  4.0200000000000D+00  0.0000000000000D+00  0.0000000000000D+00
404  4.0300000000000D+00  0.0000000000000D+00  0.0000000000000D+00
405  4.0400000000000D+00  0.0000000000000D+00  0.0000000000000D+00
406  4.0500000000000D+00  0.0000000000000D+00  0.0000000000000D+00
407  4.0600000000000D+00  0.0000000000000D+00  0.0000000000000D+00
408  4.0700000000000D+00  0.0000000000000D+00  0.0000000000000D+00
409  4.0800000000000D+00  0.0000000000000D+00  0.0000000000000D+00
410  4.0900000000000D+00  0.0000000000000D+00  0.0000000000000D+00
411  4.1000000000000D+00  0.0000000000000D+00  0.0000000000000D+00
412  4.1100000000000D+00  0.0000000000000D+00  0.0000000000000D+00
413  4.1200000000000D+00  0.0000000000000D+00  0.0000000000000D+00
414  4.1300000000000D+00  0.0000000000000D+00  0.0000000000000D+00
415  4.1400000000000D+00  0.0000000000000D+00  0.0000000000000D+00
416  4.1500000000000D+00  0.0000000000000D+00  0.0000000000000D+00
417  4.1600000000000D+00  0.0000000000000D+00  0.0000000000000D+00
418  4.1700000000000D+00  0.0000000000000D+00  0.0000000000000D+00
419  4.1800000000000D+00  0.0000000000000D+00  0.0000000000000D+00
420  4.1900000000000D+00  0.0000000000000D+00  0.0000000000000D+00
421  4.2000000000000D+00  0.0000000000000D+00  0.0000000000000D+00
422  4.2100000000000D+00  0.0000000000000D+00  0.0000000000000D+00
423  4.2200000000000D+00  0.0000000000000D+00  0.0000000000000D+00
424  4.2300000000000D+00  0.0000000000000D+00  0.0000000000000D+00
425  4.2400000000000D+00  0.0000000000000D+00  0.0000000000000D+00
426  4.2500000000000D+00  0.0000000000000D+00  0.0000000000000D+00
427  4.2600000000000D+00  0.0000000000000D+00  0.0000000000000D+00
428  4.2700000000000D+00  0.0000000000000D+00  0.0000000000000D+00
429  4.2800000000000D+00  0.0000000000000D+00  0.0000000000000D+00
430  4.2900000000000D+00  0.0000000000000D+00  0.0000000000000D+00
431  4.3000000000000D+00  0.0000000000000D+00  0.0000000000000D+00
432  4.3100000000000D+00  0.0000000000000D+00  0.0000000000000D+00
433  4.3200000000000D+00  0.0000000000000D+00  0.0000000000000D+00
434  4.3300000000000D+00  0.0000000000000D+00  0.0000000000000D+00
435  4.3400000000000D+00  0.0000000000000D+00  0.0000000000000D+00
436  4.3500000000000D+00  0.0000000000000D+00  0.0000000000000D+00
437  4.3600000000000D+00  0.0000000000000D+00  0.0000000000000D+00
438  4.3700000000000D+00  0.0000000000000D+00  0.0000000000000D+00
439  4.3800000000000D+00  0.0000000000000D+00  0.0000000000000D+00
440  4.3900000000000D+00  0.0000000000000D+00  0.0000000000000D+00
441  4.4000000000000D+00  0.0000000000000D+00  0.0000000000000D+00
442  4.4100000000000D+00  0.0000000000000D+00  0.0000000000000D+00
443  4.4200000000000D+00  0.0000000000000D+00  0.0000000000000D+00
444  4.4300000000000D+00  0.0000000000000D+00  0.0000000000000D+00