Zn    ONCVPSP  r_core=  2.22  2.22  1.92
30.0000     12.0000      160520    zatom,zion,pspd
8      11   2     4   600     0    pspcod,pspxc,lmax,lloc,mmax,r2well
5.99000000  5.00000000  0.00000000    rchrg fchrg qchrg
2     3     2     0    nproj
3                 extension_switch
4     4     0    nprojso
0                         9.6135086272708D-01  4.7850804721639D+00
1  0.0000000000000D+00 -1.4643582353646D-11  1.2364276269494D-12
2  1.0000000000000D-02 -1.2106434248156D-04  2.7388743715900D-02
3  2.0000000000000D-02 -2.8131597635252D-04  5.4767475741135D-02
4  3.0000000000000D-02 -5.1971452009287D-04  8.2126168372089D-02
5  4.0000000000000D-02 -8.7476521126894D-04  1.0945476196593D-01
6  5.0000000000000D-02 -1.3842941246609D-03  1.3674314918740D-01
7  6.0000000000000D-02 -2.0852262703793D-03  1.6398115951448D-01
8  7.0000000000000D-02 -3.0133675148621D-03  1.9115854408765D-01
9  8.0000000000000D-02 -4.2031912530026D-03  2.1826496098655D-01
10  9.0000000000000D-02 -5.6876307415235D-03  2.4528996101601D-01
11  1.0000000000000D-01 -7.4978779820756D-03  2.7222297408180D-01
12  1.1000000000000D-01 -9.6631900174479D-03  2.9905329623434D-01
13  1.2000000000000D-01 -1.2210703475913D-02  3.2577007745620D-01
14  1.3000000000000D-01 -1.5165258167119D-02  3.5236231026657D-01
15  1.4000000000000D-01 -1.8549230498226D-02  3.7881881921302D-01
16  1.5000000000000D-01 -2.2382377441227D-02  4.0512825131775D-01
17  1.6000000000000D-01 -2.6681691741904D-02  4.3127906754201D-01
18  1.7000000000000D-01 -3.1461269017523D-02  4.5725953532892D-01
19  1.8000000000000D-01 -3.6732187344560D-02  4.8305772228094D-01
20  1.9000000000000D-01 -4.2502399889564D-02  5.0866149102443D-01
21  2.0000000000000D-01 -4.8776641085718D-02  5.3405849530911D-01
22  2.1000000000000D-01 -5.5556346805292D-02  5.5923617738636D-01
23  2.2000000000000D-01 -6.2839588923755D-02  5.8418176670533D-01
24  2.3000000000000D-01 -7.0621024615356D-02  6.0888227996140D-01
25  2.4000000000000D-01 -7.8891860662558D-02  6.3332452252645D-01
26  2.5000000000000D-01 -8.7639833002982D-02  6.5749509128584D-01
27  2.6000000000000D-01 -9.6849201677859D-02  6.8138037890157D-01
28  2.7000000000000D-01 -1.0650076128540D-01  7.0496657951639D-01
29  2.8000000000000D-01 -1.1657186698142D-01  7.2823969590804D-01
30  2.9000000000000D-01 -1.2703647600813D-01  7.5118554809810D-01
31  3.0000000000000D-01 -1.3786520467016D-01  7.7378978341425D-01
32  3.1000000000000D-01 -1.4902540061575D-01  7.9603788799979D-01
33  3.2000000000000D-01 -1.6048123021939D-01  8.1791519975905D-01
34  3.3000000000000D-01 -1.7219378080192D-01  8.3940692272191D-01
35  3.4000000000000D-01 -1.8412117736402D-01  8.6049814280583D-01
36  3.5000000000000D-01 -1.9621871345010D-01  8.8117384494841D-01
37  3.6000000000000D-01 -2.0843899570221D-01  9.0141893157870D-01
38  3.7000000000000D-01 -2.2073210160712D-01  9.2121824239048D-01
39  3.8000000000000D-01 -2.3304574988544D-01  9.4055657537608D-01
40  3.9000000000000D-01 -2.4532548291868D-01  9.5941870907426D-01
41  4.0000000000000D-01 -2.5751486056009D-01  9.7778942598173D-01
42  4.1000000000000D-01 -2.6955566462634D-01  9.9565353707293D-01
43  4.2000000000000D-01 -2.8138811332149D-01  1.0129959073690D+00
44  4.3000000000000D-01 -2.9295108480188D-01  1.0298014824922D+00
45  4.4000000000000D-01 -3.0418234904958D-01  1.0460553161394D+00
46  4.5000000000000D-01 -3.1501880718560D-01  1.0617425984027D+00
47  4.6000000000000D-01 -3.2539673731898D-01  1.0768486848642D+00
48  4.7000000000000D-01 -3.3525204599810D-01  1.0913591263865D+00
49  4.8000000000000D-01 -3.4452052430220D-01  1.1052596995194D+00
50  4.9000000000000D-01 -3.5313810758786D-01  1.1185364374397D+00
51  5.0000000000000D-01 -3.6104113788496D-01  1.1311756613378D+00
52  5.1000000000000D-01 -3.6816662791997D-01  1.1431640121646D+00
53  5.2000000000000D-01 -3.7445252573234D-01  1.1544884826485D+00
54  5.3000000000000D-01 -3.7983797884073D-01  1.1651364494916D+00
55  5.4000000000000D-01 -3.8426359691141D-01  1.1750957056518D+00
56  5.5000000000000D-01 -3.8767171188069D-01  1.1843544926180D+00
57  5.6000000000000D-01 -3.9000663448619D-01  1.1929015325838D+00
58  5.7000000000000D-01 -3.9121490616987D-01  1.2007260604233D+00
59  5.8000000000000D-01 -3.9124554532683D-01  1.2078178553761D+00
60  5.9000000000000D-01 -3.9005028688956D-01  1.2141672723430D+00
61  6.0000000000000D-01 -3.8758381425712D-01  1.2197652727009D+00
62  6.1000000000000D-01 -3.8380398260182D-01  1.2246034545394D+00
63  6.2000000000000D-01 -3.7867203261388D-01  1.2286740822276D+00
64  6.3000000000000D-01 -3.7215279377522D-01  1.2319701152166D+00
65  6.4000000000000D-01 -3.6421487628878D-01  1.2344852359895D+00
66  6.5000000000000D-01 -3.5483085082819D-01  1.2362138770660D+00
67  6.6000000000000D-01 -3.4397741531426D-01  1.2371512469767D+00
68  6.7000000000000D-01 -3.3163554797067D-01  1.2372933551201D+00
69  6.8000000000000D-01 -3.1779064595880D-01  1.2366370354206D+00
70  6.9000000000000D-01 -3.0243264894382D-01  1.2351799687057D+00
71  7.0000000000000D-01 -2.8555614699817D-01  1.2329207037252D+00
72  7.1000000000000D-01 -2.6716047230512D-01  1.2298586767392D+00
73  7.2000000000000D-01 -2.4724977418498D-01  1.2259942296015D+00
74  7.3000000000000D-01 -2.2583307702760D-01  1.2213286262722D+00
75  7.4000000000000D-01 -2.0292432077836D-01  1.2158640676949D+00
76  7.5000000000000D-01 -1.7854238369040D-01  1.2096037049784D+00
77  7.6000000000000D-01 -1.5271108712205D-01  1.2025516508252D+00
78  7.7000000000000D-01 -1.2545918222696D-01  1.1947129891576D+00
79  7.8000000000000D-01 -9.6820318452818D-02  1.1860937828898D+00
80  7.9000000000000D-01 -6.6832993835070D-02  1.1767010798059D+00
81  8.0000000000000D-01 -3.5540487141195D-02  1.1665429165025D+00
82  8.1000000000000D-01 -2.9907719924026D-03  1.1556283203625D+00
83  8.2000000000000D-01  3.0763586840720D-02  1.1439673095311D+00
84  8.3000000000000D-01  6.5665554702023D-02  1.1315708908677D+00
85  8.4000000000000D-01  1.0165376553705D-01  1.1184510558554D+00
86  8.5000000000000D-01  1.3866267719971D-01  1.1046207744519D+00
87  8.6000000000000D-01  1.7662274310692D-01  1.0900939868732D+00
88  8.7000000000000D-01  2.1546059970426D-01  1.0748855933032D+00
89  8.8000000000000D-01  2.5509926914177D-01  1.0590114415311D+00
90  8.9000000000000D-01  2.9545837649694D-01  1.0424883125211D+00
91  9.0000000000000D-01  3.3645438082254D-01  1.0253339039235D+00
92  9.1000000000000D-01  3.7800081923964D-01  1.0075668115443D+00
93  9.2000000000000D-01  4.2000856324165D-01  9.8920650879182D-01
94  9.3000000000000D-01  4.6238608632422D-01  9.7027332412571D-01
95  9.4000000000000D-01  5.0503974200722D-01  9.5078841653913D-01
96  9.5000000000000D-01  5.4787405127052D-01  9.3077374910794D-01
97  9.6000000000000D-01  5.9079199838401D-01  9.1025206064708D-01
98  9.7000000000000D-01  6.3369533407496D-01  8.8924683551805D-01
99  9.8000000000000D-01  6.7648488494283D-01  8.6778227163645D-01
100  9.9000000000000D-01  7.1906086800173D-01  8.4588324673293D-01
101  1.0000000000000D+00  7.6132320920631D-01  8.2357528292517D-01
102  1.0100000000000D+00  8.0317186479619D-01  8.0088450966289D-01
103  1.0200000000000D+00  8.4450714427780D-01  7.7783762511179D-01
104  1.0300000000000D+00  8.8523003385127D-01  7.5446185604679D-01
105  1.0400000000000D+00  9.2524251908331D-01  7.3078491632814D-01
106  1.0500000000000D+00  9.6444790562439D-01  7.0683496403816D-01
107  1.0600000000000D+00  1.0027511367719D+00  6.8264055735958D-01
108  1.0700000000000D+00  1.0400591066876D+00  6.5823060928013D-01
109  1.0800000000000D+00  1.0762809680907D+00  6.3363434121083D-01
110  1.0900000000000D+00  1.1113284332656D+00  6.0888123560886D-01
111  1.1000000000000D+00  1.1451160672404D+00  5.8400098769820D-01
112  1.1100000000000D+00  1.1775615720252D+00  5.5902345638438D-01
113  1.1200000000000D+00  1.2085860608248D+00  5.3397861446176D-01
114  1.1300000000000D+00  1.2381143211791D+00  5.0889649821432D-01
115  1.1400000000000D+00  1.2660750660202D+00  4.8380715651233D-01
116  1.1500000000000D+00  1.2924011716811D+00  4.5874059950998D-01
117  1.1600000000000D+00  1.3170299019379D+00  4.3372674704995D-01
118  1.1700000000000D+00  1.3399031172258D+00  4.0879537688262D-01
119  1.1800000000000D+00  1.3609674682057D+00  3.8397607280861D-01
120  1.1900000000000D+00  1.3801745729365D+00  3.5929817285454D-01
121  1.2000000000000D+00  1.3974811769622D+00  3.3479071759240D-01
122  1.2100000000000D+00  1.4128492956902D+00  3.1048239871349D-01
123  1.2200000000000D+00  1.4262463384865D+00  2.8640150796815D-01
124  1.2300000000000D+00  1.4376452140138D+00  2.6257588658285D-01
125  1.2400000000000D+00  1.4470244164042D+00  2.3903287526520D-01
126  1.2500000000000D+00  1.4543680918855D+00  2.1579926490826D-01
127  1.2600000000000D+00  1.4596660856260D+00  1.9290124810387D-01
128  1.2700000000000D+00  1.4629139686118D+00  1.7036437157392D-01
129  1.2800000000000D+00  1.4641130444001D+00  1.4821348962842D-01
130  1.2900000000000D+00  1.4632703357450D+00  1.2647271875688D-01
131  1.3000000000000D+00  1.4603985511557D+00  1.0516539345733D-01
132  1.3100000000000D+00  1.4555160314440D+00  8.4314023408340D-02
133  1.3200000000000D+00  1.4486466765141D+00  6.3940252084195D-02
134  1.3300000000000D+00  1.4398198526759D+00  4.4064816911885D-02
135  1.3400000000000D+00  1.4290702807639D+00  2.4707511069456D-02
136  1.3500000000000D+00  1.4164379055711D+00  5.8871470170594D-03
137  1.3600000000000D+00  1.4019677470589D+00 -1.2378478147019D-02
138  1.3700000000000D+00  1.3857097338837D+00 -3.0072615414824D-02
139  1.3800000000000D+00  1.3677185199608D+00 -4.7179594601055D-02
140  1.3900000000000D+00  1.3480532846821D+00 -6.3684852992954D-02
141  1.4000000000000D+00  1.3267775176077D+00 -7.9574961841745D-02
142  1.4100000000000D+00  1.3039587884811D+00 -9.4837650624197D-02
143  1.4200000000000D+00  1.2796685033679D+00 -1.0946182899654D-01
144  1.4300000000000D+00  1.2539816479753D+00 -1.2343760638449D-01
145  1.4400000000000D+00  1.2269765190397D+00 -1.3675630913938D-01
146  1.4500000000000D+00  1.1987344448723D+00 -1.4941049520656D-01
147  1.4600000000000D+00  1.1693394961424D+00 -1.6139396625725D-01
148  1.4700000000000D+00  1.1388781879547D+00 -1.7270177722480D-01
149  1.4800000000000D+00  1.1074391744526D+00 -1.8333024321953D-01
150  1.4900000000000D+00  1.0751129370236D+00 -1.9327694376509D-01
151  1.5000000000000D+00  1.0419914673817D+00 -2.0254072434055D-01
152  1.5100000000000D+00  1.0081679466807D+00 -2.1112169519031D-01
153  1.5200000000000D+00  9.7373642191600D-01 -2.1902122738157D-01
154  1.5300000000000D+00  9.3879148081809D-01 -2.2624194610092D-01
155  1.5400000000000D+00  9.0342792650396D-01 -2.3278772116042D-01
156  1.5500000000000D+00  8.6774045305599D-01 -2.3866365473644D-01
157  1.5600000000000D+00  8.3182332333723D-01 -2.4387606630465D-01
158  1.5700000000000D+00  7.9577005013108D-01 -2.4843247481760D-01
159  1.5800000000000D+00  7.5967308192665D-01 -2.5234157809688D-01
160  1.5900000000000D+00  7.2362349437533D-01 -2.5561322949239D-01
161  1.6000000000000D+00  6.8771068867868D-01 -2.5825841180282D-01
162  1.6100000000000D+00  6.5202209790675D-01 -2.6028920850807D-01
163  1.6200000000000D+00  6.1664290237523D-01 -2.6171877233328D-01
164  1.6300000000000D+00  5.8165575508070D-01 -2.6256129119260D-01
165  1.6400000000000D+00  5.4714051813457D-01 -2.6283195155727D-01
166  1.6500000000000D+00  5.1317401120917D-01 -2.6254689929444D-01
167  1.6600000000000D+00  4.7982977270951D-01 -2.6172319804426D-01
168  1.6700000000000D+00  4.4717783469663D-01 -2.6037878518215D-01
169  1.6800000000000D+00  4.1528451203179D-01 -2.5853242545347D-01
170  1.6900000000000D+00  3.8421220675798D-01 -2.5620366233080D-01
171  1.7000000000000D+00  3.5401922795186D-01 -2.5341276719673D-01
172  1.7100000000000D+00  3.2475962800907D-01 -2.5018068640926D-01
173  1.7200000000000D+00  2.9648305539696D-01 -2.4652898636338D-01
174  1.7300000000000D+00  2.6923462471410D-01 -2.4247979661695D-01
175  1.7400000000000D+00  2.4305480396026D-01 -2.3805575119959D-01
176  1.7500000000000D+00  2.1797931963621D-01 -2.3327992818806D-01
177  1.7600000000000D+00  1.9403907954671D-01 -2.2817578766634D-01
178  1.7700000000000D+00  1.7126011358474D-01 -2.2276710817312D-01
179  1.7800000000000D+00  1.4966353246773D-01 -2.1707792174925D-01
180  1.7900000000000D+00  1.2926550422420D-01 -2.1113244771018D-01
181  1.8000000000000D+00  1.1007724864189D-01 -2.0495502524633D-01
182  1.8100000000000D+00  9.2105048858081D-02 -1.9857004499944D-01
183  1.8200000000000D+00  7.5350280678915D-02 -1.9200187970738D-01
184  1.8300000000000D+00  5.9809458083408D-02 -1.8527481408555D-01
185  1.8400000000000D+00  4.5474295956215D-02 -1.7841297403009D-01
186  1.8500000000000D+00  3.2331787791911D-02 -1.7144025532260D-01
187  1.8600000000000D+00  2.0364297243445D-02 -1.6438025114745D-01
188  1.8700000000000D+00  9.5496763699426D-03 -1.5725618345301D-01
189  1.8800000000000D+00 -1.3864005212797D-04 -1.5009082171359D-01
190  1.8900000000000D+00 -8.7314442728401D-03 -1.4290642916178D-01
191  1.9000000000000D+00 -1.6263620242015D-02 -1.3572468603052D-01
192  1.9100000000000D+00 -2.2774096603884D-02 -1.2856658191635D-01
193  1.9200000000000D+00 -2.8305676378050D-02 -1.2145234610710D-01
194  1.9300000000000D+00 -3.2904427966135D-02 -1.1440151258202D-01
195  1.9400000000000D+00 -3.6619247414889D-02 -1.0743292540919D-01
196  1.9500000000000D+00 -3.9501386204277D-02 -1.0056477618081D-01
197  1.9600000000000D+00 -4.1603756501831D-02 -9.3814704504085D-02
198  1.9700000000000D+00 -4.2980701509453D-02 -8.7199754719544D-02
199  1.9800000000000D+00 -4.3687813996463D-02 -8.0736320323216D-02
200  1.9900000000000D+00 -4.3781688269793D-02 -7.4440109398654D-02
201  2.0000000000000D+00 -4.3319579253215D-02 -6.8326136622064D-02
202  2.0100000000000D+00 -4.2359164871613D-02 -6.2408686392997D-02
203  2.0200000000000D+00 -4.0958260008227D-02 -5.6701291838143D-02
204  2.0300000000000D+00 -3.9174550100269D-02 -5.1216709571453D-02
205  2.0400000000000D+00 -3.7065325888732D-02 -4.5966896401948D-02
206  2.0500000000000D+00 -3.4687223224875D-02 -4.0962987041151D-02
207  2.0600000000000D+00 -3.2095968866904D-02 -3.6215272830059D-02
208  2.0700000000000D+00 -2.9346134393542D-02 -3.1733181520362D-02
209  2.0800000000000D+00 -2.6490897496062D-02 -2.7525258109178D-02
210  2.0900000000000D+00 -2.3581813786298D-02 -2.3599146774458D-02
211  2.1000000000000D+00 -2.0668598441591D-02 -1.9961573910789D-02
212  2.1100000000000D+00 -1.7798919004406D-02 -1.6618332290465D-02
213  2.1200000000000D+00 -1.5018201537990D-02 -1.3574266387039D-02
214  2.1300000000000D+00 -1.2369448107952D-02 -1.0833258840306D-02
215  2.1400000000000D+00 -9.8941082010411D-03 -8.3988293263890D-03
216  2.1500000000000D+00 -7.6300157306269D-03 -6.2729992920035D-03
217  2.1600000000000D+00 -5.6065250448868D-03 -4.4535004454841D-03
218  2.1700000000000D+00 -3.8457140542754D-03 -2.9350777920216D-03
219  2.1800000000000D+00 -2.4007144181793D-03 -1.7301255752862D-03
220  2.1900000000000D+00 -1.3196545314257D-03 -8.4865311344739D-04
221  2.2000000000000D+00 -6.2371645979270D-04 -2.8509610973548D-04
222  2.2100000000000D+00 -2.3270333299446D-04  1.3010539541836D-05
223  2.2200000000000D+00 -5.2152121984076D-05  1.0807874166983D-04
224  2.2300000000000D+00  5.2740926222162D-06  7.9511623445704D-05
225  2.2400000000000D+00  2.4484741817300D-06  1.0284257385892D-05
226  2.2500000000000D+00 -6.5564824141373D-06 -2.2564452132509D-05
227  2.2600000000000D+00 -6.5147259870625D-06 -1.8543978914459D-05
228  2.2700000000000D+00  1.1226390201936D-07  1.0260903692676D-06
229  2.2800000000000D+00  7.1278532677595D-07  4.8229945898079D-06
230  2.2900000000000D+00  4.9270495791150D-07  2.7818825921790D-06
231  2.3000000000000D+00  1.8624685664669D-07 -1.2365554344737D-07
232  2.3100000000000D+00  3.4812143357630D-07 -2.3112951181889D-07
233  2.3200000000000D+00  1.2032325703687D-07 -7.9886651544816D-08
234  2.3300000000000D+00  0.0000000000000D+00  0.0000000000000D+00
235  2.3400000000000D+00  0.0000000000000D+00  0.0000000000000D+00
236  2.3500000000000D+00  0.0000000000000D+00  0.0000000000000D+00
237  2.3600000000000D+00  0.0000000000000D+00  0.0000000000000D+00
238  2.3700000000000D+00  0.0000000000000D+00  0.0000000000000D+00
239  2.3800000000000D+00  0.0000000000000D+00  0.0000000000000D+00
240  2.3900000000000D+00  0.0000000000000D+00  0.0000000000000D+00
241  2.4000000000000D+00  0.0000000000000D+00  0.0000000000000D+00
242  2.4100000000000D+00  0.0000000000000D+00  0.0000000000000D+00
243  2.4200000000000D+00  0.0000000000000D+00  0.0000000000000D+00
244  2.4300000000000D+00  0.0000000000000D+00  0.0000000000000D+00
245  2.4400000000000D+00  0.0000000000000D+00  0.0000000000000D+00
246  2.4500000000000D+00  0.0000000000000D+00  0.0000000000000D+00
247  2.4600000000000D+00  0.0000000000000D+00  0.0000000000000D+00
248  2.4700000000000D+00  0.0000000000000D+00  0.0000000000000D+00
249  2.4800000000000D+00  0.0000000000000D+00  0.0000000000000D+00
250  2.4900000000000D+00  0.0000000000000D+00  0.0000000000000D+00
251  2.5000000000000D+00  0.0000000000000D+00  0.0000000000000D+00
252  2.5100000000000D+00  0.0000000000000D+00  0.0000000000000D+00
253  2.5200000000000D+00  0.0000000000000D+00  0.0000000000000D+00
254  2.5300000000000D+00  0.0000000000000D+00  0.0000000000000D+00
255  2.5400000000000D+00  0.0000000000000D+00  0.0000000000000D+00
256  2.5500000000000D+00  0.0000000000000D+00  0.0000000000000D+00
257  2.5600000000000D+00  0.0000000000000D+00  0.0000000000000D+00
258  2.5700000000000D+00  0.0000000000000D+00  0.0000000000000D+00
259  2.5800000000000D+00  0.0000000000000D+00  0.0000000000000D+00
260  2.5900000000000D+00  0.0000000000000D+00  0.0000000000000D+00
261  2.6000000000000D+00  0.0000000000000D+00  0.0000000000000D+00
262  2.6100000000000D+00  0.0000000000000D+00  0.0000000000000D+00
263  2.6200000000000D+00  0.0000000000000D+00  0.0000000000000D+00
264  2.6300000000000D+00  0.0000000000000D+00  0.0000000000000D+00
265  2.6400000000000D+00  0.0000000000000D+00  0.0000000000000D+00
266  2.6500000000000D+00  0.0000000000000D+00  0.0000000000000D+00
267  2.6600000000000D+00  0.0000000000000D+00  0.0000000000000D+00
268  2.6700000000000D+00  0.0000000000000D+00  0.0000000000000D+00
269  2.6800000000000D+00  0.0000000000000D+00  0.0000000000000D+00
270  2.6900000000000D+00  0.0000000000000D+00  0.0000000000000D+00
271  2.7000000000000D+00  0.0000000000000D+00  0.0000000000000D+00
272  2.7100000000000D+00  0.0000000000000D+00  0.0000000000000D+00
273  2.7200000000000D+00  0.0000000000000D+00  0.0000000000000D+00
274  2.7300000000000D+00  0.0000000000000D+00  0.0000000000000D+00
275  2.7400000000000D+00  0.0000000000000D+00  0.0000000000000D+00
276  2.7500000000000D+00  0.0000000000000D+00  0.0000000000000D+00
277  2.7600000000000D+00  0.0000000000000D+00  0.0000000000000D+00
278  2.7700000000000D+00  0.0000000000000D+00  0.0000000000000D+00
279  2.7800000000000D+00  0.0000000000000D+00  0.0000000000000D+00
280  2.7900000000000D+00  0.0000000000000D+00  0.0000000000000D+00
281  2.8000000000000D+00  0.0000000000000D+00  0.0000000000000D+00
282  2.8100000000000D+00  0.0000000000000D+00  0.0000000000000D+00
283  2.8200000000000D+00  0.0000000000000D+00  0.0000000000000D+00
284  2.8300000000000D+00  0.0000000000000D+00  0.0000000000000D+00
285  2.8400000000000D+00  0.0000000000000D+00  0.0000000000000D+00
286  2.8500000000000D+00  0.0000000000000D+00  0.0000000000000D+00
287  2.8600000000000D+00  0.0000000000000D+00  0.0000000000000D+00
288  2.8700000000000D+00  0.0000000000000D+00  0.0000000000000D+00
289  2.8800000000000D+00  0.0000000000000D+00  0.0000000000000D+00
290  2.8900000000000D+00  0.0000000000000D+00  0.0000000000000D+00
291  2.9000000000000D+00  0.0000000000000D+00  0.0000000000000D+00
292  2.9100000000000D+00  0.0000000000000D+00  0.0000000000000D+00
293  2.9200000000000D+00  0.0000000000000D+00  0.0000000000000D+00
294  2.9300000000000D+00  0.0000000000000D+00  0.0000000000000D+00
295  2.9400000000000D+00  0.0000000000000D+00  0.0000000000000D+00
296  2.9500000000000D+00  0.0000000000000D+00  0.0000000000000D+00
297  2.9600000000000D+00  0.0000000000000D+00  0.0000000000000D+00
298  2.9700000000000D+00  0.0000000000000D+00  0.0000000000000D+00
299  2.9800000000000D+00  0.0000000000000D+00  0.0000000000000D+00
300  2.9900000000000D+00  0.0000000000000D+00  0.0000000000000D+00
301  3.0000000000000D+00  0.0000000000000D+00  0.0000000000000D+00
302  3.0100000000000D+00  0.0000000000000D+00  0.0000000000000D+00
303  3.0200000000000D+00  0.0000000000000D+00  0.0000000000000D+00
304  3.0300000000000D+00  0.0000000000000D+00  0.0000000000000D+00
305  3.0400000000000D+00  0.0000000000000D+00  0.0000000000000D+00
306  3.0500000000000D+00  0.0000000000000D+00  0.0000000000000D+00
307  3.0600000000000D+00  0.0000000000000D+00  0.0000000000000D+00
308  3.0700000000000D+00  0.0000000000000D+00  0.0000000000000D+00
309  3.0800000000000D+00  0.0000000000000D+00  0.0000000000000D+00
310  3.0900000000000D+00  0.0000000000000D+00  0.0000000000000D+00
311  3.1000000000000D+00  0.0000000000000D+00  0.0000000000000D+00
312  3.1100000000000D+00  0.0000000000000D+00  0.0000000000000D+00
313  3.1200000000000D+00  0.0000000000000D+00  0.0000000000000D+00
314  3.1300000000000D+00  0.0000000000000D+00  0.0000000000000D+00
315  3.1400000000000D+00  0.0000000000000D+00  0.0000000000000D+00
316  3.1500000000000D+00  0.0000000000000D+00  0.0000000000000D+00
317  3.1600000000000D+00  0.0000000000000D+00  0.0000000000000D+00
318  3.1700000000000D+00  0.0000000000000D+00  0.0000000000000D+00
319  3.1800000000000D+00  0.0000000000000D+00  0.0000000000000D+00
320  3.1900000000000D+00  0.0000000000000D+00  0.0000000000000D+00
321  3.2000000000000D+00  0.0000000000000D+00  0.0000000000000D+00
322  3.2100000000000D+00  0.0000000000000D+00  0.0000000000000D+00
323  3.2200000000000D+00  0.0000000000000D+00  0.0000000000000D+00
324  3.2300000000000D+00  0.0000000000000D+00  0.0000000000000D+00
325  3.2400000000000D+00  0.0000000000000D+00  0.0000000000000D+00
326  3.2500000000000D+00  0.0000000000000D+00  0.0000000000000D+00
327  3.2600000000000D+00  0.0000000000000D+00  0.0000000000000D+00
328  3.2700000000000D+00  0.0000000000000D+00  0.0000000000000D+00
329  3.2800000000000D+00  0.0000000000000D+00  0.0000000000000D+00
330  3.2900000000000D+00  0.0000000000000D+00  0.0000000000000D+00
331  3.3000000000000D+00  0.0000000000000D+00  0.0000000000000D+00
332  3.3100000000000D+00  0.0000000000000D+00  0.0000000000000D+00
333  3.3200000000000D+00  0.0000000000000D+00  0.0000000000000D+00
334  3.3300000000000D+00  0.0000000000000D+00  0.0000000000000D+00
335  3.3400000000000D+00  0.0000000000000D+00  0.0000000000000D+00
336  3.3500000000000D+00  0.0000000000000D+00  0.0000000000000D+00
337  3.3600000000000D+00  0.0000000000000D+00  0.0000000000000D+00
338  3.3700000000000D+00  0.0000000000000D+00  0.0000000000000D+00
339  3.3800000000000D+00  0.0000000000000D+00  0.0000000000000D+00
340  3.3900000000000D+00  0.0000000000000D+00  0.0000000000000D+00
341  3.4000000000000D+00  0.0000000000000D+00  0.0000000000000D+00
342  3.4100000000000D+00  0.0000000000000D+00  0.0000000000000D+00
343  3.4200000000000D+00  0.0000000000000D+00  0.0000000000000D+00
344  3.4300000000000D+00  0.0000000000000D+00  0.0000000000000D+00
345  3.4400000000000D+00  0.0000000000000D+00  0.0000000000000D+00
346  3.4500000000000D+00  0.0000000000000D+00  0.0000000000000D+00
347  3.4600000000000D+00  0.0000000000000D+00  0.0000000000000D+00
348  3.4700000000000D+00  0.0000000000000D+00  0.0000000000000D+00
349  3.4800000000000D+00  0.0000000000000D+00  0.0000000000000D+00
350  3.4900000000000D+00  0.0000000000000D+00  0.0000000000000D+00
351  3.5000000000000D+00  0.0000000000000D+00  0.0000000000000D+00
352  3.5100000000000D+00  0.0000000000000D+00  0.0000000000000D+00
353  3.5200000000000D+00  0.0000000000000D+00  0.0000000000000D+00
354  3.5300000000000D+00  0.0000000000000D+00  0.0000000000000D+00
355  3.5400000000000D+00  0.0000000000000D+00  0.0000000000000D+00
356  3.5500000000000D+00  0.0000000000000D+00  0.0000000000000D+00
357  3.5600000000000D+00  0.0000000000000D+00  0.0000000000000D+00
358  3.5700000000000D+00  0.0000000000000D+00  0.0000000000000D+00
359  3.5800000000000D+00  0.0000000000000D+00  0.0000000000000D+00
360  3.5900000000000D+00  0.0000000000000D+00  0.0000000000000D+00
361  3.6000000000000D+00  0.0000000000000D+00  0.0000000000000D+00
362  3.6100000000000D+00  0.0000000000000D+00  0.0000000000000D+00
363  3.6200000000000D+00  0.0000000000000D+00  0.0000000000000D+00
364  3.6300000000000D+00  0.0000000000000D+00  0.0000000000000D+00
365  3.6400000000000D+00  0.0000000000000D+00  0.0000000000000D+00
366  3.6500000000000D+00  0.0000000000000D+00  0.0000000000000D+00
367  3.6600000000000D+00  0.0000000000000D+00  0.0000000000000D+00
368  3.6700000000000D+00  0.0000000000000D+00  0.0000000000000D+00
369  3.6800000000000D+00  0.0000000000000D+00  0.0000000000000D+00
370  3.6900000000000D+00  0.0000000000000D+00  0.0000000000000D+00
371  3.7000000000000D+00  0.0000000000000D+00  0.0000000000000D+00
372  3.7100000000000D+00  0.0000000000000D+00  0.0000000000000D+00
373  3.7200000000000D+00  0.0000000000000D+00  0.0000000000000D+00
374  3.7300000000000D+00  0.0000000000000D+00  0.0000000000000D+00
375  3.7400000000000D+00  0.0000000000000D+00  0.0000000000000D+00
376  3.7500000000000D+00  0.0000000000000D+00  0.0000000000000D+00
377  3.7600000000000D+00  0.0000000000000D+00  0.0000000000000D+00
378  3.7700000000000D+00  0.0000000000000D+00  0.0000000000000D+00
379  3.7800000000000D+00  0.0000000000000D+00  0.0000000000000D+00
380  3.7900000000000D+00  0.0000000000000D+00  0.0000000000000D+00
381  3.8000000000000D+00  0.0000000000000D+00  0.0000000000000D+00
382  3.8100000000000D+00  0.0000000000000D+00  0.0000000000000D+00
383  3.8200000000000D+00  0.0000000000000D+00  0.0000000000000D+00
384  3.8300000000000D+00  0.0000000000000D+00  0.0000000000000D+00
385  3.8400000000000D+00  0.0000000000000D+00  0.0000000000000D+00
386  3.8500000000000D+00  0.0000000000000D+00  0.0000000000000D+00
387  3.8600000000000D+00  0.0000000000000D+00  0.0000000000000D+00
388  3.8700000000000D+00  0.0000000000000D+00  0.0000000000000D+00
389  3.8800000000000D+00  0.0000000000000D+00  0.0000000000000D+00
390  3.8900000000000D+00  0.0000000000000D+00  0.0000000000000D+00
391  3.9000000000000D+00  0.0000000000000D+00  0.0000000000000D+00
392  3.9100000000000D+00  0.0000000000000D+00  0.0000000000000D+00
393  3.9200000000000D+00  0.0000000000000D+00  0.0000000000000D+00
394  3.9300000000000D+00  0.0000000000000D+00  0.0000000000000D+00
395  3.9400000000000D+00  0.0000000000000D+00  0.0000000000000D+00
396  3.9500000000000D+00  0.0000000000000D+00  0.0000000000000D+00
397  3.9600000000000D+00  0.0000000000000D+00  0.0000000000000D+00
398  3.9700000000000D+00  0.0000000000000D+00  0.0000000000000D+00
399  3.9800000000000D+00  0.0000000000000D+00  0.0000000000000D+00
400  3.9900000000000D+00  0.0000000000000D+00  0.0000000000000D+00
401  4.0000000000000D+00  0.0000000000000D+00  0.0000000000000D+00
402  4.0100000000000D+00  0.0000000000000D+00  0.0000000000000D+00
403  4.0200000000000D+00  0.0000000000000D+00  0.0000000000000D+00
404  4.0300000000000D+00  0.0000000000000D+00  0.0000000000000D+00
405  4.0400000000000D+00  0.0000000000000D+00  0.0000000000000D+00
406  4.0500000000000D+00  0.0000000000000D+00  0.0000000000000D+00
407  4.0600000000000D+00  0.0000000000000D+00  0.0000000000000D+00
408  4.0700000000000D+00  0.0000000000000D+00  0.0000000000000D+00
409  4.0800000000000D+00  0.0000000000000D+00  0.0000000000000D+00
410  4.0900000000000D+00  0.0000000000000D+00  0.0000000000000D+00
411  4.1000000000000D+00  0.0000000000000D+00  0.0000000000000D+00
412  4.1100000000000D+00  0.0000000000000D+00  0.0000000000000D+00
413  4.1200000000000D+00  0.0000000000000D+00  0.0000000000000D+00
414  4.1300000000000D+00  0.0000000000000D+00  0.0000000000000D+00
415  4.1400000000000D+00  0.0000000000000D+00  0.0000000000000D+00
416  4.1500000000000D+00  0.0000000000000D+00  0.0000000000000D+00
417  4.1600000000000D+00  0.0000000000000D+00  0.0000000000000D+00
418  4.1700000000000D+00  0.0000000000000D+00  0.0000000000000D+00
419  4.1800000000000D+00  0.0000000000000D+00  0.0000000000000D+00
420  4.1900000000000D+00  0.0000000000000D+00  0.0000000000000D+00
421  4.2000000000000D+00  0.0000000000000D+00  0.0000000000000D+00
422  4.2100000000000D+00  0.0000000000000D+00  0.0000000000000D+00
423  4.2200000000000D+00  0.0000000000000D+00  0.0000000000000D+00
424  4.2300000000000D+00  0.0000000000000D+00  0.0000000000000D+00
425  4.2400000000000D+00  0.0000000000000D+00  0.0000000000000D+00
426  4.2500000000000D+00  0.0000000000000D+00  0.0000000000000D+00
427  4.2600000000000D+00  0.0000000000000D+00  0.0000000000000D+00
428  4.2700000000000D+00  0.0000000000000D+00  0.0000000000000D+00
429  4.2800000000000D+00  0.0000000000000D+00  0.0000000000000D+00
430  4.2900000000000D+00  0.0000000000000D+00  0.0000000000000D+00
431  4.3000000000000D+00  0.0000000000000D+00  0.0000000000000D+00
432  4.3100000000000D+00  0.0000000000000D+00  0.0000000000000D+00
433  4.3200000000000D+00  0.0000000000000D+00  0.0000000000000D+00
434  4.3300000000000D+00  0.0000000000000D+00  0.0000000000000D+00
435  4.3400000000000D+00  0.0000000000000D+00  0.0000000000000D+00
436  4.3500000000000D+00  0.0000000000000D+00  0.0000000000000D+00
437  4.3600000000000D+00  0.0000000000000D+00  0.0000000000000D+00
438  4.3700000000000D+00  0.0000000000000D+00  0.0000000000000D+00
439  4.3800000000000D+00  0.0000000000000D+00  0.0000000000000D+00
440  4.3900000000000D+00  0.0000000000000D+00  0.0000000000000D+00
441  4.4000000000000D+00  0.0000000000000D+00  0.0000000000000D+00
442  4.4100000000000D+00  0.0000000000000D+00  0.0000000000000D+00
443  4.4200000000000D+00  0.0000000000000D+00  0.0000000000000D+00