Zn    ONCVPSP  r_core=  1.36  1.66  1.85
30.0000     20.0000      151028    zatom,zion,pspd
8   -1013   2     4   600     0    pspcod,pspxc,lmax,lloc,mmax,r2well
5.99000000  0.00000000  0.00000000    rchrg fchrg qchrg
2     2     2     0     0    nproj
0                 extension_switch
0                         2.3918836835261D+00 -1.5268085220295D+00
1  0.0000000000000D+00  2.3445853702952D-08  7.5901773755049D-10
2  1.0000000000000D-02  6.4657780084072D-02  2.9496660690749D-02
3  2.0000000000000D-02  1.2947748829125D-01  5.9014842361774D-02
4  3.0000000000000D-02  1.9461119457184D-01  8.8575537115905D-02
5  4.0000000000000D-02  2.6019151151532D-01  1.1819868871809D-01
6  5.0000000000000D-02  3.2632250691189D-01  1.4790269176803D-01
7  6.0000000000000D-02  3.9307136853393D-01  1.7770391832440D-01
8  7.0000000000000D-02  4.6046104352590D-01  2.0761628021454D-01
9  8.0000000000000D-02  5.2846405134549D-01  2.3765083450427D-01
10  9.0000000000000D-02  5.9699764093721D-01  2.6781543868667D-01
11  1.0000000000000D-01  6.6592043040410D-01  2.9811446109641D-01
12  1.1000000000000D-01  7.3503063163368D-01  3.2854855089185D-01
13  1.2000000000000D-01  8.0406592396944D-01  3.5911447069626D-01
14  1.3000000000000D-01  8.7270500100183D-01  3.8980499368180D-01
15  1.4000000000000D-01  9.4057077382186D-01  4.2060886554312D-01
16  1.5000000000000D-01  1.0072351735971D+00  4.5151083047336D-01
17  1.6000000000000D-01  1.0722254570495D+00  4.8249171895354D-01
18  1.7000000000000D-01  1.1350318812658D+00  5.1352859392525D-01
19  1.8000000000000D-01  1.1951165801394D+00  5.4459495076609D-01
20  1.9000000000000D-01  1.2519234444364D+00  5.7566096545085D-01
21  2.0000000000000D-01  1.3048887817337D+00  6.0669378438425D-01
22  2.1000000000000D-01  1.3534525119053D+00  6.3765784865151D-01
23  2.2000000000000D-01  1.3970696389500D+00  6.6851524486809D-01
24  2.3000000000000D-01  1.4352217311218D+00  6.9922607443183D-01
25  2.4000000000000D-01  1.4674281387856D+00  7.2974883279669D-01
26  2.5000000000000D-01  1.4932566832554D+00  7.6004079040133D-01
27  2.6000000000000D-01  1.5123335600240D+00  7.9005836709612D-01
28  2.7000000000000D-01  1.5243522160494D+00  8.1975749231321D-01
29  2.8000000000000D-01  1.5290809827755D+00  8.4909394380561D-01
30  2.9000000000000D-01  1.5263692738452D+00  8.7802365852810D-01
31  3.0000000000000D-01  1.5161521883952D+00  9.0650301012742D-01
32  3.1000000000000D-01  1.4984533966920D+00  9.3448904852880D-01
33  3.2000000000000D-01  1.4733862238441D+00  9.6193969822629D-01
34  3.3000000000000D-01  1.4411528885298D+00  9.8881391307821D-01
35  3.4000000000000D-01  1.4020418961412D+00  1.0150717866468D+00
36  3.5000000000000D-01  1.3564236285051D+00  1.0406746183741D+00
37  3.6000000000000D-01  1.3047442143737D+00  1.0655849371203D+00
38  3.7000000000000D-01  1.2475178052284D+00  1.0897664847838D+00
39  3.8000000000000D-01  1.1853174186303D+00  1.1131841638314D+00
40  3.9000000000000D-01  1.1187645455125D+00  1.1358039535823D+00
41  4.0000000000000D-01  1.0485177475983D+00  1.1575928009699D+00
42  4.1000000000000D-01  9.7526049585769D-01  1.1785184922381D+00
43  4.2000000000000D-01  8.9968851994239D-01  1.1985495125934D+00
44  4.3000000000000D-01  8.2249695141916D-01  1.2176549012126D+00
45  4.4000000000000D-01  7.4436754999354D-01  1.2358041091942D+00
46  4.5000000000000D-01  6.6595630160681D-01  1.2529668680248D+00
47  4.6000000000000D-01  5.8788167025542D-01  1.2691130759207D+00
48  4.7000000000000D-01  5.1071377174982D-01  1.2842127089895D+00
49  4.8000000000000D-01  4.3496471767391D-01  1.2982357635601D+00
50  4.9000000000000D-01  3.6108035194382D-01  1.3111522352501D+00
51  5.0000000000000D-01  2.8943357117704D-01  1.3229321394069D+00
52  5.1000000000000D-01  2.2031938423346D-01  1.3335455764869D+00
53  5.2000000000000D-01  1.5395182660188D-01  1.3429628447536D+00
54  5.3000000000000D-01  9.0462802669606D-02  1.3511546014053D+00
55  5.4000000000000D-01  2.9902884318216D-02  1.3580920719203D+00
56  5.5000000000000D-01 -2.7755951323745D-02  1.3637473060588D+00
57  5.6000000000000D-01 -8.2615707540368D-02  1.3680934776227D+00
58  5.7000000000000D-01 -1.3484598405295D-01  1.3711052237746D+00
59  5.8000000000000D-01 -1.8467597242240D-01  1.3727590184945D+00
60  5.9000000000000D-01 -2.3238501882229D-01  1.3730335736276D+00
61  6.0000000000000D-01 -2.7829197695555D-01  1.3719102599897D+00
62  6.1000000000000D-01 -3.2274360380910D-01  1.3693735401592D+00
63  6.2000000000000D-01 -3.6610227507099D-01  1.3654114039354D+00
64  6.3000000000000D-01 -4.0873331501264D-01  1.3600157969811D+00
65  6.4000000000000D-01 -4.5099224675164D-01  1.3531830329269D+00
66  6.5000000000000D-01 -4.9321227297089D-01  1.3449141791867D+00
67  6.6000000000000D-01 -5.3569229403952D-01  1.3352154069363D+00
68  6.7000000000000D-01 -5.7868576027623D-01  1.3240982961285D+00
69  6.8000000000000D-01 -6.2239063778961D-01  1.3115800870598D+00
70  6.9000000000000D-01 -6.6694074343552D-01  1.2976838708519D+00
71  7.0000000000000D-01 -7.1239867429921D-01  1.2824387122486D+00
72  7.1000000000000D-01 -7.5875052174956D-01  1.2658796993315D+00
73  7.2000000000000D-01 -8.0590251956490D-01  1.2480479161142D+00
74  7.3000000000000D-01 -8.5367973171130D-01  1.2289903354410D+00
75  7.4000000000000D-01 -9.0182683835877D-01  1.2087596311668D+00
76  7.5000000000000D-01 -9.5001102995792D-01  1.1874139102043D+00
77  7.6000000000000D-01 -9.9782696996196D-01  1.1650163666391D+00
78  7.7000000000000D-01 -1.0448037377455D+00  1.1416348617232D+00
79  7.8000000000000D-01 -1.0904136160223D+00  1.1173414351002D+00
80  7.9000000000000D-01 -1.1340825425096D+00  1.0922117540751D+00
81  8.0000000000000D-01 -1.1752020047381D+00  1.0663245090772D+00
82  8.1000000000000D-01 -1.2131421208142D+00  1.0397607646473D+00
83  8.2000000000000D-01 -1.2472656184464D+00  1.0126032762792D+00
84  8.3000000000000D-01 -1.2769424003906D+00  9.8493578424745D-01
85  8.4000000000000D-01 -1.3015643672680D+00  9.5684229612115D-01
86  8.5000000000000D-01 -1.3205601589024D+00  9.2840637000244D-01
87  8.6000000000000D-01 -1.3334094732046D+00  8.9971041061326D-01
88  8.7000000000000D-01 -1.3396566273072D+00  8.7083499019119D-01
89  8.8000000000000D-01 -1.3389230390479D+00  8.4185820574063D-01
90  8.9000000000000D-01 -1.3309183277816D+00  8.1285508352948D-01
91  9.0000000000000D-01 -1.3154497614370D+00  7.8389704083537D-01
92  9.1000000000000D-01 -1.2924298111456D+00  7.5505141384749D-01
93  9.2000000000000D-01 -1.2618816149265D+00  7.2638105934293D-01
94  9.3000000000000D-01 -1.2239421969268D+00  6.9794403630674D-01
95  9.4000000000000D-01 -1.1788633376154D+00  6.6979337208446D-01
96  9.5000000000000D-01 -1.1270100420141D+00  6.4197691597625D-01
97  9.6000000000000D-01 -1.0688566062841D+00  6.1453728144518D-01
98  9.7000000000000D-01 -1.0049803372569D+00  5.8751187632955D-01
99  9.8000000000000D-01 -9.3605303130736D-01  5.6093301873775D-01
100  9.9000000000000D-01 -8.6283037120231D-01  5.3482813456388D-01
101  1.0000000000000D+00 -7.8613944677855D-01  5.0922003097246D-01
102  1.0100000000000D+00 -7.0686464883523D-01  4.8412723871578D-01
103  1.0200000000000D+00 -6.2593222399862D-01  4.5956441481525D-01
104  1.0300000000000D+00 -5.4429381038483D-01  4.3554279599539D-01
105  1.0400000000000D+00 -4.6290929901521D-01  4.1207069232103D-01
106  1.0500000000000D+00 -3.8272938301133D-01  3.8915400981491D-01
107  1.0600000000000D+00 -3.0467816732100D-01  3.6679679032158D-01
108  1.0700000000000D+00 -2.2963621185839D-01  3.4500175673033D-01
109  1.0800000000000D+00 -1.5842437482703D-01  3.2377085169541D-01
110  1.0900000000000D+00 -9.1788804997170D-02  3.0310575837985D-01
111  1.1000000000000D+00 -3.0387414385592D-02  2.8300839215651D-01
112  1.1100000000000D+00  2.5221874552887D-02  2.6348135317171D-01
113  1.1200000000000D+00  7.4590845929519D-02  2.4452833057467D-01
114  1.1300000000000D+00  1.1738845890193D-01  2.2615445056870D-01
115  1.1400000000000D+00  1.5340589523251D-01  2.0836656158188D-01
116  1.1500000000000D+00  1.8255907292545D-01  1.9117345156054D-01
117  1.1600000000000D+00  2.0488856625663D-01  1.7458599394590D-01
118  1.1700000000000D+00  2.2055693410343D-01  1.5861722071003D-01
119  1.1800000000000D+00  2.2984349944358D-01  1.4328232203626D-01
120  1.1900000000000D+00  2.3313669958865D-01  1.2859857452144D-01
121  1.2000000000000D+00  2.3092417090559D-01  1.1458520112130D-01
122  1.2100000000000D+00  2.2378078180633D-01  1.0126316758642D-01
123  1.2200000000000D+00  2.1235486923226D-01  8.8654921398944D-02
124  1.2300000000000D+00  1.9735298945341D-01  7.6784080958788D-02
125  1.2400000000000D+00  1.7952351476351D-01  6.5675083462698D-02
126  1.2500000000000D+00  1.5963942995163D-01  5.5352800598590D-02
127  1.2600000000000D+00  1.3848072081634D-01  4.5842132484197D-02
128  1.2700000000000D+00  1.1681673718789D-01  3.7167590358109D-02
129  1.2800000000000D+00  9.5388903369170D-02  2.9352876035314D-02
130  1.2900000000000D+00  7.4894250261525D-02  2.2420478075539D-02
131  1.3000000000000D+00  5.5969768893815D-02  1.6391257437199D-02
132  1.3100000000000D+00  3.9179197468539D-02  1.1284163575511D-02
133  1.3200000000000D+00  2.5008884366146D-02  7.1185028106103D-03
134  1.3300000000000D+00  1.3770274582549D-02  3.8890119783382D-03
135  1.3400000000000D+00  5.8389096149195D-03  1.6369864510178D-03
136  1.3500000000000D+00  1.5507010829760D-03  4.2102971370242D-04
137  1.3600000000000D+00  4.6815646150085D-05 -3.2843774366149D-06
138  1.3700000000000D+00 -8.4425509554570D-05 -2.8804438655612D-05
139  1.3800000000000D+00  4.6300270197322D-05  1.4941324688315D-05
140  1.3900000000000D+00  8.7690508592596D-06  2.7734717828967D-06
141  1.4000000000000D+00 -8.2074224135299D-06 -2.7467287653609D-06
142  1.4100000000000D+00 -2.3557189299987D-07 -4.2820605021203D-08
143  1.4200000000000D+00 -3.6292635737099D-07 -6.5970205540503D-08
144  1.4300000000000D+00  0.0000000000000D+00  0.0000000000000D+00
145  1.4400000000000D+00  0.0000000000000D+00  0.0000000000000D+00
146  1.4500000000000D+00  0.0000000000000D+00  0.0000000000000D+00
147  1.4600000000000D+00  0.0000000000000D+00  0.0000000000000D+00
148  1.4700000000000D+00  0.0000000000000D+00  0.0000000000000D+00
149  1.4800000000000D+00  0.0000000000000D+00  0.0000000000000D+00
150  1.4900000000000D+00  0.0000000000000D+00  0.0000000000000D+00
151  1.5000000000000D+00  0.0000000000000D+00  0.0000000000000D+00
152  1.5100000000000D+00  0.0000000000000D+00  0.0000000000000D+00
153  1.5200000000000D+00  0.0000000000000D+00  0.0000000000000D+00
154  1.5300000000000D+00  0.0000000000000D+00  0.0000000000000D+00
155  1.5400000000000D+00  0.0000000000000D+00  0.0000000000000D+00
156  1.5500000000000D+00  0.0000000000000D+00  0.0000000000000D+00
157  1.5600000000000D+00  0.0000000000000D+00  0.0000000000000D+00
158  1.5700000000000D+00  0.0000000000000D+00  0.0000000000000D+00
159  1.5800000000000D+00  0.0000000000000D+00  0.0000000000000D+00
160  1.5900000000000D+00  0.0000000000000D+00  0.0000000000000D+00
161  1.6000000000000D+00  0.0000000000000D+00  0.0000000000000D+00
162  1.6100000000000D+00  0.0000000000000D+00  0.0000000000000D+00
163  1.6200000000000D+00  0.0000000000000D+00  0.0000000000000D+00
164  1.6300000000000D+00  0.0000000000000D+00  0.0000000000000D+00
165  1.6400000000000D+00  0.0000000000000D+00  0.0000000000000D+00
166  1.6500000000000D+00  0.0000000000000D+00  0.0000000000000D+00
167  1.6600000000000D+00  0.0000000000000D+00  0.0000000000000D+00
168  1.6700000000000D+00  0.0000000000000D+00  0.0000000000000D+00
169  1.6800000000000D+00  0.0000000000000D+00  0.0000000000000D+00
170  1.6900000000000D+00  0.0000000000000D+00  0.0000000000000D+00
171  1.7000000000000D+00  0.0000000000000D+00  0.0000000000000D+00
172  1.7100000000000D+00  0.0000000000000D+00  0.0000000000000D+00
173  1.7200000000000D+00  0.0000000000000D+00  0.0000000000000D+00
174  1.7300000000000D+00  0.0000000000000D+00  0.0000000000000D+00
175  1.7400000000000D+00  0.0000000000000D+00  0.0000000000000D+00
176  1.7500000000000D+00  0.0000000000000D+00  0.0000000000000D+00
177  1.7600000000000D+00  0.0000000000000D+00  0.0000000000000D+00
178  1.7700000000000D+00  0.0000000000000D+00  0.0000000000000D+00
179  1.7800000000000D+00  0.0000000000000D+00  0.0000000000000D+00
180  1.7900000000000D+00  0.0000000000000D+00  0.0000000000000D+00
181  1.8000000000000D+00  0.0000000000000D+00  0.0000000000000D+00
182  1.8100000000000D+00  0.0000000000000D+00  0.0000000000000D+00
183  1.8200000000000D+00  0.0000000000000D+00  0.0000000000000D+00
184  1.8300000000000D+00  0.0000000000000D+00  0.0000000000000D+00
185  1.8400000000000D+00  0.0000000000000D+00  0.0000000000000D+00
186  1.8500000000000D+00  0.0000000000000D+00  0.0000000000000D+00
187  1.8600000000000D+00  0.0000000000000D+00  0.0000000000000D+00
188  1.8700000000000D+00  0.0000000000000D+00  0.0000000000000D+00
189  1.8800000000000D+00  0.0000000000000D+00  0.0000000000000D+00
190  1.8900000000000D+00  0.0000000000000D+00  0.0000000000000D+00
191  1.9000000000000D+00  0.0000000000000D+00  0.0000000000000D+00
192  1.9100000000000D+00  0.0000000000000D+00  0.0000000000000D+00
193  1.9200000000000D+00  0.0000000000000D+00  0.0000000000000D+00
194  1.9300000000000D+00  0.0000000000000D+00  0.0000000000000D+00
195  1.9400000000000D+00  0.0000000000000D+00  0.0000000000000D+00
196  1.9500000000000D+00  0.0000000000000D+00  0.0000000000000D+00
197  1.9600000000000D+00  0.0000000000000D+00  0.0000000000000D+00
198  1.9700000000000D+00  0.0000000000000D+00  0.0000000000000D+00
199  1.9800000000000D+00  0.0000000000000D+00  0.0000000000000D+00
200  1.9900000000000D+00  0.0000000000000D+00  0.0000000000000D+00
201  2.0000000000000D+00  0.0000000000000D+00  0.0000000000000D+00
202  2.0100000000000D+00  0.0000000000000D+00  0.0000000000000D+00
203  2.0200000000000D+00  0.0000000000000D+00  0.0000000000000D+00
204  2.0300000000000D+00  0.0000000000000D+00  0.0000000000000D+00
205  2.0400000000000D+00  0.0000000000000D+00  0.0000000000000D+00
206  2.0500000000000D+00  0.0000000000000D+00  0.0000000000000D+00
207  2.0600000000000D+00  0.0000000000000D+00  0.0000000000000D+00
208  2.0700000000000D+00  0.0000000000000D+00  0.0000000000000D+00
209  2.0800000000000D+00  0.0000000000000D+00  0.0000000000000D+00
210  2.0900000000000D+00  0.0000000000000D+00  0.0000000000000D+00
211  2.1000000000000D+00  0.0000000000000D+00  0.0000000000000D+00
212  2.1100000000000D+00  0.0000000000000D+00  0.0000000000000D+00
213  2.1200000000000D+00  0.0000000000000D+00  0.0000000000000D+00
214  2.1300000000000D+00  0.0000000000000D+00  0.0000000000000D+00
215  2.1400000000000D+00  0.0000000000000D+00  0.0000000000000D+00
216  2.1500000000000D+00  0.0000000000000D+00  0.0000000000000D+00
217  2.1600000000000D+00  0.0000000000000D+00  0.0000000000000D+00
218  2.1700000000000D+00  0.0000000000000D+00  0.0000000000000D+00
219  2.1800000000000D+00  0.0000000000000D+00  0.0000000000000D+00
220  2.1900000000000D+00  0.0000000000000D+00  0.0000000000000D+00
221  2.2000000000000D+00  0.0000000000000D+00  0.0000000000000D+00
222  2.2100000000000D+00  0.0000000000000D+00  0.0000000000000D+00
223  2.2200000000000D+00  0.0000000000000D+00  0.0000000000000D+00
224  2.2300000000000D+00  0.0000000000000D+00  0.0000000000000D+00
225  2.2400000000000D+00  0.0000000000000D+00  0.0000000000000D+00
226  2.2500000000000D+00  0.0000000000000D+00  0.0000000000000D+00
227  2.2600000000000D+00  0.0000000000000D+00  0.0000000000000D+00
228  2.2700000000000D+00  0.0000000000000D+00  0.0000000000000D+00
229  2.2800000000000D+00  0.0000000000000D+00  0.0000000000000D+00
230  2.2900000000000D+00  0.0000000000000D+00  0.0000000000000D+00
231  2.3000000000000D+00  0.0000000000000D+00  0.0000000000000D+00
232  2.3100000000000D+00  0.0000000000000D+00  0.0000000000000D+00
233  2.3200000000000D+00  0.0000000000000D+00  0.0000000000000D+00
234  2.3300000000000D+00  0.0000000000000D+00  0.0000000000000D+00
235  2.3400000000000D+00  0.0000000000000D+00  0.0000000000000D+00
236  2.3500000000000D+00  0.0000000000000D+00  0.0000000000000D+00
237  2.3600000000000D+00  0.0000000000000D+00  0.0000000000000D+00
238  2.3700000000000D+00  0.0000000000000D+00  0.0000000000000D+00
239  2.3800000000000D+00  0.0000000000000D+00  0.0000000000000D+00
240  2.3900000000000D+00  0.0000000000000D+00  0.0000000000000D+00
241  2.4000000000000D+00  0.0000000000000D+00  0.0000000000000D+00
242  2.4100000000000D+00  0.0000000000000D+00  0.0000000000000D+00
243  2.4200000000000D+00  0.0000000000000D+00  0.0000000000000D+00
244  2.4300000000000D+00  0.0000000000000D+00  0.0000000000000D+00
245  2.4400000000000D+00  0.0000000000000D+00  0.0000000000000D+00
246  2.4500000000000D+00  0.0000000000000D+00  0.0000000000000D+00
247  2.4600000000000D+00  0.0000000000000D+00  0.0000000000000D+00
248  2.4700000000000D+00  0.0000000000000D+00  0.0000000000000D+00
249  2.4800000000000D+00  0.0000000000000D+00  0.0000000000000D+00
250  2.4900000000000D+00  0.0000000000000D+00  0.0000000000000D+00
251  2.5000000000000D+00  0.0000000000000D+00  0.0000000000000D+00
252  2.5100000000000D+00  0.0000000000000D+00  0.0000000000000D+00
253  2.5200000000000D+00  0.0000000000000D+00  0.0000000000000D+00
254  2.5300000000000D+00  0.0000000000000D+00  0.0000000000000D+00
255  2.5400000000000D+00  0.0000000000000D+00  0.0000000000000D+00
256  2.5500000000000D+00  0.0000000000000D+00  0.0000000000000D+00
257  2.5600000000000D+00  0.0000000000000D+00  0.0000000000000D+00
258  2.5700000000000D+00  0.0000000000000D+00  0.0000000000000D+00
259  2.5800000000000D+00  0.0000000000000D+00  0.0000000000000D+00
260  2.5900000000000D+00  0.0000000000000D+00  0.0000000000000D+00
261  2.6000000000000D+00  0.0000000000000D+00  0.0000000000000D+00
262  2.6100000000000D+00  0.0000000000000D+00  0.0000000000000D+00
263  2.6200000000000D+00  0.0000000000000D+00  0.0000000000000D+00
264  2.6300000000000D+00  0.0000000000000D+00  0.0000000000000D+00
265  2.6400000000000D+00  0.0000000000000D+00  0.0000000000000D+00
266  2.6500000000000D+00  0.0000000000000D+00  0.0000000000000D+00
267  2.6600000000000D+00  0.0000000000000D+00  0.0000000000000D+00
268  2.6700000000000D+00  0.0000000000000D+00  0.0000000000000D+00
269  2.6800000000000D+00  0.0000000000000D+00  0.0000000000000D+00
270  2.6900000000000D+00  0.0000000000000D+00  0.0000000000000D+00
271  2.7000000000000D+00  0.0000000000000D+00  0.0000000000000D+00
272  2.7100000000000D+00  0.0000000000000D+00  0.0000000000000D+00
273  2.7200000000000D+00  0.0000000000000D+00  0.0000000000000D+00
274  2.7300000000000D+00  0.0000000000000D+00  0.0000000000000D+00
275  2.7400000000000D+00  0.0000000000000D+00  0.0000000000000D+00
276  2.7500000000000D+00  0.0000000000000D+00  0.0000000000000D+00
277  2.7600000000000D+00  0.0000000000000D+00  0.0000000000000D+00
278  2.7700000000000D+00  0.0000000000000D+00  0.0000000000000D+00
279  2.7800000000000D+00  0.0000000000000D+00  0.0000000000000D+00
280  2.7900000000000D+00  0.0000000000000D+00  0.0000000000000D+00
281  2.8000000000000D+00  0.0000000000000D+00  0.0000000000000D+00
282  2.8100000000000D+00  0.0000000000000D+00  0.0000000000000D+00
283  2.8200000000000D+00  0.0000000000000D+00  0.0000000000000D+00
284  2.8300000000000D+00  0.0000000000000D+00  0.0000000000000D+00
285  2.8400000000000D+00  0.0000000000000D+00  0.0000000000000D+00
286  2.8500000000000D+00  0.0000000000000D+00  0.0000000000000D+00
287  2.8600000000000D+00  0.0000000000000D+00  0.0000000000000D+00
288  2.8700000000000D+00  0.0000000000000D+00  0.0000000000000D+00
289  2.8800000000000D+00  0.0000000000000D+00  0.0000000000000D+00
290  2.8900000000000D+00  0.0000000000000D+00  0.0000000000000D+00
291  2.9000000000000D+00  0.0000000000000D+00  0.0000000000000D+00
292  2.9100000000000D+00  0.0000000000000D+00  0.0000000000000D+00
293  2.9200000000000D+00  0.0000000000000D+00  0.0000000000000D+00
294  2.9300000000000D+00  0.0000000000000D+00  0.0000000000000D+00
295  2.9400000000000D+00  0.0000000000000D+00  0.0000000000000D+00
296  2.9500000000000D+00  0.0000000000000D+00  0.0000000000000D+00
297  2.9600000000000D+00  0.0000000000000D+00  0.0000000000000D+00
298  2.9700000000000D+00  0.0000000000000D+00  0.0000000000000D+00
299  2.9800000000000D+00  0.0000000000000D+00  0.0000000000000D+00
300  2.9900000000000D+00  0.0000000000000D+00  0.0000000000000D+00
301  3.0000000000000D+00  0.0000000000000D+00  0.0000000000000D+00
302  3.0100000000000D+00  0.0000000000000D+00  0.0000000000000D+00
303  3.0200000000000D+00  0.0000000000000D+00  0.0000000000000D+00
304  3.0300000000000D+00  0.0000000000000D+00  0.0000000000000D+00
305  3.0400000000000D+00  0.0000000000000D+00  0.0000000000000D+00
306  3.0500000000000D+00  0.0000000000000D+00  0.0000000000000D+00
307  3.0600000000000D+00  0.0000000000000D+00  0.0000000000000D+00
308  3.0700000000000D+00  0.0000000000000D+00  0.0000000000000D+00
309  3.0800000000000D+00  0.0000000000000D+00  0.0000000000000D+00
310  3.0900000000000D+00  0.0000000000000D+00  0.0000000000000D+00
311  3.1000000000000D+00  0.0000000000000D+00  0.0000000000000D+00
312  3.1100000000000D+00  0.0000000000000D+00  0.0000000000000D+00
313  3.1200000000000D+00  0.0000000000000D+00  0.0000000000000D+00
314  3.1300000000000D+00  0.0000000000000D+00  0.0000000000000D+00
315  3.1400000000000D+00  0.0000000000000D+00  0.0000000000000D+00
316  3.1500000000000D+00  0.0000000000000D+00  0.0000000000000D+00
317  3.1600000000000D+00  0.0000000000000D+00  0.0000000000000D+00
318  3.1700000000000D+00  0.0000000000000D+00  0.0000000000000D+00
319  3.1800000000000D+00  0.0000000000000D+00  0.0000000000000D+00
320  3.1900000000000D+00  0.0000000000000D+00  0.0000000000000D+00
321  3.2000000000000D+00  0.0000000000000D+00  0.0000000000000D+00
322  3.2100000000000D+00  0.0000000000000D+00  0.0000000000000D+00
323  3.2200000000000D+00  0.0000000000000D+00  0.0000000000000D+00
324  3.2300000000000D+00  0.0000000000000D+00  0.0000000000000D+00
325  3.2400000000000D+00  0.0000000000000D+00  0.0000000000000D+00
326  3.2500000000000D+00  0.0000000000000D+00  0.0000000000000D+00
327  3.2600000000000D+00  0.0000000000000D+00  0.0000000000000D+00
328  3.2700000000000D+00  0.0000000000000D+00  0.0000000000000D+00
329  3.2800000000000D+00  0.0000000000000D+00  0.0000000000000D+00
330  3.2900000000000D+00  0.0000000000000D+00  0.0000000000000D+00
331  3.3000000000000D+00  0.0000000000000D+00  0.0000000000000D+00
332  3.3100000000000D+00  0.0000000000000D+00  0.0000000000000D+00
333  3.3200000000000D+00  0.0000000000000D+00  0.0000000000000D+00
334  3.3300000000000D+00  0.0000000000000D+00  0.0000000000000D+00
335  3.3400000000000D+00  0.0000000000000D+00  0.0000000000000D+00
336  3.3500000000000D+00  0.0000000000000D+00  0.0000000000000D+00
337  3.3600000000000D+00  0.0000000000000D+00  0.0000000000000D+00
338  3.3700000000000D+00  0.0000000000000D+00  0.0000000000000D+00
339  3.3800000000000D+00  0.0000000000000D+00  0.0000000000000D+00
340  3.3900000000000D+00  0.0000000000000D+00  0.0000000000000D+00
341  3.4000000000000D+00  0.0000000000000D+00  0.0000000000000D+00
342  3.4100000000000D+00  0.0000000000000D+00  0.0000000000000D+00
343  3.4200000000000D+00  0.0000000000000D+00  0.0000000000000D+00
344  3.4300000000000D+00  0.0000000000000D+00  0.0000000000000D+00
345  3.4400000000000D+00  0.0000000000000D+00  0.0000000000000D+00
346  3.4500000000000D+00  0.0000000000000D+00  0.0000000000000D+00
347  3.4600000000000D+00  0.0000000000000D+00  0.0000000000000D+00
348  3.4700000000000D+00  0.0000000000000D+00  0.0000000000000D+00
349  3.4800000000000D+00  0.0000000000000D+00  0.0000000000000D+00
350  3.4900000000000D+00  0.0000000000000D+00  0.0000000000000D+00
351  3.5000000000000D+00  0.0000000000000D+00  0.0000000000000D+00
352  3.5100000000000D+00  0.0000000000000D+00  0.0000000000000D+00
353  3.5200000000000D+00  0.0000000000000D+00  0.0000000000000D+00
354  3.5300000000000D+00  0.0000000000000D+00  0.0000000000000D+00
355  3.5400000000000D+00  0.0000000000000D+00  0.0000000000000D+00
356  3.5500000000000D+00  0.0000000000000D+00  0.0000000000000D+00
357  3.5600000000000D+00  0.0000000000000D+00  0.0000000000000D+00
358  3.5700000000000D+00  0.0000000000000D+00  0.0000000000000D+00
359  3.5800000000000D+00  0.0000000000000D+00  0.0000000000000D+00
360  3.5900000000000D+00  0.0000000000000D+00  0.0000000000000D+00
361  3.6000000000000D+00  0.0000000000000D+00  0.0000000000000D+00
362  3.6100000000000D+00  0.0000000000000D+00  0.0000000000000D+00
363  3.6200000000000D+00  0.0000000000000D+00  0.0000000000000D+00
364  3.6300000000000D+00  0.0000000000000D+00  0.0000000000000D+00
365  3.6400000000000D+00  0.0000000000000D+00  0.0000000000000D+00
366  3.6500000000000D+00  0.0000000000000D+00  0.0000000000000D+00
367  3.6600000000000D+00  0.0000000000000D+00  0.0000000000000D+00
368  3.6700000000000D+00  0.0000000000000D+00  0.0000000000000D+00
369  3.6800000000000D+00  0.0000000000000D+00  0.0000000000000D+00
370  3.6900000000000D+00  0.0000000000000D+00  0.0000000000000D+00
371  3.7000000000000D+00  0.0000000000000D+00  0.0000000000000D+00
372  3.7100000000000D+00  0.0000000000000D+00  0.0000000000000D+00
373  3.7200000000000D+00  0.0000000000000D+00  0.0000000000000D+00
374  3.7300000000000D+00  0.0000000000000D+00  0.0000000000000D+00
375  3.7400000000000D+00  0.0000000000000D+00  0.0000000000000D+00
376  3.7500000000000D+00  0.0000000000000D+00  0.0000000000000D+00
377  3.7600000000000D+00  0.0000000000000D+00  0.0000000000000D+00
378  3.7700000000000D+00  0.0000000000000D+00  0.0000000000000D+00
379  3.7800000000000D+00  0.0000000000000D+00  0.0000000000000D+00
380  3.7900000000000D+00  0.0000000000000D+00  0.0000000000000D+00
381  3.8000000000000D+00  0.0000000000000D+00  0.0000000000000D+00
382  3.8100000000000D+00  0.0000000000000D+00  0.0000000000000D+00
383  3.8200000000000D+00  0.0000000000000D+00  0.0000000000000D+00
384  3.8300000000000D+00  0.0000000000000D+00  0.0000000000000D+00
385  3.8400000000000D+00  0.0000000000000D+00  0.0000000000000D+00
386  3.8500000000000D+00  0.0000000000000D+00  0.0000000000000D+00
387  3.8600000000000D+00  0.0000000000000D+00  0.0000000000000D+00
388  3.8700000000000D+00  0.0000000000000D+00  0.0000000000000D+00
389  3.8800000000000D+00  0.0000000000000D+00  0.0000000000000D+00
390  3.8900000000000D+00  0.0000000000000D+00  0.0000000000000D+00
391  3.9000000000000D+00  0.0000000000000D+00  0.0000000000000D+00
392  3.9100000000000D+00  0.0000000000000D+00  0.0000000000000D+00
393  3.9200000000000D+00  0.0000000000000D+00  0.0000000000000D+00
394  3.9300000000000D+00  0.0000000000000D+00  0.0000000000000D+00
395  3.9400000000000D+00  0.0000000000000D+00  0.0000000000000D+00
396  3.9500000000000D+00  0.0000000000000D+00  0.0000000000000D+00
397  3.9600000000000D+00  0.0000000000000D+00  0.0000000000000D+00
398  3.9700000000000D+00  0.0000000000000D+00  0.0000000000000D+00
399  3.9800000000000D+00  0.0000000000000D+00  0.0000000000000D+00
400  3.9900000000000D+00  0.0000000000000D+00  0.0000000000000D+00
401  4.0000000000000D+00  0.0000000000000D+00  0.0000000000000D+00
402  4.0100000000000D+00  0.0000000000000D+00  0.0000000000000D+00
403  4.0200000000000D+00  0.0000000000000D+00  0.0000000000000D+00
404  4.0300000000000D+00  0.0000000000000D+00  0.0000000000000D+00
405  4.0400000000000D+00  0.0000000000000D+00  0.0000000000000D+00
406  4.0500000000000D+00  0.0000000000000D+00  0.0000000000000D+00
407  4.0600000000000D+00  0.0000000000000D+00  0.0000000000000D+00
408  4.0700000000000D+00  0.0000000000000D+00  0.0000000000000D+00
409  4.0800000000000D+00  0.0000000000000D+00  0.0000000000000D+00
410  4.0900000000000D+00  0.0000000000000D+00  0.0000000000000D+00
411  4.1000000000000D+00  0.0000000000000D+00  0.0000000000000D+00
412  4.1100000000000D+00  0.0000000000000D+00  0.0000000000000D+00
413  4.1200000000000D+00  0.0000000000000D+00  0.0000000000000D+00
414  4.1300000000000D+00  0.0000000000000D+00  0.0000000000000D+00
415  4.1400000000000D+00  0.0000000000000D+00  0.0000000000000D+00
416  4.1500000000000D+00  0.0000000000000D+00  0.0000000000000D+00
417  4.1600000000000D+00  0.0000000000000D+00  0.0000000000000D+00
418  4.1700000000000D+00  0.0000000000000D+00  0.0000000000000D+00
419  4.1800000000000D+00  0.0000000000000D+00  0.0000000000000D+00
420  4.1900000000000D+00  0.0000000000000D+00  0.0000000000000D+00
421  4.2000000000000D+00  0.0000000000000D+00  0.0000000000000D+00
422  4.2100000000000D+00  0.0000000000000D+00  0.0000000000000D+00
423  4.2200000000000D+00  0.0000000000000D+00  0.0000000000000D+00
424  4.2300000000000D+00  0.0000000000000D+00  0.0000000000000D+00
425  4.2400000000000D+00  0.0000000000000D+00  0.0000000000000D+00
426  4.2500000000000D+00  0.0000000000000D+00  0.0000000000000D+00
427  4.2600000000000D+00  0.0000000000000D+00  0.0000000000000D+00
428  4.2700000000000D+00  0.0000000000000D+00  0.0000000000000D+00
429  4.2800000000000D+00  0.0000000000000D+00  0.0000000000000D+00
430  4.2900000000000D+00  0.0000000000000D+00  0.0000000000000D+00
431  4.3000000000000D+00  0.0000000000000D+00  0.0000000000000D+00
432  4.3100000000000D+00  0.0000000000000D+00  0.0000000000000D+00
433  4.3200000000000D+00  0.0000000000000D+00  0.0000000000000D+00
434  4.3300000000000D+00  0.0000000000000D+00  0.0000000000000D+00
435  4.3400000000000D+00  0.0000000000000D+00  0.0000000000000D+00
436  4.3500000000000D+00  0.0000000000000D+00  0.0000000000000D+00
437  4.3600000000000D+00  0.0000000000000D+00  0.0000000000000D+00
438  4.3700000000000D+00  0.0000000000000D+00  0.0000000000000D+00
439  4.3800000000000D+00  0.0000000000000D+00  0.0000000000000D+00
440  4.3900000000000D+00  0.0000000000000D+00  0.0000000000000D+00
441  4.4000000000000D+00  0.0000000000000D+00  0.0000000000000D+00
442  4.4100000000000D+00  0.0000000000000D+00  0.0000000000000D+00
443  4.4200000000000D+00  0.0000000000000D+00  0.0000000000000D+00
444  4.4300000000000D+00  0.0000000000000D+00  0.0000000000000D+00