Si    ONCVPSP  r_core=  1.60  0.90  1.92
14.0000     12.0000      150529    zatom,zion,pspd
8    11     2     4   601     0    pspcod,pspxc,lmax,lloc,mmax,r2well
6.00000000  0.05000000  0.00000000    rchrg fchrg qchrg
2     2     2     0     0    nproj
0                 extension_switch
0                         1.2938520816453D+01 -7.6828433592526D-01
1  0.0000000000000D+00  0.0000000000000D+00  0.0000000000000D+00
2  1.0000000000000D-02 -1.3323867541097D-01 -5.1204852240050D-02
3  2.0000000000000D-02 -2.6569216374413D-01 -1.0223970739026D-01
4  3.0000000000000D-02 -3.9658046290599D-01 -1.5293586716412D-01
5  4.0000000000000D-02 -5.2513390335956D-01 -2.0312721956171D-01
6  5.0000000000000D-02 -6.5059822116257D-01 -2.5265150381404D-01
7  6.0000000000000D-02 -7.7223951992785D-01 -3.0135154177100D-01
8  7.0000000000000D-02 -8.8934908602854D-01 -3.4907642501668D-01
9  8.0000000000000D-02 -1.0012480225025D+00 -3.9568264738984D-01
10  9.0000000000000D-02 -1.1072916685060D+00 -4.4103517307286D-01
11  1.0000000000000D-01 -1.2068737728863D+00 -4.8500843100214D-01
12  1.1000000000000D-01 -1.2994303922167D+00 -5.2748722697929D-01
13  1.2000000000000D-01 -1.3844434859326D+00 -5.6836756563632D-01
14  1.3000000000000D-01 -1.4614441833407D+00 -6.0755737516336D-01
15  1.4000000000000D-01 -1.5300157001302D+00 -6.4497712864730D-01
16  1.5000000000000D-01 -1.5897958841212D+00 -6.8056035665728D-01
17  1.6000000000000D-01 -1.6404793736676D+00 -7.1425404686088D-01
18  1.7000000000000D-01 -1.6818193539002D+00 -7.4601892720761D-01
19  1.8000000000000D-01 -1.7136289005793D+00 -7.7582963055953D-01
20  1.9000000000000D-01 -1.7357819038053D+00 -8.0367473949910D-01
21  2.0000000000000D-01 -1.7482135644194D+00 -8.2955671077943D-01
22  2.1000000000000D-01 -1.7509204659667D+00 -8.5349168089864D-01
23  2.2000000000000D-01 -1.7439602191030D+00 -8.7550915409297D-01
24  2.3000000000000D-01 -1.7274506869489D+00 -8.9565157598879D-01
25  2.4000000000000D-01 -1.7015687972136D+00 -9.1397379691613D-01
26  2.5000000000000D-01 -1.6665489532566D+00 -9.3054242938113D-01
27  2.6000000000000D-01 -1.6226810569099D+00 -9.4543510576461D-01
28  2.7000000000000D-01 -1.5703081592388D+00 -9.5873964216578D-01
29  2.8000000000000D-01 -1.5098237633702D+00 -9.7055311811146D-01
30  2.9000000000000D-01 -1.4416687937765D+00 -9.8098087675264D-01
31  3.0000000000000D-01 -1.3663282601393D+00 -9.9013545645778D-01
32  3.1000000000000D-01 -1.2843276409168D+00 -9.9813546255815D-01
33  3.2000000000000D-01 -1.1962290216496D+00 -1.0051043913429D+00
34  3.3000000000000D-01 -1.1026270210596D+00 -1.0111694171222D+00
35  3.4000000000000D-01 -1.0041444498805D+00 -1.0164601259787D+00
36  3.5000000000000D-01 -9.0142800361223D-01 -1.0211072918285D+00
37  3.6000000000000D-01 -7.9514352066817D-01 -1.0252415479886D+00
38  3.7000000000000D-01 -6.8597149769163D-01 -1.0289921700161D+00
39  3.8000000000000D-01 -5.7460231645146D-01 -1.0324858006617D+00
40  3.9000000000000D-01 -4.6173144817482D-01 -1.0358452015741D+00
41  4.0000000000000D-01 -3.4805482621104D-01 -1.0391880851679D+00
42  4.1000000000000D-01 -2.3426413580215D-01 -1.0426259539496D+00
43  4.2000000000000D-01 -1.2104221392847D-01 -1.0462630039032D+00
44  4.3000000000000D-01 -9.0585603248768D-03 -1.0501950917989D+00
45  4.4000000000000D-01  1.0103501053275D-01 -1.0545087746102D+00
46  4.5000000000000D-01  2.0860854746927D-01 -1.0592804287928D+00
47  4.6000000000000D-01  3.1305794200840D-01 -1.0645754568183D+00
48  4.7000000000000D-01  4.1380868042992D-01 -1.0704475880136D+00
49  4.8000000000000D-01  5.1031928021660D-01 -1.0769382935299D+00
50  4.9000000000000D-01  6.0208457496515D-01 -1.0840762761071D+00
51  5.0000000000000D-01  6.8863886136302D-01 -1.0918770392310D+00
52  5.1000000000000D-01  7.6955823234973D-01 -1.1003426784933D+00
53  5.2000000000000D-01  8.4446267275872D-01 -1.1094617526740D+00
54  5.3000000000000D-01  9.1301897706633D-01 -1.1192090534092D+00
55  5.4000000000000D-01  9.7494124426533D-01 -1.1295458932456D+00
56  5.5000000000000D-01  1.0299928367838D+00 -1.1404201528227D+00
57  5.6000000000000D-01  1.0779871976530D+00 -1.1517666084572D+00
58  5.7000000000000D-01  1.1187880757151D+00 -1.1635073792408D+00
59  5.8000000000000D-01  1.1523102494975D+00 -1.1755523867732D+00
60  5.9000000000000D-01  1.1785188487895D+00 -1.1878000354150D+00
61  6.0000000000000D-01  1.1974290922845D+00 -1.2001379198433D+00
62  6.1000000000000D-01  1.2091055888226D+00 -1.2124436595112D+00
63  6.2000000000000D-01  1.2136604042713D+00 -1.2245858034432D+00
64  6.3000000000000D-01  1.2112526592345D+00 -1.2364249070742D+00
65  6.4000000000000D-01  1.2020857131190D+00 -1.2478145704967D+00
66  6.5000000000000D-01  1.1864053105542D+00 -1.2586025512561D+00
67  6.6000000000000D-01  1.1644974637642D+00 -1.2686322313403D+00
68  6.7000000000000D-01  1.1366853553941D+00 -1.2777437286118D+00
69  6.8000000000000D-01  1.1033266154258D+00 -1.2857752476758D+00
70  6.9000000000000D-01  1.0648101648314D+00 -1.2925646155081D+00
71  7.0000000000000D-01  1.0215527165723D+00 -1.2979508301651D+00
72  7.1000000000000D-01  9.7399536387191D-01 -1.3017753828847D+00
73  7.2000000000000D-01  9.2259987046730D-01 -1.3038838690631D+00
74  7.3000000000000D-01  8.6784495125390D-01 -1.3041274936436D+00
75  7.4000000000000D-01  8.1022220816934D-01 -1.3023647606568D+00
76  7.5000000000000D-01  7.5023177747020D-01 -1.2984632601264D+00
77  7.6000000000000D-01  6.8837869094063D-01 -1.2923010018556D+00
78  7.7000000000000D-01  6.2516855667208D-01 -1.2837681682958D+00
79  7.8000000000000D-01  5.6110337079079D-01 -1.2727687651931D+00
80  7.9000000000000D-01  4.9667732033187D-01 -1.2592222761668D+00
81  8.0000000000000D-01  4.3237259665276D-01 -1.2430653186416D+00
82  8.1000000000000D-01  3.6865523751193D-01 -1.2242532991343D+00
83  8.2000000000000D-01  3.0597101457840D-01 -1.2027620664734D+00
84  8.3000000000000D-01  2.4474138171520D-01 -1.1785895620824D+00
85  8.4000000000000D-01  1.8535949792114D-01 -1.1517574669851D+00
86  8.5000000000000D-01  1.2818633734642D-01 -1.1223128456758D+00
87  8.6000000000000D-01  7.3546897338104D-02 -1.0903297874441D+00
88  8.7000000000000D-01  2.1726514038671D-02 -1.0559110461352D+00
89  8.8000000000000D-01 -2.7032706334430D-02 -1.0191896796609D+00
90  8.9000000000000D-01 -7.2535333751115D-02 -9.8033069085451D-01
91  9.0000000000000D-01 -1.1463601590769D-01 -9.3953279688045D-01
92  9.1000000000000D-01 -1.5324287063149D-01 -8.9703033917869D-01
93  9.2000000000000D-01 -1.8831295952196D-01 -8.5308368936079D-01
94  9.3000000000000D-01 -2.1984198219134D-01 -8.0796275500369D-01
95  9.4000000000000D-01 -2.4785796492084D-01 -7.6193834032852D-01
96  9.5000000000000D-01 -2.7242001229817D-01 -7.1528183117127D-01
97  9.6000000000000D-01 -2.9361691441829D-01 -6.6826472931420D-01
98  9.7000000000000D-01 -3.1156510540898D-01 -6.2115838952773D-01
99  9.8000000000000D-01 -3.2640841832303D-01 -5.7423222966171D-01
100  9.9000000000000D-01 -3.3831475355261D-01 -5.2775366151422D-01
101  1.0000000000000D+00 -3.4747424910381D-01 -4.8198688994613D-01
102  1.0100000000000D+00 -3.5409695511524D-01 -4.3719153567970D-01
103  1.0200000000000D+00 -3.5841009918421D-01 -3.9362100400017D-01
104  1.0300000000000D+00 -3.6065516059149D-01 -3.5152110496332D-01
105  1.0400000000000D+00 -3.6108456395890D-01 -3.1112689454510D-01
106  1.0500000000000D+00 -3.5995647767568D-01 -2.7265848917758D-01
107  1.0600000000000D+00 -3.5753050546754D-01 -2.3631922039891D-01
108  1.0700000000000D+00 -3.5406231347552D-01 -2.0229090903104D-01
109  1.0800000000000D+00 -3.4979947375699D-01 -1.7073124384797D-01
110  1.0900000000000D+00 -3.4497307574642D-01 -1.4176581642417D-01
111  1.1000000000000D+00 -3.3978802578777D-01 -1.1548036134563D-01
112  1.1100000000000D+00 -3.3442041625887D-01 -9.1920382899142D-02
113  1.1200000000000D+00 -3.2901198137113D-01 -7.1086861042818D-02
114  1.1300000000000D+00 -3.2366504839288D-01 -5.2932506633554D-02
115  1.1400000000000D+00 -3.1842484658660D-01 -3.7347298637500D-02
116  1.1500000000000D+00 -3.1329245567969D-01 -2.4173220106181D-02
117  1.1600000000000D+00 -3.0822376430030D-01 -1.3204409448929D-02
118  1.1700000000000D+00 -3.0312309682254D-01 -4.1836423657767D-03
119  1.1800000000000D+00 -2.9784937912227D-01  3.1871418196307D-03
120  1.1900000000000D+00 -2.9223589131610D-01  9.2280409903071D-03
121  1.2000000000000D+00 -2.8609168264824D-01  1.4280364463276D-02
122  1.2100000000000D+00 -2.7921708528218D-01  1.8681213354546D-02
123  1.2200000000000D+00 -2.7142686591003D-01  2.2746869836350D-02
124  1.2300000000000D+00 -2.6254819691709D-01  2.6775375852870D-02
125  1.2400000000000D+00 -2.5245243844714D-01  3.1008254771807D-02
126  1.2500000000000D+00 -2.4106703241339D-01  3.5622906448302D-02
127  1.2600000000000D+00 -2.2835799238530D-01  4.0753966948789D-02
128  1.2700000000000D+00 -2.1436557045138D-01  4.6452946384288D-02
129  1.2800000000000D+00 -1.9919620023703D-01  5.2699925481833D-02
130  1.2900000000000D+00 -1.8299297498108D-01  5.9436826522480D-02
131  1.3000000000000D+00 -1.6596512277815D-01  6.6534332314755D-02
132  1.3100000000000D+00 -1.4835099306886D-01  7.3831970918694D-02
133  1.3200000000000D+00 -1.3041049775643D-01  8.1147789576406D-02
134  1.3300000000000D+00 -1.1241930693877D-01  8.8280314649543D-02
135  1.3400000000000D+00 -9.4640734844134D-02  9.5039281193253D-02
136  1.3500000000000D+00 -7.7343500033806D-02  1.0122924527969D-01
137  1.3600000000000D+00 -6.0746338369759D-02  1.0669853048140D-01
138  1.3700000000000D+00 -4.5058182225634D-02  1.1130515016888D-01
139  1.3800000000000D+00 -3.0450396383197D-02  1.1494082022938D-01
140  1.3900000000000D+00 -1.7042720645692D-02  1.1754231711361D-01
141  1.4000000000000D+00 -4.9493704740411D-03  1.1905240790576D-01
142  1.4100000000000D+00  5.7843340490462D-03  1.1947222217982D-01
143  1.4200000000000D+00  1.5120897468252D-02  1.1880938154565D-01
144  1.4300000000000D+00  2.3056708166248D-02  1.1709993537628D-01
145  1.4400000000000D+00  2.9618409566700D-02  1.1440213432061D-01
146  1.4500000000000D+00  3.4836781905713D-02  1.1077909024845D-01
147  1.4600000000000D+00  3.8775371158707D-02  1.0631482221671D-01
148  1.4700000000000D+00  4.1495887705075D-02  1.0109258973791D-01
149  1.4800000000000D+00  4.3075432017693D-02  9.5203550978799D-02
150  1.4900000000000D+00  4.3592466420493D-02  8.8737118680394D-02
151  1.5000000000000D+00  4.3131196397608D-02  8.1785753714650D-02
152  1.5100000000000D+00  4.1772778293024D-02  7.4432946640682D-02
153  1.5200000000000D+00  3.9603598038267D-02  6.6768019581186D-02
154  1.5300000000000D+00  3.6699823941967D-02  5.8863169748822D-02
155  1.5400000000000D+00  3.3143008456525D-02  5.0797110259165D-02
156  1.5500000000000D+00  2.9003251362850D-02  4.2632151167936D-02
157  1.5600000000000D+00  2.4352400151690D-02  3.4432192015879D-02
158  1.5700000000000D+00  1.9253589829000D-02  2.6249444960692D-02
159  1.5800000000000D+00  1.3767106756912D-02  1.8132223870934D-02
160  1.5900000000000D+00  7.3837786013132D-03  9.4636451480543D-03
161  1.6000000000000D+00  1.3501059982054D-03  1.6745026731593D-03
162  1.6100000000000D+00 -7.9170995754229D-04 -1.0512345325778D-03
163  1.6200000000000D+00 -2.4052153731619D-04 -3.1649892052865D-04
164  1.6300000000000D+00  3.5689916928694D-06  6.7293914258076D-06
165  1.6400000000000D+00  8.3051845493939D-07  1.5659559479531D-06
166  1.6500000000000D+00  0.0000000000000D+00  0.0000000000000D+00
167  1.6600000000000D+00  0.0000000000000D+00  0.0000000000000D+00
168  1.6700000000000D+00  0.0000000000000D+00  0.0000000000000D+00
169  1.6800000000000D+00  0.0000000000000D+00  0.0000000000000D+00
170  1.6900000000000D+00  0.0000000000000D+00  0.0000000000000D+00
171  1.7000000000000D+00  0.0000000000000D+00  0.0000000000000D+00
172  1.7100000000000D+00  0.0000000000000D+00  0.0000000000000D+00
173  1.7200000000000D+00  0.0000000000000D+00  0.0000000000000D+00
174  1.7300000000000D+00  0.0000000000000D+00  0.0000000000000D+00
175  1.7400000000000D+00  0.0000000000000D+00  0.0000000000000D+00
176  1.7500000000000D+00  0.0000000000000D+00  0.0000000000000D+00
177  1.7600000000000D+00  0.0000000000000D+00  0.0000000000000D+00
178  1.7700000000000D+00  0.0000000000000D+00  0.0000000000000D+00
179  1.7800000000000D+00  0.0000000000000D+00  0.0000000000000D+00
180  1.7900000000000D+00  0.0000000000000D+00  0.0000000000000D+00
181  1.8000000000000D+00  0.0000000000000D+00  0.0000000000000D+00
182  1.8100000000000D+00  0.0000000000000D+00  0.0000000000000D+00
183  1.8200000000000D+00  0.0000000000000D+00  0.0000000000000D+00
184  1.8300000000000D+00  0.0000000000000D+00  0.0000000000000D+00
185  1.8400000000000D+00  0.0000000000000D+00  0.0000000000000D+00
186  1.8500000000000D+00  0.0000000000000D+00  0.0000000000000D+00
187  1.8600000000000D+00  0.0000000000000D+00  0.0000000000000D+00
188  1.8700000000000D+00  0.0000000000000D+00  0.0000000000000D+00
189  1.8800000000000D+00  0.0000000000000D+00  0.0000000000000D+00
190  1.8900000000000D+00  0.0000000000000D+00  0.0000000000000D+00
191  1.9000000000000D+00  0.0000000000000D+00  0.0000000000000D+00
192  1.9100000000000D+00  0.0000000000000D+00  0.0000000000000D+00
193  1.9200000000000D+00  0.0000000000000D+00  0.0000000000000D+00
194  1.9300000000000D+00  0.0000000000000D+00  0.0000000000000D+00
195  1.9400000000000D+00  0.0000000000000D+00  0.0000000000000D+00
196  1.9500000000000D+00  0.0000000000000D+00  0.0000000000000D+00
197  1.9600000000000D+00  0.0000000000000D+00  0.0000000000000D+00
198  1.9700000000000D+00  0.0000000000000D+00  0.0000000000000D+00
199  1.9800000000000D+00  0.0000000000000D+00  0.0000000000000D+00
200  1.9900000000000D+00  0.0000000000000D+00  0.0000000000000D+00
201  2.0000000000000D+00  0.0000000000000D+00  0.0000000000000D+00
202  2.0100000000000D+00  0.0000000000000D+00  0.0000000000000D+00
203  2.0200000000000D+00  0.0000000000000D+00  0.0000000000000D+00
204  2.0300000000000D+00  0.0000000000000D+00  0.0000000000000D+00
205  2.0400000000000D+00  0.0000000000000D+00  0.0000000000000D+00
206  2.0500000000000D+00  0.0000000000000D+00  0.0000000000000D+00
207  2.0600000000000D+00  0.0000000000000D+00  0.0000000000000D+00
208  2.0700000000000D+00  0.0000000000000D+00  0.0000000000000D+00
209  2.0800000000000D+00  0.0000000000000D+00  0.0000000000000D+00
210  2.0900000000000D+00  0.0000000000000D+00  0.0000000000000D+00
211  2.1000000000000D+00  0.0000000000000D+00  0.0000000000000D+00
212  2.1100000000000D+00  0.0000000000000D+00  0.0000000000000D+00
213  2.1200000000000D+00  0.0000000000000D+00  0.0000000000000D+00
214  2.1300000000000D+00  0.0000000000000D+00  0.0000000000000D+00
215  2.1400000000000D+00  0.0000000000000D+00  0.0000000000000D+00
216  2.1500000000000D+00  0.0000000000000D+00  0.0000000000000D+00
217  2.1600000000000D+00  0.0000000000000D+00  0.0000000000000D+00
218  2.1700000000000D+00  0.0000000000000D+00  0.0000000000000D+00
219  2.1800000000000D+00  0.0000000000000D+00  0.0000000000000D+00
220  2.1900000000000D+00  0.0000000000000D+00  0.0000000000000D+00
221  2.2000000000000D+00  0.0000000000000D+00  0.0000000000000D+00
222  2.2100000000000D+00  0.0000000000000D+00  0.0000000000000D+00
223  2.2200000000000D+00  0.0000000000000D+00  0.0000000000000D+00
224  2.2300000000000D+00  0.0000000000000D+00  0.0000000000000D+00
225  2.2400000000000D+00  0.0000000000000D+00  0.0000000000000D+00
226  2.2500000000000D+00  0.0000000000000D+00  0.0000000000000D+00
227  2.2600000000000D+00  0.0000000000000D+00  0.0000000000000D+00
228  2.2700000000000D+00  0.0000000000000D+00  0.0000000000000D+00
229  2.2800000000000D+00  0.0000000000000D+00  0.0000000000000D+00
230  2.2900000000000D+00  0.0000000000000D+00  0.0000000000000D+00
231  2.3000000000000D+00  0.0000000000000D+00  0.0000000000000D+00
232  2.3100000000000D+00  0.0000000000000D+00  0.0000000000000D+00
233  2.3200000000000D+00  0.0000000000000D+00  0.0000000000000D+00
234  2.3300000000000D+00  0.0000000000000D+00  0.0000000000000D+00
235  2.3400000000000D+00  0.0000000000000D+00  0.0000000000000D+00
236  2.3500000000000D+00  0.0000000000000D+00  0.0000000000000D+00
237  2.3600000000000D+00  0.0000000000000D+00  0.0000000000000D+00
238  2.3700000000000D+00  0.0000000000000D+00  0.0000000000000D+00
239  2.3800000000000D+00  0.0000000000000D+00  0.0000000000000D+00
240  2.3900000000000D+00  0.0000000000000D+00  0.0000000000000D+00
241  2.4000000000000D+00  0.0000000000000D+00  0.0000000000000D+00
242  2.4100000000000D+00  0.0000000000000D+00  0.0000000000000D+00
243  2.4200000000000D+00  0.0000000000000D+00  0.0000000000000D+00
244  2.4300000000000D+00  0.0000000000000D+00  0.0000000000000D+00
245  2.4400000000000D+00  0.0000000000000D+00  0.0000000000000D+00
246  2.4500000000000D+00  0.0000000000000D+00  0.0000000000000D+00
247  2.4600000000000D+00  0.0000000000000D+00  0.0000000000000D+00
248  2.4700000000000D+00  0.0000000000000D+00  0.0000000000000D+00
249  2.4800000000000D+00  0.0000000000000D+00  0.0000000000000D+00
250  2.4900000000000D+00  0.0000000000000D+00  0.0000000000000D+00
251  2.5000000000000D+00  0.0000000000000D+00  0.0000000000000D+00
252  2.5100000000000D+00  0.0000000000000D+00  0.0000000000000D+00
253  2.5200000000000D+00  0.0000000000000D+00  0.0000000000000D+00
254  2.5300000000000D+00  0.0000000000000D+00  0.0000000000000D+00
255  2.5400000000000D+00  0.0000000000000D+00  0.0000000000000D+00
256  2.5500000000000D+00  0.0000000000000D+00  0.0000000000000D+00
257  2.5600000000000D+00  0.0000000000000D+00  0.0000000000000D+00
258  2.5700000000000D+00  0.0000000000000D+00  0.0000000000000D+00
259  2.5800000000000D+00  0.0000000000000D+00  0.0000000000000D+00
260  2.5900000000000D+00  0.0000000000000D+00  0.0000000000000D+00
261  2.6000000000000D+00  0.0000000000000D+00  0.0000000000000D+00
262  2.6100000000000D+00  0.0000000000000D+00  0.0000000000000D+00
263  2.6200000000000D+00  0.0000000000000D+00  0.0000000000000D+00
264  2.6300000000000D+00  0.0000000000000D+00  0.0000000000000D+00
265  2.6400000000000D+00  0.0000000000000D+00  0.0000000000000D+00
266  2.6500000000000D+00  0.0000000000000D+00  0.0000000000000D+00
267  2.6600000000000D+00  0.0000000000000D+00  0.0000000000000D+00
268  2.6700000000000D+00  0.0000000000000D+00  0.0000000000000D+00
269  2.6800000000000D+00  0.0000000000000D+00  0.0000000000000D+00
270  2.6900000000000D+00  0.0000000000000D+00  0.0000000000000D+00
271  2.7000000000000D+00  0.0000000000000D+00  0.0000000000000D+00
272  2.7100000000000D+00  0.0000000000000D+00  0.0000000000000D+00
273  2.7200000000000D+00  0.0000000000000D+00  0.0000000000000D+00
274  2.7300000000000D+00  0.0000000000000D+00  0.0000000000000D+00
275  2.7400000000000D+00  0.0000000000000D+00  0.0000000000000D+00
276  2.7500000000000D+00  0.0000000000000D+00  0.0000000000000D+00
277  2.7600000000000D+00  0.0000000000000D+00  0.0000000000000D+00
278  2.7700000000000D+00  0.0000000000000D+00  0.0000000000000D+00
279  2.7800000000000D+00  0.0000000000000D+00  0.0000000000000D+00
280  2.7900000000000D+00  0.0000000000000D+00  0.0000000000000D+00
281  2.8000000000000D+00  0.0000000000000D+00  0.0000000000000D+00
282  2.8100000000000D+00  0.0000000000000D+00  0.0000000000000D+00
283  2.8200000000000D+00  0.0000000000000D+00  0.0000000000000D+00
284  2.8300000000000D+00  0.0000000000000D+00  0.0000000000000D+00
285  2.8400000000000D+00  0.0000000000000D+00  0.0000000000000D+00
286  2.8500000000000D+00  0.0000000000000D+00  0.0000000000000D+00
287  2.8600000000000D+00  0.0000000000000D+00  0.0000000000000D+00
288  2.8700000000000D+00  0.0000000000000D+00  0.0000000000000D+00
289  2.8800000000000D+00  0.0000000000000D+00  0.0000000000000D+00
290  2.8900000000000D+00  0.0000000000000D+00  0.0000000000000D+00
291  2.9000000000000D+00  0.0000000000000D+00  0.0000000000000D+00
292  2.9100000000000D+00  0.0000000000000D+00  0.0000000000000D+00
293  2.9200000000000D+00  0.0000000000000D+00  0.0000000000000D+00
294  2.9300000000000D+00  0.0000000000000D+00  0.0000000000000D+00
295  2.9400000000000D+00  0.0000000000000D+00  0.0000000000000D+00
296  2.9500000000000D+00  0.0000000000000D+00  0.0000000000000D+00
297  2.9600000000000D+00  0.0000000000000D+00  0.0000000000000D+00
298  2.9700000000000D+00  0.0000000000000D+00  0.0000000000000D+00
299  2.9800000000000D+00  0.0000000000000D+00  0.0000000000000D+00
300  2.9900000000000D+00  0.0000000000000D+00  0.0000000000000D+00
301  3.0000000000000D+00  0.0000000000000D+00  0.0000000000000D+00
302  3.0100000000000D+00  0.0000000000000D+00  0.0000000000000D+00
303  3.0200000000000D+00  0.0000000000000D+00  0.0000000000000D+00
304  3.0300000000000D+00  0.0000000000000D+00  0.0000000000000D+00
305  3.0400000000000D+00  0.0000000000000D+00  0.0000000000000D+00
306  3.0500000000000D+00  0.0000000000000D+00  0.0000000000000D+00
307  3.0600000000000D+00  0.0000000000000D+00  0.0000000000000D+00
308  3.0700000000000D+00  0.0000000000000D+00  0.0000000000000D+00
309  3.0800000000000D+00  0.0000000000000D+00  0.0000000000000D+00
310  3.0900000000000D+00  0.0000000000000D+00  0.0000000000000D+00
311  3.1000000000000D+00  0.0000000000000D+00  0.0000000000000D+00
312  3.1100000000000D+00  0.0000000000000D+00  0.0000000000000D+00
313  3.1200000000000D+00  0.0000000000000D+00  0.0000000000000D+00
314  3.1300000000000D+00  0.0000000000000D+00  0.0000000000000D+00
315  3.1400000000000D+00  0.0000000000000D+00  0.0000000000000D+00
316  3.1500000000000D+00  0.0000000000000D+00  0.0000000000000D+00
317  3.1600000000000D+00  0.0000000000000D+00  0.0000000000000D+00
318  3.1700000000000D+00  0.0000000000000D+00  0.0000000000000D+00
319  3.1800000000000D+00  0.0000000000000D+00  0.0000000000000D+00
320  3.1900000000000D+00  0.0000000000000D+00  0.0000000000000D+00
321  3.2000000000000D+00  0.0000000000000D+00  0.0000000000000D+00
322  3.2100000000000D+00  0.0000000000000D+00  0.0000000000000D+00
323  3.2200000000000D+00  0.0000000000000D+00  0.0000000000000D+00
324  3.2300000000000D+00  0.0000000000000D+00  0.0000000000000D+00
325  3.2400000000000D+00  0.0000000000000D+00  0.0000000000000D+00
326  3.2500000000000D+00  0.0000000000000D+00  0.0000000000000D+00
327  3.2600000000000D+00  0.0000000000000D+00  0.0000000000000D+00
328  3.2700000000000D+00  0.0000000000000D+00  0.0000000000000D+00
329  3.2800000000000D+00  0.0000000000000D+00  0.0000000000000D+00
330  3.2900000000000D+00  0.0000000000000D+00  0.0000000000000D+00
331  3.3000000000000D+00  0.0000000000000D+00  0.0000000000000D+00
332  3.3100000000000D+00  0.0000000000000D+00  0.0000000000000D+00
333  3.3200000000000D+00  0.0000000000000D+00  0.0000000000000D+00
334  3.3300000000000D+00  0.0000000000000D+00  0.0000000000000D+00
335  3.3400000000000D+00  0.0000000000000D+00  0.0000000000000D+00
336  3.3500000000000D+00  0.0000000000000D+00  0.0000000000000D+00
337  3.3600000000000D+00  0.0000000000000D+00  0.0000000000000D+00
338  3.3700000000000D+00  0.0000000000000D+00  0.0000000000000D+00
339  3.3800000000000D+00  0.0000000000000D+00  0.0000000000000D+00
340  3.3900000000000D+00  0.0000000000000D+00  0.0000000000000D+00
341  3.4000000000000D+00  0.0000000000000D+00  0.0000000000000D+00
342  3.4100000000000D+00  0.0000000000000D+00  0.0000000000000D+00
343  3.4200000000000D+00  0.0000000000000D+00  0.0000000000000D+00
344  3.4300000000000D+00  0.0000000000000D+00  0.0000000000000D+00
345  3.4400000000000D+00  0.0000000000000D+00  0.0000000000000D+00
346  3.4500000000000D+00  0.0000000000000D+00  0.0000000000000D+00
347  3.4600000000000D+00  0.0000000000000D+00  0.0000000000000D+00
348  3.4700000000000D+00  0.0000000000000D+00  0.0000000000000D+00
349  3.4800000000000D+00  0.0000000000000D+00  0.0000000000000D+00
350  3.4900000000000D+00  0.0000000000000D+00  0.0000000000000D+00
351  3.5000000000000D+00  0.0000000000000D+00  0.0000000000000D+00
352  3.5100000000000D+00  0.0000000000000D+00  0.0000000000000D+00
353  3.5200000000000D+00  0.0000000000000D+00  0.0000000000000D+00
354  3.5300000000000D+00  0.0000000000000D+00  0.0000000000000D+00
355  3.5400000000000D+00  0.0000000000000D+00  0.0000000000000D+00
356  3.5500000000000D+00  0.0000000000000D+00  0.0000000000000D+00
357  3.5600000000000D+00  0.0000000000000D+00  0.0000000000000D+00
358  3.5700000000000D+00  0.0000000000000D+00  0.0000000000000D+00
359  3.5800000000000D+00  0.0000000000000D+00  0.0000000000000D+00
360  3.5900000000000D+00  0.0000000000000D+00  0.0000000000000D+00
361  3.6000000000000D+00  0.0000000000000D+00  0.0000000000000D+00
362  3.6100000000000D+00  0.0000000000000D+00  0.0000000000000D+00
363  3.6200000000000D+00  0.0000000000000D+00  0.0000000000000D+00
364  3.6300000000000D+00  0.0000000000000D+00  0.0000000000000D+00
365  3.6400000000000D+00  0.0000000000000D+00  0.0000000000000D+00
366  3.6500000000000D+00  0.0000000000000D+00  0.0000000000000D+00
367  3.6600000000000D+00  0.0000000000000D+00  0.0000000000000D+00
368  3.6700000000000D+00  0.0000000000000D+00  0.0000000000000D+00
369  3.6800000000000D+00  0.0000000000000D+00  0.0000000000000D+00
370  3.6900000000000D+00  0.0000000000000D+00  0.0000000000000D+00
371  3.7000000000000D+00  0.0000000000000D+00  0.0000000000000D+00
372  3.7100000000000D+00  0.0000000000000D+00  0.0000000000000D+00
373  3.7200000000000D+00  0.0000000000000D+00  0.0000000000000D+00
374  3.7300000000000D+00  0.0000000000000D+00  0.0000000000000D+00
375  3.7400000000000D+00  0.0000000000000D+00  0.0000000000000D+00
376  3.7500000000000D+00  0.0000000000000D+00  0.0000000000000D+00
377  3.7600000000000D+00  0.0000000000000D+00  0.0000000000000D+00
378  3.7700000000000D+00  0.0000000000000D+00  0.0000000000000D+00
379  3.7800000000000D+00  0.0000000000000D+00  0.0000000000000D+00
380  3.7900000000000D+00  0.0000000000000D+00  0.0000000000000D+00
381  3.8000000000000D+00  0.0000000000000D+00  0.0000000000000D+00
382  3.8100000000000D+00  0.0000000000000D+00  0.0000000000000D+00
383  3.8200000000000D+00  0.0000000000000D+00  0.0000000000000D+00
384  3.8300000000000D+00  0.0000000000000D+00  0.0000000000000D+00
385  3.8400000000000D+00  0.0000000000000D+00  0.0000000000000D+00
386  3.8500000000000D+00  0.0000000000000D+00  0.0000000000000D+00
387  3.8600000000000D+00  0.0000000000000D+00  0.0000000000000D+00
388  3.8700000000000D+00  0.0000000000000D+00  0.0000000000000D+00
389  3.8800000000000D+00  0.0000000000000D+00  0.0000000000000D+00
390  3.8900000000000D+00  0.0000000000000D+00  0.0000000000000D+00
391  3.9000000000000D+00  0.0000000000000D+00  0.0000000000000D+00
392  3.9100000000000D+00  0.0000000000000D+00  0.0000000000000D+00
393  3.9200000000000D+00  0.0000000000000D+00  0.0000000000000D+00
394  3.9300000000000D+00  0.0000000000000D+00  0.0000000000000D+00
395  3.9400000000000D+00  0.0000000000000D+00  0.0000000000000D+00
396  3.9500000000000D+00  0.0000000000000D+00  0.0000000000000D+00
397  3.9600000000000D+00  0.0000000000000D+00  0.0000000000000D+00
398  3.9700000000000D+00  0.0000000000000D+00  0.0000000000000D+00
399  3.9800000000000D+00  0.0000000000000D+00  0.0000000000000D+00
400  3.9900000000000D+00  0.0000000000000D+00  0.0000000000000D+00
401  4.0000000000000D+00  0.0000000000000D+00  0.0000000000000D+00
402  4.0100000000000D+00  0.0000000000000D+00  0.0000000000000D+00
403  4.0200000000000D+00  0.0000000000000D+00  0.0000000000000D+00
404  4.0300000000000D+00  0.0000000000000D+00  0.0000000000000D+00
405  4.0400000000000D+00  0.0000000000000D+00  0.0000000000000D+00
406  4.0500000000000D+00  0.0000000000000D+00  0.0000000000000D+00
407  4.0600000000000D+00  0.0000000000000D+00  0.0000000000000D+00
408  4.0700000000000D+00  0.0000000000000D+00  0.0000000000000D+00
409  4.0800000000000D+00  0.0000000000000D+00  0.0000000000000D+00
410  4.0900000000000D+00  0.0000000000000D+00  0.0000000000000D+00
411  4.1000000000000D+00  0.0000000000000D+00  0.0000000000000D+00
412  4.1100000000000D+00  0.0000000000000D+00  0.0000000000000D+00
413  4.1200000000000D+00  0.0000000000000D+00  0.0000000000000D+00
414  4.1300000000000D+00  0.0000000000000D+00  0.0000000000000D+00
415  4.1400000000000D+00  0.0000000000000D+00  0.0000000000000D+00
416  4.1500000000000D+00  0.0000000000000D+00  0.0000000000000D+00
417  4.1600000000000D+00  0.0000000000000D+00  0.0000000000000D+00
418  4.1700000000000D+00  0.0000000000000D+00  0.0000000000000D+00
419  4.1800000000000D+00  0.0000000000000D+00  0.0000000000000D+00
420  4.1900000000000D+00  0.0000000000000D+00  0.0000000000000D+00
421  4.2000000000000D+00  0.0000000000000D+00  0.0000000000000D+00
422  4.2100000000000D+00  0.0000000000000D+00  0.0000000000000D+00
423  4.2200000000000D+00  0.0000000000000D+00  0.0000000000000D+00
424  4.2300000000000D+00  0.0000000000000D+00  0.0000000000000D+00
425  4.2400000000000D+00  0.0000000000000D+00  0.0000000000000D+00
426  4.2500000000000D+00  0.0000000000000D+00  0.0000000000000D+00
427  4.2600000000000D+00  0.0000000000000D+00  0.0000000000000D+00
428  4.2700000000000D+00  0.0000000000000D+00  0.0000000000000D+00
429  4.2800000000000D+00  0.0000000000000D+00  0.0000000000000D+00
430  4.2900000000000D+00  0.0000000000000D+00  0.0000000000000D+00
431  4.3000000000000D+00  0.0000000000000D+00  0.0000000000000D+00
432  4.3100000000000D+00  0.0000000000000D+00  0.0000000000000D+00
433  4.3200000000000D+00  0.0000000000000D+00  0.0000000000000D+00
434  4.3300000000000D+00  0.0000000000000D+00  0.0000000000000D+00
435  4.3400000000000D+00  0.0000000000000D+00  0.0000000000000D+00
436  4.3500000000000D+00  0.0000000000000D+00  0.0000000000000D+00
437  4.3600000000000D+00  0.0000000000000D+00  0.0000000000000D+00
438  4.3700000000000D+00  0.0000000000000D+00  0.0000000000000D+00
439  4.3800000000000D+00  0.0000000000000D+00  0.0000000000000D+00
440  4.3900000000000D+00  0.0000000000000D+00  0.0000000000000D+00
441  4.4000000000000D+00  0.0000000000000D+00  0.0000000000000D+00
442  4.4100000000000D+00  0.0000000000000D+00  0.0000000000000D+00
443  4.4200000000000D+00  0.0000000000000D+00  0.0000000000000D+00
444  4.4300000000000D+00  0.0000000000000D+00  0.0000000000000D+00