Mg    ONCVPSP-3.3.0  r_core=   1.16056   1.56380
12.0000     10.0000      180112    zatom,zion,pspd
8 -116133   1     4   400     0    pspcod,pspxc,lmax,lloc,mmax,r2well
3.99000000  0.00000000  0.00000000    rchrg fchrg qchrg
2     2     0     0     0    nproj
1     1           extension_switch
0                         2.2306034758651D+00 -8.2658734782100D-01
1  0.0000000000000D+00 -2.1627790336431D-08 -8.7765744671842D-10
2  1.0000000000000D-02  1.2307313560415D-01  3.2163197921529D-02
3  2.0000000000000D-02  2.4525459193462D-01  6.4335130812464D-02
4  3.0000000000000D-02  3.6566527424057D-01  9.6524572382683D-02
5  4.0000000000000D-02  4.8345100060850D-01  1.2874036606576D-01
6  5.0000000000000D-02  5.9779432358511D-01  1.6099144072119D-01
7  6.0000000000000D-02  7.0792560594651D-01  1.9328680399316D-01
8  7.0000000000000D-02  8.1313312811384D-01  2.2563550694123D-01
9  8.0000000000000D-02  9.1277202634334D-01  2.5804657443591D-01
10  9.0000000000000D-02  1.0062718869248D+00  2.9052889686818D-01
11  1.0000000000000D-01  1.0931428516177D+00  3.2309107993039D-01
12  1.1000000000000D-01  1.1729801227618D+00  3.5574125055667D-01
13  1.2000000000000D-01  1.2454667921712D+00  3.8848681853140D-01
14  1.3000000000000D-01  1.3103749552479D+00  4.2133419474855D-01
15  1.4000000000000D-01  1.3675651098928D+00  4.5428846859600D-01
16  1.5000000000000D-01  1.4169838778839D+00  4.8735304840982D-01
17  1.6000000000000D-01  1.4586601235679D+00  5.2052927035549D-01
18  1.7000000000000D-01  1.4926995801363D+00  5.5381598241083D-01
19  1.8000000000000D-01  1.5192781266120D+00  5.8720911131318D-01
20  1.9000000000000D-01  1.5386338882249D+00  6.2070122135981D-01
21  2.0000000000000D-01  1.5510583584172D+00  6.5428107478683D-01
22  2.1000000000000D-01  1.5568867617124D+00  6.8793320407382D-01
23  2.2000000000000D-01  1.5564878926199D+00  7.2163750690913D-01
24  2.3000000000000D-01  1.5502536762630D+00  7.5536887469040D-01
25  2.4000000000000D-01  1.5385887012582D+00  7.8909686531694D-01
26  2.5000000000000D-01  1.5218999744274D+00  8.2278543065253D-01
27  2.6000000000000D-01  1.5005871401964D+00  8.5639270840296D-01
28  2.7000000000000D-01  1.4750333951673D+00  8.8987088726904D-01
29  2.8000000000000D-01  1.4455973106270D+00  9.2316615312096D-01
30  2.9000000000000D-01  1.4126057530553D+00  9.5621872261100D-01
31  3.0000000000000D-01  1.3763480655396D+00  9.8896296912698D-01
32  3.1000000000000D-01  1.3370716419993D+00  1.0213276443170D+00
33  3.2000000000000D-01  1.2949789919754D+00  1.0532361966221D+00
34  3.3000000000000D-01  1.2502263572283D+00  1.0846071863741D+00
35  3.4000000000000D-01  1.2029239033388D+00  1.1153547950933D+00
36  3.5000000000000D-01  1.1531374708077D+00  1.1453894246912D+00
37  3.6000000000000D-01  1.1008918316786D+00  1.1746183803982D+00
38  3.7000000000000D-01  1.0461753603687D+00  1.2029466294243D+00
39  3.8000000000000D-01  9.8894599204569D-01  1.2302776256786D+00
40  3.9000000000000D-01  9.2913830937276D-01  1.2565141893447D+00
41  4.0000000000000D-01  8.6667156951960D-01  1.2815594287782D+00
42  4.1000000000000D-01  8.0145845870188D-01  1.3053176910908D+00
43  4.2000000000000D-01  7.3341434176219D-01  1.3276955269358D+00
44  4.3000000000000D-01  6.6246675992877D-01  1.3486026544371D+00
45  4.4000000000000D-01  5.8856492125631D-01  1.3679529069264D+00
46  4.5000000000000D-01  5.1168892560689D-01  1.3856651491748D+00
47  4.6000000000000D-01  4.3185846947173D-01  1.4016641471367D+00
48  4.7000000000000D-01  3.4914078543635D-01  1.4158813768578D+00
49  4.8000000000000D-01  2.6365758647787D-01  1.4282557591252D+00
50  4.9000000000000D-01  1.7559080624795D-01  1.4387343076465D+00
51  5.0000000000000D-01  8.5186952606979D-02  1.4472726800032D+00
52  5.1000000000000D-01 -7.2400776476722D-03  1.4538356223174D+00
53  5.2000000000000D-01 -1.0130784029698D-01  1.4583973004530D+00
54  5.3000000000000D-01 -1.9656592113135D-01  1.4609415126169D+00
55  5.4000000000000D-01 -2.9249828891767D-01  1.4614617803853D+00
56  5.5000000000000D-01 -3.8852742199390D-01  1.4599613174098D+00
57  5.6000000000000D-01 -4.8402016462321D-01  1.4564528773189D+00
58  5.7000000000000D-01 -5.7829522777030D-01  1.4509584845658D+00
59  5.8000000000000D-01 -6.7063220883783D-01  1.4435090541468D+00
60  5.9000000000000D-01 -7.6028196729615D-01  1.4341439081682D+00
61  6.0000000000000D-01 -8.4647815858946D-01  1.4229101991493D+00
62  6.1000000000000D-01 -9.2844969840958D-01  1.4098622516447D+00
63  6.2000000000000D-01 -1.0054339037860D+00  1.3950608352517D+00
64  6.3000000000000D-01 -1.0766900373083D+00  1.3785723832694D+00
65  6.4000000000000D-01 -1.1415129666034D+00  1.3604681721969D+00
66  6.5000000000000D-01 -1.1992466432755D+00  1.3408234778651D+00
67  6.6000000000000D-01 -1.2492971042450D+00  1.3197167242789D+00
68  6.7000000000000D-01 -1.2911447037309D+00  1.2972286411993D+00
69  6.8000000000000D-01 -1.3243552961328D+00  1.2734414461190D+00
70  6.9000000000000D-01 -1.3485901084708D+00  1.2484380655827D+00
71  7.0000000000000D-01 -1.3636140653978D+00  1.2223014098021D+00
72  7.1000000000000D-01 -1.3693023599273D+00  1.1951137132182D+00
73  7.2000000000000D-01 -1.3656450979652D+00  1.1669559521139D+00
74  7.3000000000000D-01 -1.3527498839192D+00  1.1379073486047D+00
75  7.4000000000000D-01 -1.3308422573554D+00  1.1080449683678D+00
76  7.5000000000000D-01 -1.3002639355289D+00  1.0774434173705D+00
77  7.6000000000000D-01 -1.2614688634260D+00  1.0461746406404D+00
78  7.7000000000000D-01 -1.2150171198120D+00  1.0143078238663D+00
79  7.8000000000000D-01 -1.1615667742647D+00  9.8190939635842D-01
80  7.9000000000000D-01 -1.1018638349995D+00  9.4904313167520D-01
81  8.0000000000000D-01 -1.0367304694944D+00  9.1577034010754D-01
82  8.1000000000000D-01 -9.6705171853437D-01  8.8215014522573D-01
83  8.2000000000000D-01 -8.9376095844646D-01  8.4823983489717D-01
84  8.3000000000000D-01 -8.1782439517560D-01  8.1409527560450D-01
85  8.4000000000000D-01 -7.4022489679019D-01  7.7977137757207D-01
86  8.5000000000000D-01 -6.6194548744553D-01  7.4532259716967D-01
87  8.6000000000000D-01 -5.8395283535845D-01  7.1080346232969D-01
88  8.7000000000000D-01 -5.0718106969953D-01  6.7626910630100D-01
89  8.8000000000000D-01 -4.3251625638300D-01  6.4177579497933D-01
90  8.9000000000000D-01 -3.6078185058735D-01  6.0738143329893D-01
91  9.0000000000000D-01 -2.9272542468975D-01  5.7314603673821D-01
92  9.1000000000000D-01 -2.2900694451892D-01  5.3913215486880D-01
93  9.2000000000000D-01 -1.7018883495023D-01  5.0540523504122D-01
94  9.3000000000000D-01 -1.1672803854452D-01  4.7203391572594D-01
95  9.4000000000000D-01 -6.8970228958328D-02  4.3909024068070D-01
96  9.5000000000000D-01 -2.7146295121376D-02  4.0664978695694D-01
97  9.6000000000000D-01  8.6288363285185D-03  3.7479170174741D-01
98  9.7000000000000D-01  3.8355023054638D-02  3.4359864516569D-01
99  9.8000000000000D-01  6.2143407167958D-02  3.1315663819819D-01
100  9.9000000000000D-01  8.0210677642667D-02  2.8355481722099D-01
101  1.0000000000000D+00  9.2871227043875D-02  2.5488509853877D-01
102  1.0100000000000D+00  1.0052738235188D-01  2.2724175848615D-01
103  1.0200000000000D+00  1.0365793074340D-01  2.0072093644516D-01
104  1.0300000000000D+00  1.0280519957016D-01  1.7542006985048D-01
105  1.0400000000000D+00  9.8560982011755D-02  1.5143727172146D-01
106  1.0500000000000D+00  9.1551626183683D-02  1.2887066249302D-01
107  1.0600000000000D+00  8.2422623909373D-02  1.0781766880523D-01
108  1.0700000000000D+00  7.1823051225499D-02  8.8374303127918D-02
109  1.0800000000000D+00  6.0390200071374D-02  7.0634434551822D-02
110  1.0900000000000D+00  4.8734810824559D-02  5.4689077977843D-02
111  1.1000000000000D+00  3.7426930187916D-02  4.0625643632048D-02
112  1.1100000000000D+00  2.6984075963267D-02  2.8527476881161D-02
113  1.1200000000000D+00  1.7856552528809D-02  1.8472561453651D-02
114  1.1300000000000D+00  1.0413892490608D-02  1.0533888197754D-02
115  1.1400000000000D+00  4.8819598702502D-03  4.7345382107570D-03
116  1.1500000000000D+00  1.6024277503490D-03  1.2712131292517D-03
117  1.1600000000000D+00  3.6011727868224D-04 -2.7464452636575D-05
118  1.1700000000000D+00  3.1899532856165D-05 -9.0327719600134D-05
119  1.1800000000000D+00 -3.3427113653268D-06  3.8889105435881D-05
120  1.1900000000000D+00  8.8151448647896D-07 -2.6605980440932D-06
121  1.2000000000000D+00  9.6304388579221D-07 -4.0880764446404D-06
122  1.2100000000000D+00 -9.2814248351700D-07  1.5165199197778D-07
123  1.2200000000000D+00  0.0000000000000D+00  0.0000000000000D+00
124  1.2300000000000D+00  0.0000000000000D+00  0.0000000000000D+00
125  1.2400000000000D+00  0.0000000000000D+00  0.0000000000000D+00
126  1.2500000000000D+00  0.0000000000000D+00  0.0000000000000D+00
127  1.2600000000000D+00  0.0000000000000D+00  0.0000000000000D+00
128  1.2700000000000D+00  0.0000000000000D+00  0.0000000000000D+00
129  1.2800000000000D+00  0.0000000000000D+00  0.0000000000000D+00
130  1.2900000000000D+00  0.0000000000000D+00  0.0000000000000D+00
131  1.3000000000000D+00  0.0000000000000D+00  0.0000000000000D+00
132  1.3100000000000D+00  0.0000000000000D+00  0.0000000000000D+00
133  1.3200000000000D+00  0.0000000000000D+00  0.0000000000000D+00
134  1.3300000000000D+00  0.0000000000000D+00  0.0000000000000D+00
135  1.3400000000000D+00  0.0000000000000D+00  0.0000000000000D+00
136  1.3500000000000D+00  0.0000000000000D+00  0.0000000000000D+00
137  1.3600000000000D+00  0.0000000000000D+00  0.0000000000000D+00
138  1.3700000000000D+00  0.0000000000000D+00  0.0000000000000D+00
139  1.3800000000000D+00  0.0000000000000D+00  0.0000000000000D+00
140  1.3900000000000D+00  0.0000000000000D+00  0.0000000000000D+00
141  1.4000000000000D+00  0.0000000000000D+00  0.0000000000000D+00
142  1.4100000000000D+00  0.0000000000000D+00  0.0000000000000D+00
143  1.4200000000000D+00  0.0000000000000D+00  0.0000000000000D+00
144  1.4300000000000D+00  0.0000000000000D+00  0.0000000000000D+00
145  1.4400000000000D+00  0.0000000000000D+00  0.0000000000000D+00
146  1.4500000000000D+00  0.0000000000000D+00  0.0000000000000D+00
147  1.4600000000000D+00  0.0000000000000D+00  0.0000000000000D+00
148  1.4700000000000D+00  0.0000000000000D+00  0.0000000000000D+00
149  1.4800000000000D+00  0.0000000000000D+00  0.0000000000000D+00
150  1.4900000000000D+00  0.0000000000000D+00  0.0000000000000D+00
151  1.5000000000000D+00  0.0000000000000D+00  0.0000000000000D+00
152  1.5100000000000D+00  0.0000000000000D+00  0.0000000000000D+00
153  1.5200000000000D+00  0.0000000000000D+00  0.0000000000000D+00
154  1.5300000000000D+00  0.0000000000000D+00  0.0000000000000D+00
155  1.5400000000000D+00  0.0000000000000D+00  0.0000000000000D+00
156  1.5500000000000D+00  0.0000000000000D+00  0.0000000000000D+00
157  1.5600000000000D+00  0.0000000000000D+00  0.0000000000000D+00
158  1.5700000000000D+00  0.0000000000000D+00  0.0000000000000D+00
159  1.5800000000000D+00  0.0000000000000D+00  0.0000000000000D+00
160  1.5900000000000D+00  0.0000000000000D+00  0.0000000000000D+00
161  1.6000000000000D+00  0.0000000000000D+00  0.0000000000000D+00
162  1.6100000000000D+00  0.0000000000000D+00  0.0000000000000D+00
163  1.6200000000000D+00  0.0000000000000D+00  0.0000000000000D+00
164  1.6300000000000D+00  0.0000000000000D+00  0.0000000000000D+00
165  1.6400000000000D+00  0.0000000000000D+00  0.0000000000000D+00
166  1.6500000000000D+00  0.0000000000000D+00  0.0000000000000D+00
167  1.6600000000000D+00  0.0000000000000D+00  0.0000000000000D+00
168  1.6700000000000D+00  0.0000000000000D+00  0.0000000000000D+00
169  1.6800000000000D+00  0.0000000000000D+00  0.0000000000000D+00
170  1.6900000000000D+00  0.0000000000000D+00  0.0000000000000D+00
171  1.7000000000000D+00  0.0000000000000D+00  0.0000000000000D+00
172  1.7100000000000D+00  0.0000000000000D+00  0.0000000000000D+00
173  1.7200000000000D+00  0.0000000000000D+00  0.0000000000000D+00
174  1.7300000000000D+00  0.0000000000000D+00  0.0000000000000D+00
175  1.7400000000000D+00  0.0000000000000D+00  0.0000000000000D+00
176  1.7500000000000D+00  0.0000000000000D+00  0.0000000000000D+00
177  1.7600000000000D+00  0.0000000000000D+00  0.0000000000000D+00
178  1.7700000000000D+00  0.0000000000000D+00  0.0000000000000D+00
179  1.7800000000000D+00  0.0000000000000D+00  0.0000000000000D+00
180  1.7900000000000D+00  0.0000000000000D+00  0.0000000000000D+00
181  1.8000000000000D+00  0.0000000000000D+00  0.0000000000000D+00
182  1.8100000000000D+00  0.0000000000000D+00  0.0000000000000D+00
183  1.8200000000000D+00  0.0000000000000D+00  0.0000000000000D+00
184  1.8300000000000D+00  0.0000000000000D+00  0.0000000000000D+00
185  1.8400000000000D+00  0.0000000000000D+00  0.0000000000000D+00
186  1.8500000000000D+00  0.0000000000000D+00  0.0000000000000D+00
187  1.8600000000000D+00  0.0000000000000D+00  0.0000000000000D+00
188  1.8700000000000D+00  0.0000000000000D+00  0.0000000000000D+00
189  1.8800000000000D+00  0.0000000000000D+00  0.0000000000000D+00
190  1.8900000000000D+00  0.0000000000000D+00  0.0000000000000D+00
191  1.9000000000000D+00  0.0000000000000D+00  0.0000000000000D+00
192  1.9100000000000D+00  0.0000000000000D+00  0.0000000000000D+00
193  1.9200000000000D+00  0.0000000000000D+00  0.0000000000000D+00
194  1.9300000000000D+00  0.0000000000000D+00  0.0000000000000D+00
195  1.9400000000000D+00  0.0000000000000D+00  0.0000000000000D+00
196  1.9500000000000D+00  0.0000000000000D+00  0.0000000000000D+00
197  1.9600000000000D+00  0.0000000000000D+00  0.0000000000000D+00
198  1.9700000000000D+00  0.0000000000000D+00  0.0000000000000D+00
199  1.9800000000000D+00  0.0000000000000D+00  0.0000000000000D+00
200  1.9900000000000D+00  0.0000000000000D+00  0.0000000000000D+00
201  2.0000000000000D+00  0.0000000000000D+00  0.0000000000000D+00
202  2.0100000000000D+00  0.0000000000000D+00  0.0000000000000D+00
203  2.0200000000000D+00  0.0000000000000D+00  0.0000000000000D+00
204  2.0300000000000D+00  0.0000000000000D+00  0.0000000000000D+00
205  2.0400000000000D+00  0.0000000000000D+00  0.0000000000000D+00
206  2.0500000000000D+00  0.0000000000000D+00  0.0000000000000D+00
207  2.0600000000000D+00  0.0000000000000D+00  0.0000000000000D+00
208  2.0700000000000D+00  0.0000000000000D+00  0.0000000000000D+00
209  2.0800000000000D+00  0.0000000000000D+00  0.0000000000000D+00
210  2.0900000000000D+00  0.0000000000000D+00  0.0000000000000D+00
211  2.1000000000000D+00  0.0000000000000D+00  0.0000000000000D+00
212  2.1100000000000D+00  0.0000000000000D+00  0.0000000000000D+00
213  2.1200000000000D+00  0.0000000000000D+00  0.0000000000000D+00
214  2.1300000000000D+00  0.0000000000000D+00  0.0000000000000D+00
215  2.1400000000000D+00  0.0000000000000D+00  0.0000000000000D+00
216  2.1500000000000D+00  0.0000000000000D+00  0.0000000000000D+00
217  2.1600000000000D+00  0.0000000000000D+00  0.0000000000000D+00
218  2.1700000000000D+00  0.0000000000000D+00  0.0000000000000D+00
219  2.1800000000000D+00  0.0000000000000D+00  0.0000000000000D+00
220  2.1900000000000D+00  0.0000000000000D+00  0.0000000000000D+00
221  2.2000000000000D+00  0.0000000000000D+00  0.0000000000000D+00
222  2.2100000000000D+00  0.0000000000000D+00  0.0000000000000D+00
223  2.2200000000000D+00  0.0000000000000D+00  0.0000000000000D+00
224  2.2300000000000D+00  0.0000000000000D+00  0.0000000000000D+00
225  2.2400000000000D+00  0.0000000000000D+00  0.0000000000000D+00
226  2.2500000000000D+00  0.0000000000000D+00  0.0000000000000D+00
227  2.2600000000000D+00  0.0000000000000D+00  0.0000000000000D+00
228  2.2700000000000D+00  0.0000000000000D+00  0.0000000000000D+00
229  2.2800000000000D+00  0.0000000000000D+00  0.0000000000000D+00
230  2.2900000000000D+00  0.0000000000000D+00  0.0000000000000D+00
231  2.3000000000000D+00  0.0000000000000D+00  0.0000000000000D+00
232  2.3100000000000D+00  0.0000000000000D+00  0.0000000000000D+00
233  2.3200000000000D+00  0.0000000000000D+00  0.0000000000000D+00
234  2.3300000000000D+00  0.0000000000000D+00  0.0000000000000D+00
235  2.3400000000000D+00  0.0000000000000D+00  0.0000000000000D+00
236  2.3500000000000D+00  0.0000000000000D+00  0.0000000000000D+00
237  2.3600000000000D+00  0.0000000000000D+00  0.0000000000000D+00
238  2.3700000000000D+00  0.0000000000000D+00  0.0000000000000D+00
239  2.3800000000000D+00  0.0000000000000D+00  0.0000000000000D+00
240  2.3900000000000D+00  0.0000000000000D+00  0.0000000000000D+00
241  2.4000000000000D+00  0.0000000000000D+00  0.0000000000000D+00
242  2.4100000000000D+00  0.0000000000000D+00  0.0000000000000D+00
243  2.4200000000000D+00  0.0000000000000D+00  0.0000000000000D+00
244  2.4300000000000D+00  0.0000000000000D+00  0.0000000000000D+00
245  2.4400000000000D+00  0.0000000000000D+00  0.0000000000000D+00
246  2.4500000000000D+00  0.0000000000000D+00  0.0000000000000D+00
247  2.4600000000000D+00  0.0000000000000D+00  0.0000000000000D+00
248  2.4700000000000D+00  0.0000000000000D+00  0.0000000000000D+00
249  2.4800000000000D+00  0.0000000000000D+00  0.0000000000000D+00
250  2.4900000000000D+00  0.0000000000000D+00  0.0000000000000D+00
251  2.5000000000000D+00  0.0000000000000D+00  0.0000000000000D+00
252  2.5100000000000D+00  0.0000000000000D+00  0.0000000000000D+00
253  2.5200000000000D+00  0.0000000000000D+00  0.0000000000000D+00
254  2.5300000000000D+00  0.0000000000000D+00  0.0000000000000D+00
255  2.5400000000000D+00  0.0000000000000D+00  0.0000000000000D+00
256  2.5500000000000D+00  0.0000000000000D+00  0.0000000000000D+00
257  2.5600000000000D+00  0.0000000000000D+00  0.0000000000000D+00
258  2.5700000000000D+00  0.0000000000000D+00  0.0000000000000D+00
259  2.5800000000000D+00  0.0000000000000D+00  0.0000000000000D+00
260  2.5900000000000D+00  0.0000000000000D+00  0.0000000000000D+00
261  2.6000000000000D+00  0.0000000000000D+00  0.0000000000000D+00
262  2.6100000000000D+00  0.0000000000000D+00  0.0000000000000D+00
263  2.6200000000000D+00  0.0000000000000D+00  0.0000000000000D+00
264  2.6300000000000D+00  0.0000000000000D+00  0.0000000000000D+00
265  2.6400000000000D+00  0.0000000000000D+00  0.0000000000000D+00
266  2.6500000000000D+00  0.0000000000000D+00  0.0000000000000D+00
267  2.6600000000000D+00  0.0000000000000D+00  0.0000000000000D+00
268  2.6700000000000D+00  0.0000000000000D+00  0.0000000000000D+00
269  2.6800000000000D+00  0.0000000000000D+00  0.0000000000000D+00
270  2.6900000000000D+00  0.0000000000000D+00  0.0000000000000D+00
271  2.7000000000000D+00  0.0000000000000D+00  0.0000000000000D+00
272  2.7100000000000D+00  0.0000000000000D+00  0.0000000000000D+00
273  2.7200000000000D+00  0.0000000000000D+00  0.0000000000000D+00
274  2.7300000000000D+00  0.0000000000000D+00  0.0000000000000D+00
275  2.7400000000000D+00  0.0000000000000D+00  0.0000000000000D+00
276  2.7500000000000D+00  0.0000000000000D+00  0.0000000000000D+00
277  2.7600000000000D+00  0.0000000000000D+00  0.0000000000000D+00
278  2.7700000000000D+00  0.0000000000000D+00  0.0000000000000D+00
279  2.7800000000000D+00  0.0000000000000D+00  0.0000000000000D+00
280  2.7900000000000D+00  0.0000000000000D+00  0.0000000000000D+00
281  2.8000000000000D+00  0.0000000000000D+00  0.0000000000000D+00
282  2.8100000000000D+00  0.0000000000000D+00  0.0000000000000D+00
283  2.8200000000000D+00  0.0000000000000D+00  0.0000000000000D+00
284  2.8300000000000D+00  0.0000000000000D+00  0.0000000000000D+00
285  2.8400000000000D+00  0.0000000000000D+00  0.0000000000000D+00
286  2.8500000000000D+00  0.0000000000000D+00  0.0000000000000D+00
287  2.8600000000000D+00  0.0000000000000D+00  0.0000000000000D+00
288  2.8700000000000D+00  0.0000000000000D+00  0.0000000000000D+00
289  2.8800000000000D+00  0.0000000000000D+00  0.0000000000000D+00
290  2.8900000000000D+00  0.0000000000000D+00  0.0000000000000D+00
291  2.9000000000000D+00  0.0000000000000D+00  0.0000000000000D+00
292  2.9100000000000D+00  0.0000000000000D+00  0.0000000000000D+00
293  2.9200000000000D+00  0.0000000000000D+00  0.0000000000000D+00
294  2.9300000000000D+00  0.0000000000000D+00  0.0000000000000D+00
295  2.9400000000000D+00  0.0000000000000D+00  0.0000000000000D+00
296  2.9500000000000D+00  0.0000000000000D+00  0.0000000000000D+00
297  2.9600000000000D+00  0.0000000000000D+00  0.0000000000000D+00
298  2.9700000000000D+00  0.0000000000000D+00  0.0000000000000D+00
299  2.9800000000000D+00  0.0000000000000D+00  0.0000000000000D+00
300  2.9900000000000D+00  0.0000000000000D+00  0.0000000000000D+00
301  3.0000000000000D+00  0.0000000000000D+00  0.0000000000000D+00
302  3.0100000000000D+00  0.0000000000000D+00  0.0000000000000D+00
303  3.0200000000000D+00  0.0000000000000D+00  0.0000000000000D+00
304  3.0300000000000D+00  0.0000000000000D+00  0.0000000000000D+00
305  3.0400000000000D+00  0.0000000000000D+00  0.0000000000000D+00
306  3.0500000000000D+00  0.0000000000000D+00  0.0000000000000D+00
307  3.0600000000000D+00  0.0000000000000D+00  0.0000000000000D+00
308  3.0700000000000D+00  0.0000000000000D+00  0.0000000000000D+00
309  3.0800000000000D+00  0.0000000000000D+00  0.0000000000000D+00
310  3.0900000000000D+00  0.0000000000000D+00  0.0000000000000D+00
311  3.1000000000000D+00  0.0000000000000D+00  0.0000000000000D+00
312  3.1100000000000D+00  0.0000000000000D+00  0.0000000000000D+00
313  3.1200000000000D+00  0.0000000000000D+00  0.0000000000000D+00
314  3.1300000000000D+00  0.0000000000000D+00  0.0000000000000D+00
315  3.1400000000000D+00  0.0000000000000D+00  0.0000000000000D+00
316  3.1500000000000D+00  0.0000000000000D+00  0.0000000000000D+00
317  3.1600000000000D+00  0.0000000000000D+00  0.0000000000000D+00
318  3.1700000000000D+00  0.0000000000000D+00  0.0000000000000D+00
319  3.1800000000000D+00  0.0000000000000D+00  0.0000000000000D+00
320  3.1900000000000D+00  0.0000000000000D+00  0.0000000000000D+00
321  3.2000000000000D+00  0.0000000000000D+00  0.0000000000000D+00
322  3.2100000000000D+00  0.0000000000000D+00  0.0000000000000D+00
323  3.2200000000000D+00  0.0000000000000D+00  0.0000000000000D+00
324  3.2300000000000D+00  0.0000000000000D+00  0.0000000000000D+00
325  3.2400000000000D+00  0.0000000000000D+00  0.0000000000000D+00
326  3.2500000000000D+00  0.0000000000000D+00  0.0000000000000D+00
327  3.2600000000000D+00  0.0000000000000D+00  0.0000000000000D+00
328  3.2700000000000D+00  0.0000000000000D+00  0.0000000000000D+00
329  3.2800000000000D+00  0.0000000000000D+00  0.0000000000000D+00
330  3.2900000000000D+00  0.0000000000000D+00  0.0000000000000D+00
331  3.3000000000000D+00  0.0000000000000D+00  0.0000000000000D+00
332  3.3100000000000D+00  0.0000000000000D+00  0.0000000000000D+00
333  3.3200000000000D+00  0.0000000000000D+00  0.0000000000000D+00
334  3.3300000000000D+00  0.0000000000000D+00  0.0000000000000D+00
335  3.3400000000000D+00  0.0000000000000D+00  0.0000000000000D+00
336  3.3500000000000D+00  0.0000000000000D+00  0.0000000000000D+00
337  3.3600000000000D+00  0.0000000000000D+00  0.0000000000000D+00
338  3.3700000000000D+00  0.0000000000000D+00  0.0000000000000D+00
339  3.3800000000000D+00  0.0000000000000D+00  0.0000000000000D+00
340  3.3900000000000D+00  0.0000000000000D+00  0.0000000000000D+00
341  3.4000000000000D+00  0.0000000000000D+00  0.0000000000000D+00
342  3.4100000000000D+00  0.0000000000000D+00  0.0000000000000D+00
343  3.4200000000000D+00  0.0000000000000D+00  0.0000000000000D+00
344  3.4300000000000D+00  0.0000000000000D+00  0.0000000000000D+00
345  3.4400000000000D+00  0.0000000000000D+00  0.0000000000000D+00
346  3.4500000000000D+00  0.0000000000000D+00  0.0000000000000D+00
347  3.4600000000000D+00  0.0000000000000D+00  0.0000000000000D+00
348  3.4700000000000D+00  0.0000000000000D+00  0.0000000000000D+00
349  3.4800000000000D+00  0.0000000000000D+00  0.0000000000000D+00
350  3.4900000000000D+00  0.0000000000000D+00  0.0000000000000D+00
351  3.5000000000000D+00  0.0000000000000D+00  0.0000000000000D+00
352  3.5100000000000D+00  0.0000000000000D+00  0.0000000000000D+00
353  3.5200000000000D+00  0.0000000000000D+00  0.0000000000000D+00
354  3.5300000000000D+00  0.0000000000000D+00  0.0000000000000D+00
355  3.5400000000000D+00  0.0000000000000D+00  0.0000000000000D+00
356  3.5500000000000D+00  0.0000000000000D+00  0.0000000000000D+00
357  3.5600000000000D+00  0.0000000000000D+00  0.0000000000000D+00
358  3.5700000000000D+00  0.0000000000000D+00  0.0000000000000D+00
359  3.5800000000000D+00  0.0000000000000D+00  0.0000000000000D+00
360  3.5900000000000D+00  0.0000000000000D+00  0.0000000000000D+00
361  3.6000000000000D+00  0.0000000000000D+00  0.0000000000000D+00
362  3.6100000000000D+00  0.0000000000000D+00  0.0000000000000D+00
363  3.6200000000000D+00  0.0000000000000D+00  0.0000000000000D+00
364  3.6300000000000D+00  0.0000000000000D+00  0.0000000000000D+00
365  3.6400000000000D+00  0.0000000000000D+00  0.0000000000000D+00
366  3.6500000000000D+00  0.0000000000000D+00  0.0000000000000D+00
367  3.6600000000000D+00  0.0000000000000D+00  0.0000000000000D+00
368  3.6700000000000D+00  0.0000000000000D+00  0.0000000000000D+00
369  3.6800000000000D+00  0.0000000000000D+00  0.0000000000000D+00
370  3.6900000000000D+00  0.0000000000000D+00  0.0000000000000D+00
371  3.7000000000000D+00  0.0000000000000D+00  0.0000000000000D+00
372  3.7100000000000D+00  0.0000000000000D+00  0.0000000000000D+00
373  3.7200000000000D+00  0.0000000000000D+00  0.0000000000000D+00
374  3.7300000000000D+00  0.0000000000000D+00  0.0000000000000D+00
375  3.7400000000000D+00  0.0000000000000D+00  0.0000000000000D+00
376  3.7500000000000D+00  0.0000000000000D+00  0.0000000000000D+00
377  3.7600000000000D+00  0.0000000000000D+00  0.0000000000000D+00
378  3.7700000000000D+00  0.0000000000000D+00  0.0000000000000D+00
379  3.7800000000000D+00  0.0000000000000D+00  0.0000000000000D+00
380  3.7900000000000D+00  0.0000000000000D+00  0.0000000000000D+00
381  3.8000000000000D+00  0.0000000000000D+00  0.0000000000000D+00
382  3.8100000000000D+00  0.0000000000000D+00  0.0000000000000D+00
383  3.8200000000000D+00  0.0000000000000D+00  0.0000000000000D+00
384  3.8300000000000D+00  0.0000000000000D+00  0.0000000000000D+00
385  3.8400000000000D+00  0.0000000000000D+00  0.0000000000000D+00
386  3.8500000000000D+00  0.0000000000000D+00  0.0000000000000D+00
387  3.8600000000000D+00  0.0000000000000D+00  0.0000000000000D+00
388  3.8700000000000D+00  0.0000000000000D+00  0.0000000000000D+00
389  3.8800000000000D+00  0.0000000000000D+00  0.0000000000000D+00
390  3.8900000000000D+00  0.0000000000000D+00  0.0000000000000D+00
391  3.9000000000000D+00  0.0000000000000D+00  0.0000000000000D+00
392  3.9100000000000D+00  0.0000000000000D+00  0.0000000000000D+00
393  3.9200000000000D+00  0.0000000000000D+00  0.0000000000000D+00
394  3.9300000000000D+00  0.0000000000000D+00  0.0000000000000D+00
395  3.9400000000000D+00  0.0000000000000D+00  0.0000000000000D+00
396  3.9500000000000D+00  0.0000000000000D+00  0.0000000000000D+00
397  3.9600000000000D+00  0.0000000000000D+00  0.0000000000000D+00
398  3.9700000000000D+00  0.0000000000000D+00  0.0000000000000D+00
399  3.9800000000000D+00  0.0000000000000D+00  0.0000000000000D+00
400  3.9900000000000D+00  0.0000000000000D+00  0.0000000000000D+00
1                        -6.5031509069217D+00 -2.5014446795433D+00
1  0.0000000000000D+00  5.2025868335637D-10 -1.0517330062410D-09
2  1.0000000000000D-02  1.9832720287250D-03 -8.7970892999033D-04
3  2.0000000000000D-02  7.9236577577093D-03 -3.5102527009108D-03
4  3.0000000000000D-02  1.7792912496705D-02 -7.8659475666499D-03
5  4.0000000000000D-02  3.1544116086479D-02 -1.3904204410472D-02
6  5.0000000000000D-02  4.9111903408684D-02 -2.1565852423661D-02
7  6.0000000000000D-02  7.0412785154771D-02 -3.0775588255450D-02
8  7.0000000000000D-02  9.5345556929994D-02 -4.1442546688085D-02
9  8.0000000000000D-02  1.2379179424831D-01 -5.3460987839095D-02
10  9.0000000000000D-02  1.5561643047548D-01 -6.6711094897079D-02
11  1.0000000000000D-01  1.9066841430490D-01 -8.1059875467906D-02
12  1.1000000000000D-01  2.2878144290795D-01 -9.6362158755293D-02
13  1.2000000000000D-01  2.6977476649100D-01 -1.1246168003230D-01
14  1.3000000000000D-01  3.1345405961807D-01 -1.2919224318627D-01
15  1.4000000000000D-01  3.5961235432423D-01 -1.4637895154558D-01
16  1.5000000000000D-01  4.0803102975222D-01 -1.6383949672817D-01
17  1.6000000000000D-01  4.5848085279493D-01 -1.8138549489245D-01
18  1.7000000000000D-01  5.1072306402089D-01 -1.9882385952395D-01
19  1.8000000000000D-01  5.6451050299929D-01 -2.1595819975739D-01
20  1.9000000000000D-01  6.1958876702487D-01 -2.3259023321217D-01
21  2.0000000000000D-01  6.7569739717169D-01 -2.4852120240989D-01
22  2.1000000000000D-01  7.3257108557655D-01 -2.6355328404002D-01
23  2.2000000000000D-01  7.8994089786698D-01 -2.7749098064164D-01
24  2.3000000000000D-01  8.4753550470240D-01 -2.9014248466847D-01
25  2.4000000000000D-01  9.0508241648924D-01 -3.0132100539443D-01
26  2.5000000000000D-01  9.6230921545746D-01 -3.1084604968975D-01
27  2.6000000000000D-01  1.0189447794446D+00 -3.1854464834435D-01
28  2.7000000000000D-01  1.0747204919216D+00 -3.2425252032543D-01
29  2.8000000000000D-01  1.1293714330063D+00 -3.2781516812006D-01
30  2.9000000000000D-01  1.1826375464459D+00 -3.2908889811936D-01
31  3.0000000000000D-01  1.2342647777994D+00 -3.2794176083778D-01
32  3.1000000000000D-01  1.2840061793191D+00 -3.2425440661676D-01
33  3.2000000000000D-01  1.3316229773012D+00 -3.1792085332543D-01
34  3.3000000000000D-01  1.3768855979616D+00 -3.0884916343061D-01
35  3.4000000000000D-01  1.4195746481731D+00 -2.9696202865233D-01
36  3.5000000000000D-01  1.4594818476839D+00 -2.8219726123957D-01
37  3.6000000000000D-01  1.4964109097175D+00 -2.6450819168309D-01
38  3.7000000000000D-01  1.5301783671244D+00 -2.4386397341956D-01
39  3.8000000000000D-01  1.5606143415190D+00 -2.2024979576456D-01
40  3.9000000000000D-01  1.5875632530887D+00 -1.9366700693501D-01
41  4.0000000000000D-01  1.6108844689968D+00 -1.6413314957719D-01
42  4.1000000000000D-01  1.6304528885303D+00 -1.3168191170086D-01
43  4.2000000000000D-01  1.6461594633488D+00 -9.6362996328584D-02