Po    ONCVPSP-3.3.0  r_core=   1.40243   1.50649   1.40243
84.0000     24.0000      171114    zatom,zion,pspd
8   -1012   2     4   600     0    pspcod,pspxc,lmax,lloc,mmax,r2well
5.99000000  6.00000000  0.00000000    rchrg fchrg qchrg
2     2     2     0     0    nproj
1     1           extension_switch
0                         1.8638477871198D+01  2.6294191135599D+00
1  0.0000000000000D+00 -1.0587444254639D-09  2.2150929285258D-09
2  1.0000000000000D-02  8.9801113776365D-02 -1.6437387604999D-02
3  2.0000000000000D-02  1.7931063764744D-01 -3.2622413435719D-02
4  3.0000000000000D-02  2.6823863020923D-01 -4.8305363737233D-02
5  4.0000000000000D-02  3.5629842873725D-01 -6.3241783590606D-02
6  5.0000000000000D-02  4.4320824299390D-01 -7.7195013899287D-02
7  6.0000000000000D-02  5.2869269516271D-01 -8.9938619059460D-02
8  7.0000000000000D-02  6.1248428921605D-01 -1.0125867151962D-01
9  8.0000000000000D-02  6.9432479408135D-01 -1.1095586164974D-01
10  9.0000000000000D-02  7.7396652626395D-01 -1.1884740404590D-01
11  1.0000000000000D-01  8.5117351909152D-01 -1.2476871455167D-01
12  1.1000000000000D-01  9.2572256744408D-01 -1.2857483583480D-01
13  1.2000000000000D-01  9.9740413869670D-01 -1.3014159326303D-01
14  1.3000000000000D-01  1.0660231426027D+00 -1.2936646701670D-01
15  1.4000000000000D-01  1.1313995549508D+00 -1.2616917079434D-01
16  1.5000000000000D-01  1.1933688920081D+00 -1.2049193204227D-01
17  1.6000000000000D-01  1.2517825349795D+00 -1.1229947330062D-01
18  1.7000000000000D-01  1.3065079059338D+00 -1.0157869893301D-01
19  1.8000000000000D-01  1.3574284988397D+00 -8.8338096123156D-02
20  1.9000000000000D-01  1.4044437714790D+00 -7.2606863505978D-02
21  2.0000000000000D-01  1.4474689060288D+00 -5.4433785081734D-02
22  2.1000000000000D-01  1.4864344479966D+00 -3.3885871072043D-02
23  2.2000000000000D-01  1.5212858349230D+00 -1.1046791049746D-02
24  2.3000000000000D-01  1.5519828277999D+00  1.3984872048727D-02
25  2.4000000000000D-01  1.5784988594712D+00  4.1097515595175D-02
26  2.5000000000000D-01  1.6008203153591D+00  7.0168524867790D-02
27  2.6000000000000D-01  1.6189457626756D+00  1.0106635903474D-01
28  2.7000000000000D-01  1.6328851448166D+00  1.3365267877400D-01
29  2.8000000000000D-01  1.6426589578926D+00  1.6778447817126D-01
30  2.9000000000000D-01  1.6482974263045D+00  2.0331618354410D-01
31  3.0000000000000D-01  1.6498396939417D+00  2.4010168246747D-01
32  3.1000000000000D-01  1.6473330469450D+00  2.7799624752125D-01
33  3.2000000000000D-01  1.6408321830667D+00  3.1685832112985D-01
34  3.3000000000000D-01  1.6303985414648D+00  3.5655113029503D-01
35  3.4000000000000D-01  1.6160997053295D+00  3.9694410300358D-01
36  3.5000000000000D-01  1.5980088880526D+00  4.3791406157887D-01
37  3.6000000000000D-01  1.5762045117606D+00  4.7934617218997D-01
38  3.7000000000000D-01  1.5507698849603D+00  5.2113463407520D-01
39  3.8000000000000D-01  1.5217929838205D+00  5.6318309671345D-01
40  3.9000000000000D-01  1.4893663392824D+00  6.0540479811244D-01
41  4.0000000000000D-01  1.4535870297797D+00  6.4772242250407D-01
42  4.1000000000000D-01  1.4145567769058D+00  6.9006768095717D-01
43  4.2000000000000D-01  1.3723821389317D+00  7.3238062365629D-01
44  4.3000000000000D-01  1.3271747946886D+00  7.7460869776175D-01
45  4.4000000000000D-01  1.2790519080363D+00  8.1670556977605D-01
46  4.5000000000000D-01  1.2281365609758D+00  8.5862973610743D-01
47  4.6000000000000D-01  1.1745582414796D+00  9.0034294995934D-01
48  4.7000000000000D-01  1.1184533703365D+00  9.4180849670396D-01
49  4.8000000000000D-01  1.0599658497841D+00  9.8298935344433D-01
50  4.9000000000000D-01  9.9924761545467D-01  1.0238462714635D+00
51  5.0000000000000D-01  9.3645917222663D-01  1.0643358226386D+00
52  5.1000000000000D-01  8.7177009397225D-01  1.1044084526123D+00
53  5.2000000000000D-01  8.0535946694177D-01  1.1440065845158D+00
54  5.3000000000000D-01  7.3741625664458D-01  1.1830628173047D+00
55  5.4000000000000D-01  6.6813957857991D-01  1.2214982622632D+00
56  5.5000000000000D-01  5.9773885403951D-01  1.2592210599691D+00
57  5.6000000000000D-01  5.2643383344993D-01  1.2961251179650D+00
58  5.7000000000000D-01  4.5445447132268D-01  1.3320891066028D+00
59  5.8000000000000D-01  3.8204063883905D-01  1.3669757470039D+00
60  5.9000000000000D-01  3.0944166236031D-01  1.4006314209037D+00
61  6.0000000000000D-01  2.3691567873469D-01  1.4328861273067D+00
62  6.1000000000000D-01  1.6472880108459D-01  1.4635538055250D+00
63  6.2000000000000D-01  9.3154091820963D-02  1.4924330382784D+00
64  6.3000000000000D-01  2.2470342841981D-02  1.5193081422869D+00
65  6.4000000000000D-01 -4.7039333772238D-02  1.5439506472061D+00
66  6.5000000000000D-01 -1.1508909782592D-01  1.5661211569606D+00
67  6.6000000000000D-01 -1.8139214565912D-01  1.5855715806807D+00
68  6.7000000000000D-01 -2.4566263378593D-01  1.6020477135552D+00
69  6.8000000000000D-01 -3.0761774460678D-01  1.6152921411808D+00
70  6.9000000000000D-01 -3.6697987411535D-01  1.6250474344884D+00
71  7.0000000000000D-01 -4.2347891856152D-01  1.6310595961879D+00
72  7.1000000000000D-01 -4.7685463432182D-01  1.6330817139638D+00
73  7.2000000000000D-01 -5.2685904284899D-01  1.6308777705565D+00
74  7.3000000000000D-01 -5.7325885053892D-01  1.6242265563992D+00
75  7.4000000000000D-01 -6.1583785173340D-01  1.6129256267875D+00
76  7.5000000000000D-01 -6.5439928189012D-01  1.5967952426871D+00
77  7.6000000000000D-01 -6.8876808724554D-01  1.5756822323186D+00
78  7.7000000000000D-01 -7.1879307708704D-01  1.5494637096562D+00
79  7.8000000000000D-01 -7.4434892505744D-01  1.5180505859526D+00
80  7.9000000000000D-01 -7.6533798674917D-01  1.4813908114159D+00
81  8.0000000000000D-01 -7.8169190220782D-01  1.4394722861933D+00
82  8.1000000000000D-01 -7.9337295384879D-01  1.3923253828742D+00
83  8.2000000000000D-01 -8.0037515268082D-01  1.3400250267808D+00
84  8.3000000000000D-01 -8.0272502860501D-01  1.2826922853228D+00
85  8.4000000000000D-01 -8.0048210387971D-01  1.2204954236025D+00
86  8.5000000000000D-01 -7.9373903257753D-01  1.1536503901943D+00
87  8.6000000000000D-01 -7.8262139296272D-01  1.0824207044998D+00
88  8.7000000000000D-01 -7.6728712412094D-01  1.0071167251930D+00
89  8.8000000000000D-01 -7.4792560284083D-01  9.2809428791593D-01
90  8.9000000000000D-01 -7.2475636157374D-01  8.4575270940317D-01
91  9.0000000000000D-01 -6.9802745327056D-01  7.6053216454459D-01
92  9.1000000000000D-01 -6.6801347388281D-01  6.7291045231128D-01
93  9.2000000000000D-01 -6.3501325827983D-01  5.8339917588729D-01
94  9.3000000000000D-01 -5.9934727018593D-01  4.9253937159524D-01
95  9.4000000000000D-01 -5.6135471140570D-01  4.0089663013700D-01
96  9.5000000000000D-01 -5.2139038000827D-01  3.0905576214268D-01
97  9.6000000000000D-01 -4.7982131120923D-01  2.1761506789367D-01
98  9.7000000000000D-01 -4.3702323835437D-01  1.2718027822235D-01
99  9.8000000000000D-01 -3.9337691460766D-01  3.8358239867254D-02
100  9.9000000000000D-01 -3.4926433862842D-01 -4.8249576118043D-02
101  1.0000000000000D+00 -3.0506492960586D-01 -1.3205366010741D-01
102  1.0100000000000D+00 -2.6115169851724D-01 -2.1248305790782D-01
103  1.0200000000000D+00 -2.1788746332732D-01 -2.8899188525219D-01
104  1.0300000000000D+00 -1.7562115598186D-01 -3.6106567449075D-01
105  1.0400000000000D+00 -1.3468426854819D-01 -4.2822746587400D-01
106  1.0500000000000D+00 -9.5387484611272D-02 -4.9004355792142D-01
107  1.0600000000000D+00 -5.8017540113503D-02 -5.4612883476796D-01
108  1.0700000000000D+00 -2.2834355441562D-02 -5.9615159267315D-01
109  1.0800000000000D+00  9.9315229111124D-03 -6.3983779423351D-01
110  1.0900000000000D+00  4.0081136333003D-02 -6.7697468539424D-01
111  1.1000000000000D+00  6.7448953604600D-02 -7.0741371896817D-01
112  1.1100000000000D+00  9.1904310236038D-02 -7.3107273663215D-01
113  1.1200000000000D+00  1.1335242739007D-01 -7.4793737155671D-01
114  1.1300000000000D+00  1.3173499593856D-01 -7.5806164468598D-01
115  1.1400000000000D+00  1.4703031702428D-01 -7.6156773863155D-01
116  1.1500000000000D+00  1.5925299638163D-01 -7.5864494421940D-01
117  1.1600000000000D+00  1.6845319563339D-01 -7.4954778597188D-01
118  1.1700000000000D+00  1.7471545079210D-01 -7.3459334605511D-01
119  1.1800000000000D+00  1.7815707401575D-01 -7.1415781723809D-01
120  1.1900000000000D+00  1.7892615951029D-01 -6.8867232457221D-01
121  1.2000000000000D+00  1.7719922158835D-01 -6.5861806898570D-01
122  1.2100000000000D+00  1.7317849783564D-01 -6.2452085536536D-01
123  1.2200000000000D+00  1.6708895491740D-01 -5.8694507638711D-01
124  1.2300000000000D+00  1.5917503829314D-01 -5.4648723044728D-01
125  1.2400000000000D+00  1.4969721281061D-01 -5.0376906287516D-01
126  1.2500000000000D+00  1.3892834278151D-01 -4.5943042269524D-01
127  1.2600000000000D+00  1.2714996258863D-01 -4.1412193193877D-01
128  1.2700000000000D+00  1.1464849477313D-01 -3.6849757619428D-01
129  1.2800000000000D+00  1.0171147144416D-01 -3.2320732227558D-01
130  1.2900000000000D+00  8.8623699588055D-02 -2.7888962772987D-01
131  1.3000000000000D+00  7.5663729269686D-02 -2.3616458179607D-01
132  1.3100000000000D+00  6.3100970656191D-02 -1.9562843267923D-01
133  1.3200000000000D+00  5.1188753753304D-02 -1.5783937774161D-01
134  1.3300000000000D+00  4.0157797385912D-02 -1.2330431274730D-01
135  1.3400000000000D+00  3.0209471595942D-02 -9.2465234328558D-02
136  1.3500000000000D+00  2.1513155406064D-02 -6.5694363320875D-02
137  1.3600000000000D+00  1.4208904317888D-02 -4.3304674835192D-02
138  1.3700000000000D+00  8.3795954717512D-03 -2.5467637885812D-02
139  1.3800000000000D+00  4.0802867997430D-03 -1.2305370044141D-02
140  1.3900000000000D+00  1.4798857852585D-03 -4.3055835771620D-03
141  1.4000000000000D+00  3.5331686649953D-04 -8.3379788589068D-04
142  1.4100000000000D+00  2.5914173690211D-05  5.7951495819108D-05
143  1.4200000000000D+00  8.8392070957629D-07 -8.0103694307800D-06
144  1.4300000000000D+00  8.1997871697629D-06 -4.6630049943901D-05
145  1.4400000000000D+00 -2.3740478843469D-07  4.8471256002539D-06
146  1.4500000000000D+00 -4.2805628318199D-07  4.4783327345135D-06
147  1.4600000000000D+00 -6.1698428417887D-07  1.2475221625776D-06
148  1.4700000000000D+00 -1.0626922868371D-07  2.1487292526323D-07
149  1.4800000000000D+00  0.0000000000000D+00  0.0000000000000D+00
150  1.4900000000000D+00  0.0000000000000D+00  0.0000000000000D+00
151  1.5000000000000D+00  0.0000000000000D+00  0.0000000000000D+00
152  1.5100000000000D+00  0.0000000000000D+00  0.0000000000000D+00
153  1.5200000000000D+00  0.0000000000000D+00  0.0000000000000D+00
154  1.5300000000000D+00  0.0000000000000D+00  0.0000000000000D+00
155  1.5400000000000D+00  0.0000000000000D+00  0.0000000000000D+00
156  1.5500000000000D+00  0.0000000000000D+00  0.0000000000000D+00
157  1.5600000000000D+00  0.0000000000000D+00  0.0000000000000D+00
158  1.5700000000000D+00  0.0000000000000D+00  0.0000000000000D+00
159  1.5800000000000D+00  0.0000000000000D+00  0.0000000000000D+00
160  1.5900000000000D+00  0.0000000000000D+00  0.0000000000000D+00
161  1.6000000000000D+00  0.0000000000000D+00  0.0000000000000D+00
162  1.6100000000000D+00  0.0000000000000D+00  0.0000000000000D+00
163  1.6200000000000D+00  0.0000000000000D+00  0.0000000000000D+00
164  1.6300000000000D+00  0.0000000000000D+00  0.0000000000000D+00
165  1.6400000000000D+00  0.0000000000000D+00  0.0000000000000D+00
166  1.6500000000000D+00  0.0000000000000D+00  0.0000000000000D+00
167  1.6600000000000D+00  0.0000000000000D+00  0.0000000000000D+00
168  1.6700000000000D+00  0.0000000000000D+00  0.0000000000000D+00
169  1.6800000000000D+00  0.0000000000000D+00  0.0000000000000D+00
170  1.6900000000000D+00  0.0000000000000D+00  0.0000000000000D+00
171  1.7000000000000D+00  0.0000000000000D+00  0.0000000000000D+00
172  1.7100000000000D+00  0.0000000000000D+00  0.0000000000000D+00
173  1.7200000000000D+00  0.0000000000000D+00  0.0000000000000D+00
174  1.7300000000000D+00  0.0000000000000D+00  0.0000000000000D+00
175  1.7400000000000D+00  0.0000000000000D+00  0.0000000000000D+00
176  1.7500000000000D+00  0.0000000000000D+00  0.0000000000000D+00
177  1.7600000000000D+00  0.0000000000000D+00  0.0000000000000D+00
178  1.7700000000000D+00  0.0000000000000D+00  0.0000000000000D+00
179  1.7800000000000D+00  0.0000000000000D+00  0.0000000000000D+00
180  1.7900000000000D+00  0.0000000000000D+00  0.0000000000000D+00
181  1.8000000000000D+00  0.0000000000000D+00  0.0000000000000D+00
182  1.8100000000000D+00  0.0000000000000D+00  0.0000000000000D+00
183  1.8200000000000D+00  0.0000000000000D+00  0.0000000000000D+00
184  1.8300000000000D+00  0.0000000000000D+00  0.0000000000000D+00
185  1.8400000000000D+00  0.0000000000000D+00  0.0000000000000D+00
186  1.8500000000000D+00  0.0000000000000D+00  0.0000000000000D+00
187  1.8600000000000D+00  0.0000000000000D+00  0.0000000000000D+00
188  1.8700000000000D+00  0.0000000000000D+00  0.0000000000000D+00
189  1.8800000000000D+00  0.0000000000000D+00  0.0000000000000D+00
190  1.8900000000000D+00  0.0000000000000D+00  0.0000000000000D+00
191  1.9000000000000D+00  0.0000000000000D+00  0.0000000000000D+00
192  1.9100000000000D+00  0.0000000000000D+00  0.0000000000000D+00
193  1.9200000000000D+00  0.0000000000000D+00  0.0000000000000D+00
194  1.9300000000000D+00  0.0000000000000D+00  0.0000000000000D+00
195  1.9400000000000D+00  0.0000000000000D+00  0.0000000000000D+00
196  1.9500000000000D+00  0.0000000000000D+00  0.0000000000000D+00
197  1.9600000000000D+00  0.0000000000000D+00  0.0000000000000D+00
198  1.9700000000000D+00  0.0000000000000D+00  0.0000000000000D+00
199  1.9800000000000D+00  0.0000000000000D+00  0.0000000000000D+00
200  1.9900000000000D+00  0.0000000000000D+00  0.0000000000000D+00
201  2.0000000000000D+00  0.0000000000000D+00  0.0000000000000D+00
202  2.0100000000000D+00  0.0000000000000D+00  0.0000000000000D+00
203  2.0200000000000D+00  0.0000000000000D+00  0.0000000000000D+00
204  2.0300000000000D+00  0.0000000000000D+00  0.0000000000000D+00
205  2.0400000000000D+00  0.0000000000000D+00  0.0000000000000D+00
206  2.0500000000000D+00  0.0000000000000D+00  0.0000000000000D+00
207  2.0600000000000D+00  0.0000000000000D+00  0.0000000000000D+00
208  2.0700000000000D+00  0.0000000000000D+00  0.0000000000000D+00
209  2.0800000000000D+00  0.0000000000000D+00  0.0000000000000D+00
210  2.0900000000000D+00  0.0000000000000D+00  0.0000000000000D+00
211  2.1000000000000D+00  0.0000000000000D+00  0.0000000000000D+00
212  2.1100000000000D+00  0.0000000000000D+00  0.0000000000000D+00
213  2.1200000000000D+00  0.0000000000000D+00  0.0000000000000D+00
214  2.1300000000000D+00  0.0000000000000D+00  0.0000000000000D+00
215  2.1400000000000D+00  0.0000000000000D+00  0.0000000000000D+00
216  2.1500000000000D+00  0.0000000000000D+00  0.0000000000000D+00
217  2.1600000000000D+00  0.0000000000000D+00  0.0000000000000D+00
218  2.1700000000000D+00  0.0000000000000D+00  0.0000000000000D+00
219  2.1800000000000D+00  0.0000000000000D+00  0.0000000000000D+00
220  2.1900000000000D+00  0.0000000000000D+00  0.0000000000000D+00
221  2.2000000000000D+00  0.0000000000000D+00  0.0000000000000D+00
222  2.2100000000000D+00  0.0000000000000D+00  0.0000000000000D+00
223  2.2200000000000D+00  0.0000000000000D+00  0.0000000000000D+00
224  2.2300000000000D+00  0.0000000000000D+00  0.0000000000000D+00
225  2.2400000000000D+00  0.0000000000000D+00  0.0000000000000D+00
226  2.2500000000000D+00  0.0000000000000D+00  0.0000000000000D+00
227  2.2600000000000D+00  0.0000000000000D+00  0.0000000000000D+00
228  2.2700000000000D+00  0.0000000000000D+00  0.0000000000000D+00
229  2.2800000000000D+00  0.0000000000000D+00  0.0000000000000D+00
230  2.2900000000000D+00  0.0000000000000D+00  0.0000000000000D+00
231  2.3000000000000D+00  0.0000000000000D+00  0.0000000000000D+00
232  2.3100000000000D+00  0.0000000000000D+00  0.0000000000000D+00
233  2.3200000000000D+00  0.0000000000000D+00  0.0000000000000D+00
234  2.3300000000000D+00  0.0000000000000D+00  0.0000000000000D+00
235  2.3400000000000D+00  0.0000000000000D+00  0.0000000000000D+00
236  2.3500000000000D+00  0.0000000000000D+00  0.0000000000000D+00
237  2.3600000000000D+00  0.0000000000000D+00  0.0000000000000D+00
238  2.3700000000000D+00  0.0000000000000D+00  0.0000000000000D+00
239  2.3800000000000D+00  0.0000000000000D+00  0.0000000000000D+00
240  2.3900000000000D+00  0.0000000000000D+00  0.0000000000000D+00
241  2.4000000000000D+00  0.0000000000000D+00  0.0000000000000D+00
242  2.4100000000000D+00  0.0000000000000D+00  0.0000000000000D+00
243  2.4200000000000D+00  0.0000000000000D+00  0.0000000000000D+00
244  2.4300000000000D+00  0.0000000000000D+00  0.0000000000000D+00
245  2.4400000000000D+00  0.0000000000000D+00  0.0000000000000D+00
246  2.4500000000000D+00  0.0000000000000D+00  0.0000000000000D+00
247  2.4600000000000D+00  0.0000000000000D+00  0.0000000000000D+00
248  2.4700000000000D+00  0.0000000000000D+00  0.0000000000000D+00
249  2.4800000000000D+00  0.0000000000000D+00  0.0000000000000D+00
250  2.4900000000000D+00  0.0000000000000D+00  0.0000000000000D+00
251  2.5000000000000D+00  0.0000000000000D+00  0.0000000000000D+00
252  2.5100000000000D+00  0.0000000000000D+00  0.0000000000000D+00
253  2.5200000000000D+00  0.0000000000000D+00  0.0000000000000D+00
254  2.5300000000000D+00  0.0000000000000D+00  0.0000000000000D+00
255  2.5400000000000D+00  0.0000000000000D+00  0.0000000000000D+00
256  2.5500000000000D+00  0.0000000000000D+00  0.0000000000000D+00
257  2.5600000000000D+00  0.0000000000000D+00  0.0000000000000D+00
258  2.5700000000000D+00  0.0000000000000D+00  0.0000000000000D+00
259  2.5800000000000D+00  0.0000000000000D+00  0.0000000000000D+00
260  2.5900000000000D+00  0.0000000000000D+00  0.0000000000000D+00
261  2.6000000000000D+00  0.0000000000000D+00  0.0000000000000D+00
262  2.6100000000000D+00  0.0000000000000D+00  0.0000000000000D+00
263  2.6200000000000D+00  0.0000000000000D+00  0.0000000000000D+00
264  2.6300000000000D+00  0.0000000000000D+00  0.0000000000000D+00
265  2.6400000000000D+00  0.0000000000000D+00  0.0000000000000D+00
266  2.6500000000000D+00  0.0000000000000D+00  0.0000000000000D+00
267  2.6600000000000D+00  0.0000000000000D+00  0.0000000000000D+00
268  2.6700000000000D+00  0.0000000000000D+00  0.0000000000000D+00
269  2.6800000000000D+00  0.0000000000000D+00  0.0000000000000D+00
270  2.6900000000000D+00  0.0000000000000D+00  0.0000000000000D+00
271  2.7000000000000D+00  0.0000000000000D+00  0.0000000000000D+00
272  2.7100000000000D+00  0.0000000000000D+00  0.0000000000000D+00
273  2.7200000000000D+00  0.0000000000000D+00  0.0000000000000D+00
274  2.7300000000000D+00  0.0000000000000D+00  0.0000000000000D+00
275  2.7400000000000D+00  0.0000000000000D+00  0.0000000000000D+00
276  2.7500000000000D+00  0.0000000000000D+00  0.0000000000000D+00
277  2.7600000000000D+00  0.0000000000000D+00  0.0000000000000D+00
278  2.7700000000000D+00  0.0000000000000D+00  0.0000000000000D+00
279  2.7800000000000D+00  0.0000000000000D+00  0.0000000000000D+00
280  2.7900000000000D+00  0.0000000000000D+00  0.0000000000000D+00
281  2.8000000000000D+00  0.0000000000000D+00  0.0000000000000D+00
282  2.8100000000000D+00  0.0000000000000D+00  0.0000000000000D+00
283  2.8200000000000D+00  0.0000000000000D+00  0.0000000000000D+00
284  2.8300000000000D+00  0.0000000000000D+00  0.0000000000000D+00
285  2.8400000000000D+00  0.0000000000000D+00  0.0000000000000D+00
286  2.8500000000000D+00  0.0000000000000D+00  0.0000000000000D+00
287  2.8600000000000D+00  0.0000000000000D+00  0.0000000000000D+00
288  2.8700000000000D+00  0.0000000000000D+00  0.0000000000000D+00
289  2.8800000000000D+00  0.0000000000000D+00  0.0000000000000D+00
290  2.8900000000000D+00  0.0000000000000D+00  0.0000000000000D+00
291  2.9000000000000D+00  0.0000000000000D+00  0.0000000000000D+00
292  2.9100000000000D+00  0.0000000000000D+00  0.0000000000000D+00
293  2.9200000000000D+00  0.0000000000000D+00  0.0000000000000D+00
294  2.9300000000000D+00  0.0000000000000D+00  0.0000000000000D+00
295  2.9400000000000D+00  0.0000000000000D+00  0.0000000000000D+00
296  2.9500000000000D+00  0.0000000000000D+00  0.0000000000000D+00
297  2.9600000000000D+00  0.0000000000000D+00  0.0000000000000D+00
298  2.9700000000000D+00  0.0000000000000D+00  0.0000000000000D+00
299  2.9800000000000D+00  0.0000000000000D+00  0.0000000000000D+00
300  2.9900000000000D+00  0.0000000000000D+00  0.0000000000000D+00
301  3.0000000000000D+00  0.0000000000000D+00  0.0000000000000D+00
302  3.0100000000000D+00  0.0000000000000D+00  0.0000000000000D+00
303  3.0200000000000D+00  0.0000000000000D+00  0.0000000000000D+00
304  3.0300000000000D+00  0.0000000000000D+00  0.0000000000000D+00
305  3.0400000000000D+00  0.0000000000000D+00  0.0000000000000D+00
306  3.0500000000000D+00  0.0000000000000D+00  0.0000000000000D+00
307  3.0600000000000D+00  0.0000000000000D+00  0.0000000000000D+00
308  3.0700000000000D+00  0.0000000000000D+00  0.0000000000000D+00
309  3.0800000000000D+00  0.0000000000000D+00  0.0000000000000D+00
310  3.0900000000000D+00  0.0000000000000D+00  0.0000000000000D+00
311  3.1000000000000D+00  0.0000000000000D+00  0.0000000000000D+00
312  3.1100000000000D+00  0.0000000000000D+00  0.0000000000000D+00
313  3.1200000000000D+00  0.0000000000000D+00  0.0000000000000D+00
314  3.1300000000000D+00  0.0000000000000D+00  0.0000000000000D+00
315  3.1400000000000D+00  0.0000000000000D+00  0.0000000000000D+00
316  3.1500000000000D+00  0.0000000000000D+00  0.0000000000000D+00
317  3.1600000000000D+00  0.0000000000000D+00  0.0000000000000D+00
318  3.1700000000000D+00  0.0000000000000D+00  0.0000000000000D+00
319  3.1800000000000D+00  0.0000000000000D+00  0.0000000000000D+00
320  3.1900000000000D+00  0.0000000000000D+00  0.0000000000000D+00
321  3.2000000000000D+00  0.0000000000000D+00  0.0000000000000D+00
322  3.2100000000000D+00  0.0000000000000D+00  0.0000000000000D+00
323  3.2200000000000D+00  0.0000000000000D+00  0.0000000000000D+00
324  3.2300000000000D+00  0.0000000000000D+00  0.0000000000000D+00
325  3.2400000000000D+00  0.0000000000000D+00  0.0000000000000D+00
326  3.2500000000000D+00  0.0000000000000D+00  0.0000000000000D+00
327  3.2600000000000D+00  0.0000000000000D+00  0.0000000000000D+00
328  3.2700000000000D+00  0.0000000000000D+00  0.0000000000000D+00
329  3.2800000000000D+00  0.0000000000000D+00  0.0000000000000D+00
330  3.2900000000000D+00  0.0000000000000D+00  0.0000000000000D+00
331  3.3000000000000D+00  0.0000000000000D+00  0.0000000000000D+00
332  3.3100000000000D+00  0.0000000000000D+00  0.0000000000000D+00
333  3.3200000000000D+00  0.0000000000000D+00  0.0000000000000D+00
334  3.3300000000000D+00  0.0000000000000D+00  0.0000000000000D+00
335  3.3400000000000D+00  0.0000000000000D+00  0.0000000000000D+00
336  3.3500000000000D+00  0.0000000000000D+00  0.0000000000000D+00
337  3.3600000000000D+00  0.0000000000000D+00  0.0000000000000D+00
338  3.3700000000000D+00  0.0000000000000D+00  0.0000000000000D+00
339  3.3800000000000D+00  0.0000000000000D+00  0.0000000000000D+00
340  3.3900000000000D+00  0.0000000000000D+00  0.0000000000000D+00
341  3.4000000000000D+00  0.0000000000000D+00  0.0000000000000D+00
342  3.4100000000000D+00  0.0000000000000D+00  0.0000000000000D+00
343  3.4200000000000D+00  0.0000000000000D+00  0.0000000000000D+00
344  3.4300000000000D+00  0.0000000000000D+00  0.0000000000000D+00
345  3.4400000000000D+00  0.0000000000000D+00  0.0000000000000D+00
346  3.4500000000000D+00  0.0000000000000D+00  0.0000000000000D+00
347  3.4600000000000D+00  0.0000000000000D+00  0.0000000000000D+00
348  3.4700000000000D+00  0.0000000000000D+00  0.0000000000000D+00
349  3.4800000000000D+00  0.0000000000000D+00  0.0000000000000D+00
350  3.4900000000000D+00  0.0000000000000D+00  0.0000000000000D+00
351  3.5000000000000D+00  0.0000000000000D+00  0.0000000000000D+00
352  3.5100000000000D+00  0.0000000000000D+00  0.0000000000000D+00
353  3.5200000000000D+00  0.0000000000000D+00  0.0000000000000D+00
354  3.5300000000000D+00  0.0000000000000D+00  0.0000000000000D+00
355  3.5400000000000D+00  0.0000000000000D+00  0.0000000000000D+00
356  3.5500000000000D+00  0.0000000000000D+00  0.0000000000000D+00
357  3.5600000000000D+00  0.0000000000000D+00  0.0000000000000D+00
358  3.5700000000000D+00  0.0000000000000D+00  0.0000000000000D+00
359  3.5800000000000D+00  0.0000000000000D+00  0.0000000000000D+00
360  3.5900000000000D+00  0.0000000000000D+00  0.0000000000000D+00
361  3.6000000000000D+00  0.0000000000000D+00  0.0000000000000D+00
362  3.6100000000000D+00  0.0000000000000D+00  0.0000000000000D+00
363  3.6200000000000D+00  0.0000000000000D+00  0.0000000000000D+00
364  3.6300000000000D+00  0.0000000000000D+00  0.0000000000000D+00
365  3.6400000000000D+00  0.0000000000000D+00  0.0000000000000D+00
366  3.6500000000000D+00  0.0000000000000D+00  0.0000000000000D+00
367  3.6600000000000D+00  0.0000000000000D+00  0.0000000000000D+00
368  3.6700000000000D+00  0.0000000000000D+00  0.0000000000000D+00
369  3.6800000000000D+00  0.0000000000000D+00  0.0000000000000D+00
370  3.6900000000000D+00  0.0000000000000D+00  0.0000000000000D+00
371  3.7000000000000D+00  0.0000000000000D+00  0.0000000000000D+00
372  3.7100000000000D+00  0.0000000000000D+00  0.0000000000000D+00
373  3.7200000000000D+00  0.0000000000000D+00  0.0000000000000D+00
374  3.7300000000000D+00  0.0000000000000D+00  0.0000000000000D+00
375  3.7400000000000D+00  0.0000000000000D+00  0.0000000000000D+00
376  3.7500000000000D+00  0.0000000000000D+00  0.0000000000000D+00
377  3.7600000000000D+00  0.0000000000000D+00  0.0000000000000D+00
378  3.7700000000000D+00  0.0000000000000D+00  0.0000000000000D+00
379  3.7800000000000D+00  0.0000000000000D+00  0.0000000000000D+00
380  3.7900000000000D+00  0.0000000000000D+00  0.0000000000000D+00
381  3.8000000000000D+00  0.0000000000000D+00  0.0000000000000D+00
382  3.8100000000000D+00  0.0000000000000D+00  0.0000000000000D+00
383  3.8200000000000D+00  0.0000000000000D+00  0.0000000000000D+00
384  3.8300000000000D+00  0.0000000000000D+00  0.0000000000000D+00
385  3.8400000000000D+00  0.0000000000000D+00  0.0000000000000D+00
386  3.8500000000000D+00  0.0000000000000D+00  0.0000000000000D+00
387  3.8600000000000D+00  0.0000000000000D+00  0.0000000000000D+00
388  3.8700000000000D+00  0.0000000000000D+00  0.0000000000000D+00
389  3.8800000000000D+00  0.0000000000000D+00  0.0000000000000D+00
390  3.8900000000000D+00  0.0000000000000D+00  0.0000000000000D+00
391  3.9000000000000D+00  0.0000000000000D+00  0.0000000000000D+00
392  3.9100000000000D+00  0.0000000000000D+00  0.0000000000000D+00
393  3.9200000000000D+00  0.0000000000000D+00  0.0000000000000D+00
394  3.9300000000000D+00  0.0000000000000D+00  0.0000000000000D+00
395  3.9400000000000D+00  0.0000000000000D+00  0.0000000000000D+00
396  3.9500000000000D+00  0.0000000000000D+00  0.0000000000000D+00
397  3.9600000000000D+00  0.0000000000000D+00  0.0000000000000D+00
398  3.9700000000000D+00  0.0000000000000D+00  0.0000000000000D+00
399  3.9800000000000D+00  0.0000000000000D+00  0.0000000000000D+00
400  3.9900000000000D+00  0.0000000000000D+00  0.0000000000000D+00
401  4.0000000000000D+00  0.0000000000000D+00  0.0000000000000D+00
402  4.0100000000000D+00  0.0000000000000D+00  0.0000000000000D+00
403  4.0200000000000D+00  0.0000000000000D+00  0.0000000000000D+00
404  4.0300000000000D+00  0.0000000000000D+00  0.0000000000000D+00
405  4.0400000000000D+00  0.0000000000000D+00  0.0000000000000D+00
406  4.0500000000000D+00  0.0000000000000D+00  0.0000000000000D+00
407  4.0600000000000D+00  0.0000000000000D+00  0.0000000000000D+00
408  4.0700000000000D+00  0.0000000000000D+00  0.0000000000000D+00
409  4.0800000000000D+00  0.0000000000000D+00  0.0000000000000D+00
410  4.0900000000000D+00  0.0000000000000D+00  0.0000000000000D+00
411  4.1000000000000D+00  0.0000000000000D+00  0.0000000000000D+00
412  4.1100000000000D+00  0.0000000000000D+00  0.0000000000000D+00
413  4.1200000000000D+00  0.0000000000000D+00  0.0000000000000D+00
414  4.1300000000000D+00  0.0000000000000D+00  0.0000000000000D+00
415  4.1400000000000D+00  0.0000000000000D+00  0.0000000000000D+00
416  4.1500000000000D+00  0.0000000000000D+00  0.0000000000000D+00
417  4.1600000000000D+00  0.0000000000000D+00  0.0000000000000D+00
418  4.1700000000000D+00  0.0000000000000D+00  0.0000000000000D+00
419  4.1800000000000D+00  0.0000000000000D+00  0.0000000000000D+00
420  4.1900000000000D+00  0.0000000000000D+00  0.0000000000000D+00
421  4.2000000000000D+00  0.0000000000000D+00  0.0000000000000D+00
422  4.2100000000000D+00  0.0000000000000D+00  0.0000000000000D+00
423  4.2200000000000D+00  0.0000000000000D+00  0.0000000000000D+00
424  4.2300000000000D+00  0.0000000000000D+00  0.0000000000000D+00
425  4.2400000000000D+00  0.0000000000000D+00  0.0000000000000D+00
426  4.2500000000000D+00  0.0000000000000D+00  0.0000000000000D+00
427  4.2600000000000D+00  0.0000000000000D+00  0.0000000000000D+00
428  4.2700000000000D+00  0.0000000000000D+00  0.0000000000000D+00
429  4.2800000000000D+00  0.0000000000000D+00  0.0000000000000D+00
430  4.2900000000000D+00  0.0000000000000D+00  0.0000000000000D+00
431  4.3000000000000D+00  0.0000000000000D+00  0.0000000000000D+00
432  4.3100000000000D+00  0.0000000000000D+00  0.0000000000000D+00
433  4.3200000000000D+00  0.0000000000000D+00  0.0000000000000D+00
434  4.3300000000000D+00  0.0000000000000D+00  0.0000000000000D+00
435  4.3400000000000D+00  0.0000000000000D+00  0.0000000000000D+00
436  4.3500000000000D+00  0.0000000000000D+00  0.0000000000000D+00
437  4.3600000000000D+00  0.0000000000000D+00  0.0000000000000D+00
438  4.3700000000000D+00  0.0000000000000D+00  0.0000000000000D+00
439  4.3800000000000D+00  0.0000000000000D+00  0.0000000000000D+00
440  4.3900000000000D+00  0.0000000000000D+00  0.0000000000000D+00
441  4.4000000000000D+00  0.0000000000000D+00  0.0000000000000D+00
442  4.4100000000000D+00  0.0000000000000D+00  0.0000000000000D+00
443  4.4200000000000D+00  0.0000000000000D+00  0.0000000000000D+00