Mn    ONCVPSP-3.2.3  r_core=   1.41250   1.20960   1.61055
25.0000     15.0000      161006    zatom,zion,pspd
8   -1012   2     4   600     0    pspcod,pspxc,lmax,lloc,mmax,r2well
5.99000000  4.00000000  0.00000000    rchrg fchrg qchrg
2     2     2     0     0    nproj
1     1           extension_switch
0                         9.3279826195261D+00  1.5196533072722D+00
1  0.0000000000000D+00  3.3147695699398D-10 -6.2768027060678D-10
2  1.0000000000000D-02  8.1649543145647D-02 -8.9555920650730D-04
3  2.0000000000000D-02  1.6312654408020D-01 -1.7840225146216D-03
4  3.0000000000000D-02  2.4425839279804D-01 -2.6573521302399D-03
5  4.0000000000000D-02  3.2487235040170D-01 -3.5056410594748D-03
6  5.0000000000000D-02  4.0479550131378D-01 -4.3162148272459D-03
7  6.0000000000000D-02  4.8385472524153D-01 -5.0727763298561D-03
8  7.0000000000000D-02  5.6187669508571D-01 -5.7546074568601D-03
9  8.0000000000000D-02  6.3868790665397D-01 -6.3358404898488D-03
10  9.0000000000000D-02  7.1411474563048D-01 -6.7848115117218D-03
11  1.0000000000000D-01  7.8798359677236D-01 -7.0635071473085D-03
12  1.1000000000000D-01  8.6012099975362D-01 -7.1271149127255D-03
13  1.2000000000000D-01  9.3035385546501D-01 -6.9236862866193D-03
14  1.3000000000000D-01  9.9850968590866D-01 -6.3939203423371D-03
15  1.4000000000000D-01  1.0644169501067D+00 -5.4710744077633D-03
16  1.5000000000000D-01  1.1279054176800D+00 -4.0810067623722D-03
17  1.6000000000000D-01  1.1888066009555D+00 -2.1423548527895D-03
18  1.7000000000000D-01  1.2469542456327D+00  4.3314907677100D-04
19  1.8000000000000D-01  1.3021848791991D+00  3.7402246685311D-03
20  1.9000000000000D-01  1.3543384154235D+00  7.8794538299984D-03
21  2.0000000000000D-01  1.4032588124052D+00  1.2956557847508D-02
22  2.1000000000000D-01  1.4487947808054D+00  1.9081545926160D-02
23  2.2000000000000D-01  1.4908005380545D+00  2.6367741474569D-02
24  2.3000000000000D-01  1.5291366035279D+00  3.4930694038202D-02
25  2.4000000000000D-01  1.5636706289051D+00  4.4886986311627D-02
26  2.5000000000000D-01  1.5942782572085D+00  5.6352947112341D-02
27  2.6000000000000D-01  1.6208440033365D+00  6.9443282559990D-02
28  2.7000000000000D-01  1.6432621482981D+00  8.4269638959844D-02
29  2.8000000000000D-01  1.6614376388073D+00  1.0093911202402D-01
30  2.9000000000000D-01  1.6752869834295D+00  1.1955271806372D-01
31  3.0000000000000D-01  1.6847391360826D+00  1.4020384363897D-01
32  3.1000000000000D-01  1.6897363573994D+00  1.6297669084639D-01
33  3.2000000000000D-01  1.6902350442520D+00  1.8794473595160D-01
34  3.3000000000000D-01  1.6862065176323D+00  2.1516921942142D-01
35  3.4000000000000D-01  1.6776377590780D+00  2.4469768557484D-01
36  3.5000000000000D-01  1.6645320859294D+00  2.7656259004684D-01
37  3.6000000000000D-01  1.6469097559107D+00  3.1077999303962D-01
38  3.7000000000000D-01  1.6248084918357D+00  3.4734835592259D-01
39  3.8000000000000D-01  1.5982839176554D+00  3.8624745813311D-01
40  3.9000000000000D-01  1.5674098975846D+00  4.2743745052904D-01
41  4.0000000000000D-01  1.5322787706650D+00  4.7085806035339D-01
42  4.1000000000000D-01  1.4930014738403D+00  5.1642796179956D-01
43  4.2000000000000D-01  1.4497075474316D+00  5.6404432481805D-01
44  4.3000000000000D-01  1.4025450177960D+00  6.1358255329482D-01
45  4.4000000000000D-01  1.3516801529311D+00  6.6489622206775D-01
46  4.5000000000000D-01  1.2972970878368D+00  7.1781722044606D-01
47  4.6000000000000D-01  1.2395973175552D+00  7.7215610797270D-01
48  4.7000000000000D-01  1.1787990569794D+00  8.2770268613921D-01
49  4.8000000000000D-01  1.1151364677244D+00  8.8422678764516D-01
50  4.9000000000000D-01  1.0488587535963D+00  9.4147928261034D-01
51  5.0000000000000D-01  9.8022912745392D-01  9.9919329891640D-01
52  5.1000000000000D-01  9.0952365352259D-01  1.0570856516018D+00
53  5.2000000000000D-01  8.3702997048233D-01  1.1148584739779D+00
54  5.3000000000000D-01  7.6304590189425D-01  1.1722010409022D+00
55  5.4000000000000D-01  6.8787796174235D-01  1.2287917724579D+00
56  5.5000000000000D-01  6.1183976403460D-01  1.2843004041718D+00
57  5.6000000000000D-01  5.3525034651826D-01  1.3383903078820D+00
58  5.7000000000000D-01  4.5843241960647D-01  1.3907209454554D+00
59  5.8000000000000D-01  3.8171055257106D-01  1.4409504357929D+00
60  5.9000000000000D-01  3.0540930992551D-01  1.4887382139471D+00
61  6.0000000000000D-01  2.2985135168169D-01  1.5337477597542D+00
62  6.1000000000000D-01  1.5535551181523D-01  1.5756493721495D+00
63  6.2000000000000D-01  8.2234869797631D-02  1.6141229643283D+00
64  6.3000000000000D-01  1.0794830449331D-02  1.6488608541258D+00
65  6.4000000000000D-01 -5.8668772376040D-02  1.6795705234593D+00
66  6.5000000000000D-01 -1.2587153265193D-01  1.7059773203857D+00
67  6.6000000000000D-01 -1.9054227399254D-01  1.7278270773114D+00
68  6.7000000000000D-01 -2.5242478101308D-01  1.7448886191363D+00
69  6.8000000000000D-01 -3.1127944516193D-01  1.7569561356287D+00
70  6.9000000000000D-01 -3.6688481043587D-01  1.7638513931199D+00
71  7.0000000000000D-01 -4.1903900502175D-01  1.7654257616549D+00
72  7.1000000000000D-01 -4.6756104568596D-01  1.7615620350587D+00
73  7.2000000000000D-01 -5.1229200264675D-01  1.7521760229350D+00
74  7.3000000000000D-01 -5.5309601371660D-01  1.7372178954278D+00
75  7.4000000000000D-01 -5.8986113767311D-01  1.7166732636056D+00
76  7.5000000000000D-01 -6.2250003810420D-01  1.6905639805670D+00
77  7.6000000000000D-01 -6.5095049036305D-01  1.6589486507941D+00
78  7.7000000000000D-01 -6.7517570574981D-01  1.6219228378722D+00
79  7.8000000000000D-01 -6.9516446859299D-01  1.5796189634272D+00
80  7.9000000000000D-01 -7.1093108352139D-01  1.5322058929757D+00
81  8.0000000000000D-01 -7.2251513188675D-01  1.4798882073215D+00
82  8.1000000000000D-01 -7.2998103798851D-01  1.4229051611139D+00
83  8.2000000000000D-01 -7.3341744746191D-01  1.3615293332014D+00
84  8.3000000000000D-01 -7.3293642189405D-01  1.2960649764163D+00
85  8.4000000000000D-01 -7.2867245541396D-01  1.2268460773983D+00
86  8.5000000000000D-01 -7.2078132064467D-01  1.1542341399610D+00
87  8.6000000000000D-01 -7.0943875298982D-01  1.0786157082995D+00
88  8.7000000000000D-01 -6.9483898373792D-01  1.0003996489991D+00
89  8.8000000000000D-01 -6.7719313388700D-01  9.2001421330510D-01
90  8.9000000000000D-01 -6.5672748190583D-01  8.3790390341326D-01
91  9.0000000000000D-01 -6.3368161983974D-01  7.5452616863161D-01
92  9.1000000000000D-01 -6.0830651322623D-01  6.7034795909982D-01
93  9.2000000000000D-01 -5.8086248119538D-01  5.8584216632772D-01
94  9.3000000000000D-01 -5.5161711388156D-01  5.0148398109898D-01
95  9.4000000000000D-01 -5.2084314485751D-01  4.1774720026766D-01
96  9.5000000000000D-01 -4.8881629670854D-01  3.3510051463325D-01
97  9.6000000000000D-01 -4.5581311809550D-01  2.5400381041948D-01
98  9.7000000000000D-01 -4.2210883069708D-01  1.7490451687507D-01
99  9.8000000000000D-01 -3.8797520427768D-01  9.8234032172041D-02
100  9.9000000000000D-01 -3.5367847779789D-01  2.4404259096484D-02
101  1.0000000000000D+00 -3.1947734396994D-01 -4.6195718990377D-02
102  1.0100000000000D+00 -2.8562101397106D-01 -1.1320279277742D-01
103  1.0200000000000D+00 -2.5234737813228D-01 -1.7628278478133D-01
104  1.0300000000000D+00 -2.1988127743948D-01 -2.3513318470258D-01
105  1.0400000000000D+00 -1.8843289944712D-01 -2.8948563911381D-01
106  1.0500000000000D+00 -1.5819631088356D-01 -3.3910817471341D-01
107  1.0600000000000D+00 -1.2934813777890D-01 -3.8380713708111D-01
108  1.0700000000000D+00 -1.0204640233813D-01 -4.2342882986896D-01
109  1.0800000000000D+00 -7.6429524111841D-02 -4.5786084246350D-01
110  1.0900000000000D+00 -5.2615491353311D-02 -4.8703305723952D-01
111  1.1000000000000D+00 -3.0701206447567D-02 -5.1091833122977D-01
112  1.1100000000000D+00 -1.0762007611293D-02 -5.2953285014772D-01
113  1.1200000000000D+00  7.1486330329354D-03 -5.4293615655778D-01
114  1.1300000000000D+00  2.2999236419443D-02 -5.5123085677246D-01
115  1.1400000000000D+00  3.6780272253686D-02 -5.5456201527916D-01
116  1.1500000000000D+00  4.8503948741213D-02 -5.5311624832924D-01
117  1.1600000000000D+00  5.8203843609366D-02 -5.4712053199276D-01
118  1.1700000000000D+00  6.5934386774444D-02 -5.3684074669866D-01
119  1.1800000000000D+00  7.1770193299884D-02 -5.2257995057115D-01
120  1.1900000000000D+00  7.5805310980402D-02 -5.0467653108668D-01
121  1.2000000000000D+00  7.8152131605303D-02 -4.8350162920048D-01
122  1.2100000000000D+00  7.8940991487483D-02 -4.5945829132672D-01
123  1.2200000000000D+00  7.8317727663971D-02 -4.3297575118939D-01
124  1.2300000000000D+00  7.6439041348477D-02 -4.0449850763771D-01
125  1.2400000000000D+00  7.3467491503439D-02 -3.7447497623023D-01
126  1.2500000000000D+00  6.9568445040736D-02 -3.4335103584005D-01
127  1.2600000000000D+00  6.4908707776265D-02 -3.1156776652542D-01
128  1.2700000000000D+00  5.9654388265850D-02 -2.7955727992847D-01
129  1.2800000000000D+00  5.3969032757290D-02 -2.4773922285265D-01
130  1.2900000000000D+00  4.8011752472506D-02 -2.1651724394975D-01
131  1.3000000000000D+00  4.1935430696920D-02 -1.8627562993136D-01
132  1.3100000000000D+00  3.5885009219995D-02 -1.5737609950295D-01
133  1.3200000000000D+00  2.9995872264913D-02 -1.3015479004876D-01
134  1.3300000000000D+00  2.4392344084807D-02 -1.0491946682615D-01
135  1.3400000000000D+00  1.9186313662289D-02 -8.1946979375094D-02
136  1.3500000000000D+00  1.4475998871991D-02 -6.1480987850711D-02
137  1.3600000000000D+00  1.0344863318239D-02 -4.3729983569365D-02
138  1.3700000000000D+00  6.8630213016684D-03 -2.8875188179608D-02
139  1.3800000000000D+00  4.0727607134460D-03 -1.7013165175048D-02
140  1.3900000000000D+00  2.0060791430539D-03 -8.2299765869330D-03
141  1.4000000000000D+00  7.5284340086715D-04 -2.8605527776642D-03
142  1.4100000000000D+00  2.0453970945242D-04 -5.0991671069776D-04
143  1.4200000000000D+00  2.9298701285815D-05  7.4171152043859D-05
144  1.4300000000000D+00 -1.4072622607816D-07 -5.0452379664828D-06
145  1.4400000000000D+00  1.5790494726359D-06 -3.8211232584293D-05
146  1.4500000000000D+00  3.4601651717962D-07  4.0238527853176D-06
147  1.4600000000000D+00  1.8100341221620D-07  4.2228955363228D-06
148  1.4700000000000D+00 -3.6599807439195D-07  6.6088055976552D-07
149  1.4800000000000D+00 -1.0137459119999D-07  1.8305150017403D-07
150  1.4900000000000D+00  0.0000000000000D+00  0.0000000000000D+00
151  1.5000000000000D+00  0.0000000000000D+00  0.0000000000000D+00
152  1.5100000000000D+00  0.0000000000000D+00  0.0000000000000D+00
153  1.5200000000000D+00  0.0000000000000D+00  0.0000000000000D+00
154  1.5300000000000D+00  0.0000000000000D+00  0.0000000000000D+00
155  1.5400000000000D+00  0.0000000000000D+00  0.0000000000000D+00
156  1.5500000000000D+00  0.0000000000000D+00  0.0000000000000D+00
157  1.5600000000000D+00  0.0000000000000D+00  0.0000000000000D+00
158  1.5700000000000D+00  0.0000000000000D+00  0.0000000000000D+00
159  1.5800000000000D+00  0.0000000000000D+00  0.0000000000000D+00
160  1.5900000000000D+00  0.0000000000000D+00  0.0000000000000D+00
161  1.6000000000000D+00  0.0000000000000D+00  0.0000000000000D+00
162  1.6100000000000D+00  0.0000000000000D+00  0.0000000000000D+00
163  1.6200000000000D+00  0.0000000000000D+00  0.0000000000000D+00
164  1.6300000000000D+00  0.0000000000000D+00  0.0000000000000D+00
165  1.6400000000000D+00  0.0000000000000D+00  0.0000000000000D+00
166  1.6500000000000D+00  0.0000000000000D+00  0.0000000000000D+00
167  1.6600000000000D+00  0.0000000000000D+00  0.0000000000000D+00
168  1.6700000000000D+00  0.0000000000000D+00  0.0000000000000D+00
169  1.6800000000000D+00  0.0000000000000D+00  0.0000000000000D+00
170  1.6900000000000D+00  0.0000000000000D+00  0.0000000000000D+00
171  1.7000000000000D+00  0.0000000000000D+00  0.0000000000000D+00
172  1.7100000000000D+00  0.0000000000000D+00  0.0000000000000D+00
173  1.7200000000000D+00  0.0000000000000D+00  0.0000000000000D+00
174  1.7300000000000D+00  0.0000000000000D+00  0.0000000000000D+00
175  1.7400000000000D+00  0.0000000000000D+00  0.0000000000000D+00
176  1.7500000000000D+00  0.0000000000000D+00  0.0000000000000D+00
177  1.7600000000000D+00  0.0000000000000D+00  0.0000000000000D+00
178  1.7700000000000D+00  0.0000000000000D+00  0.0000000000000D+00
179  1.7800000000000D+00  0.0000000000000D+00  0.0000000000000D+00
180  1.7900000000000D+00  0.0000000000000D+00  0.0000000000000D+00
181  1.8000000000000D+00  0.0000000000000D+00  0.0000000000000D+00
182  1.8100000000000D+00  0.0000000000000D+00  0.0000000000000D+00
183  1.8200000000000D+00  0.0000000000000D+00  0.0000000000000D+00
184  1.8300000000000D+00  0.0000000000000D+00  0.0000000000000D+00
185  1.8400000000000D+00  0.0000000000000D+00  0.0000000000000D+00
186  1.8500000000000D+00  0.0000000000000D+00  0.0000000000000D+00
187  1.8600000000000D+00  0.0000000000000D+00  0.0000000000000D+00
188  1.8700000000000D+00  0.0000000000000D+00  0.0000000000000D+00
189  1.8800000000000D+00  0.0000000000000D+00  0.0000000000000D+00
190  1.8900000000000D+00  0.0000000000000D+00  0.0000000000000D+00
191  1.9000000000000D+00  0.0000000000000D+00  0.0000000000000D+00
192  1.9100000000000D+00  0.0000000000000D+00  0.0000000000000D+00
193  1.9200000000000D+00  0.0000000000000D+00  0.0000000000000D+00
194  1.9300000000000D+00  0.0000000000000D+00  0.0000000000000D+00
195  1.9400000000000D+00  0.0000000000000D+00  0.0000000000000D+00
196  1.9500000000000D+00  0.0000000000000D+00  0.0000000000000D+00
197  1.9600000000000D+00  0.0000000000000D+00  0.0000000000000D+00
198  1.9700000000000D+00  0.0000000000000D+00  0.0000000000000D+00
199  1.9800000000000D+00  0.0000000000000D+00  0.0000000000000D+00
200  1.9900000000000D+00  0.0000000000000D+00  0.0000000000000D+00
201  2.0000000000000D+00  0.0000000000000D+00  0.0000000000000D+00
202  2.0100000000000D+00  0.0000000000000D+00  0.0000000000000D+00
203  2.0200000000000D+00  0.0000000000000D+00  0.0000000000000D+00
204  2.0300000000000D+00  0.0000000000000D+00  0.0000000000000D+00
205  2.0400000000000D+00  0.0000000000000D+00  0.0000000000000D+00
206  2.0500000000000D+00  0.0000000000000D+00  0.0000000000000D+00
207  2.0600000000000D+00  0.0000000000000D+00  0.0000000000000D+00
208  2.0700000000000D+00  0.0000000000000D+00  0.0000000000000D+00
209  2.0800000000000D+00  0.0000000000000D+00  0.0000000000000D+00
210  2.0900000000000D+00  0.0000000000000D+00  0.0000000000000D+00
211  2.1000000000000D+00  0.0000000000000D+00  0.0000000000000D+00
212  2.1100000000000D+00  0.0000000000000D+00  0.0000000000000D+00
213  2.1200000000000D+00  0.0000000000000D+00  0.0000000000000D+00
214  2.1300000000000D+00  0.0000000000000D+00  0.0000000000000D+00
215  2.1400000000000D+00  0.0000000000000D+00  0.0000000000000D+00
216  2.1500000000000D+00  0.0000000000000D+00  0.0000000000000D+00
217  2.1600000000000D+00  0.0000000000000D+00  0.0000000000000D+00
218  2.1700000000000D+00  0.0000000000000D+00  0.0000000000000D+00
219  2.1800000000000D+00  0.0000000000000D+00  0.0000000000000D+00
220  2.1900000000000D+00  0.0000000000000D+00  0.0000000000000D+00
221  2.2000000000000D+00  0.0000000000000D+00  0.0000000000000D+00
222  2.2100000000000D+00  0.0000000000000D+00  0.0000000000000D+00
223  2.2200000000000D+00  0.0000000000000D+00  0.0000000000000D+00
224  2.2300000000000D+00  0.0000000000000D+00  0.0000000000000D+00
225  2.2400000000000D+00  0.0000000000000D+00  0.0000000000000D+00
226  2.2500000000000D+00  0.0000000000000D+00  0.0000000000000D+00
227  2.2600000000000D+00  0.0000000000000D+00  0.0000000000000D+00
228  2.2700000000000D+00  0.0000000000000D+00  0.0000000000000D+00
229  2.2800000000000D+00  0.0000000000000D+00  0.0000000000000D+00
230  2.2900000000000D+00  0.0000000000000D+00  0.0000000000000D+00
231  2.3000000000000D+00  0.0000000000000D+00  0.0000000000000D+00
232  2.3100000000000D+00  0.0000000000000D+00  0.0000000000000D+00
233  2.3200000000000D+00  0.0000000000000D+00  0.0000000000000D+00
234  2.3300000000000D+00  0.0000000000000D+00  0.0000000000000D+00
235  2.3400000000000D+00  0.0000000000000D+00  0.0000000000000D+00
236  2.3500000000000D+00  0.0000000000000D+00  0.0000000000000D+00
237  2.3600000000000D+00  0.0000000000000D+00  0.0000000000000D+00
238  2.3700000000000D+00  0.0000000000000D+00  0.0000000000000D+00
239  2.3800000000000D+00  0.0000000000000D+00  0.0000000000000D+00
240  2.3900000000000D+00  0.0000000000000D+00  0.0000000000000D+00
241  2.4000000000000D+00  0.0000000000000D+00  0.0000000000000D+00
242  2.4100000000000D+00  0.0000000000000D+00  0.0000000000000D+00
243  2.4200000000000D+00  0.0000000000000D+00  0.0000000000000D+00
244  2.4300000000000D+00  0.0000000000000D+00  0.0000000000000D+00
245  2.4400000000000D+00  0.0000000000000D+00  0.0000000000000D+00
246  2.4500000000000D+00  0.0000000000000D+00  0.0000000000000D+00
247  2.4600000000000D+00  0.0000000000000D+00  0.0000000000000D+00
248  2.4700000000000D+00  0.0000000000000D+00  0.0000000000000D+00
249  2.4800000000000D+00  0.0000000000000D+00  0.0000000000000D+00
250  2.4900000000000D+00  0.0000000000000D+00  0.0000000000000D+00
251  2.5000000000000D+00  0.0000000000000D+00  0.0000000000000D+00
252  2.5100000000000D+00  0.0000000000000D+00  0.0000000000000D+00
253  2.5200000000000D+00  0.0000000000000D+00  0.0000000000000D+00
254  2.5300000000000D+00  0.0000000000000D+00  0.0000000000000D+00
255  2.5400000000000D+00  0.0000000000000D+00  0.0000000000000D+00
256  2.5500000000000D+00  0.0000000000000D+00  0.0000000000000D+00
257  2.5600000000000D+00  0.0000000000000D+00  0.0000000000000D+00
258  2.5700000000000D+00  0.0000000000000D+00  0.0000000000000D+00
259  2.5800000000000D+00  0.0000000000000D+00  0.0000000000000D+00
260  2.5900000000000D+00  0.0000000000000D+00  0.0000000000000D+00
261  2.6000000000000D+00  0.0000000000000D+00  0.0000000000000D+00
262  2.6100000000000D+00  0.0000000000000D+00  0.0000000000000D+00
263  2.6200000000000D+00  0.0000000000000D+00  0.0000000000000D+00
264  2.6300000000000D+00  0.0000000000000D+00  0.0000000000000D+00
265  2.6400000000000D+00  0.0000000000000D+00  0.0000000000000D+00
266  2.6500000000000D+00  0.0000000000000D+00  0.0000000000000D+00
267  2.6600000000000D+00  0.0000000000000D+00  0.0000000000000D+00
268  2.6700000000000D+00  0.0000000000000D+00  0.0000000000000D+00
269  2.6800000000000D+00  0.0000000000000D+00  0.0000000000000D+00
270  2.6900000000000D+00  0.0000000000000D+00  0.0000000000000D+00
271  2.7000000000000D+00  0.0000000000000D+00  0.0000000000000D+00
272  2.7100000000000D+00  0.0000000000000D+00  0.0000000000000D+00
273  2.7200000000000D+00  0.0000000000000D+00  0.0000000000000D+00
274  2.7300000000000D+00  0.0000000000000D+00  0.0000000000000D+00
275  2.7400000000000D+00  0.0000000000000D+00  0.0000000000000D+00
276  2.7500000000000D+00  0.0000000000000D+00  0.0000000000000D+00
277  2.7600000000000D+00  0.0000000000000D+00  0.0000000000000D+00
278  2.7700000000000D+00  0.0000000000000D+00  0.0000000000000D+00
279  2.7800000000000D+00  0.0000000000000D+00  0.0000000000000D+00
280  2.7900000000000D+00  0.0000000000000D+00  0.0000000000000D+00
281  2.8000000000000D+00  0.0000000000000D+00  0.0000000000000D+00
282  2.8100000000000D+00  0.0000000000000D+00  0.0000000000000D+00
283  2.8200000000000D+00  0.0000000000000D+00  0.0000000000000D+00
284  2.8300000000000D+00  0.0000000000000D+00  0.0000000000000D+00
285  2.8400000000000D+00  0.0000000000000D+00  0.0000000000000D+00
286  2.8500000000000D+00  0.0000000000000D+00  0.0000000000000D+00
287  2.8600000000000D+00  0.0000000000000D+00  0.0000000000000D+00
288  2.8700000000000D+00  0.0000000000000D+00  0.0000000000000D+00
289  2.8800000000000D+00  0.0000000000000D+00  0.0000000000000D+00
290  2.8900000000000D+00  0.0000000000000D+00  0.0000000000000D+00
291  2.9000000000000D+00  0.0000000000000D+00  0.0000000000000D+00
292  2.9100000000000D+00  0.0000000000000D+00  0.0000000000000D+00
293  2.9200000000000D+00  0.0000000000000D+00  0.0000000000000D+00
294  2.9300000000000D+00  0.0000000000000D+00  0.0000000000000D+00
295  2.9400000000000D+00  0.0000000000000D+00  0.0000000000000D+00
296  2.9500000000000D+00  0.0000000000000D+00  0.0000000000000D+00
297  2.9600000000000D+00  0.0000000000000D+00  0.0000000000000D+00
298  2.9700000000000D+00  0.0000000000000D+00  0.0000000000000D+00
299  2.9800000000000D+00  0.0000000000000D+00  0.0000000000000D+00
300  2.9900000000000D+00  0.0000000000000D+00  0.0000000000000D+00
301  3.0000000000000D+00  0.0000000000000D+00  0.0000000000000D+00
302  3.0100000000000D+00  0.0000000000000D+00  0.0000000000000D+00
303  3.0200000000000D+00  0.0000000000000D+00  0.0000000000000D+00
304  3.0300000000000D+00  0.0000000000000D+00  0.0000000000000D+00
305  3.0400000000000D+00  0.0000000000000D+00  0.0000000000000D+00
306  3.0500000000000D+00  0.0000000000000D+00  0.0000000000000D+00
307  3.0600000000000D+00  0.0000000000000D+00  0.0000000000000D+00
308  3.0700000000000D+00  0.0000000000000D+00  0.0000000000000D+00
309  3.0800000000000D+00  0.0000000000000D+00  0.0000000000000D+00
310  3.0900000000000D+00  0.0000000000000D+00  0.0000000000000D+00
311  3.1000000000000D+00  0.0000000000000D+00  0.0000000000000D+00
312  3.1100000000000D+00  0.0000000000000D+00  0.0000000000000D+00
313  3.1200000000000D+00  0.0000000000000D+00  0.0000000000000D+00
314  3.1300000000000D+00  0.0000000000000D+00  0.0000000000000D+00
315  3.1400000000000D+00  0.0000000000000D+00  0.0000000000000D+00
316  3.1500000000000D+00  0.0000000000000D+00  0.0000000000000D+00
317  3.1600000000000D+00  0.0000000000000D+00  0.0000000000000D+00
318  3.1700000000000D+00  0.0000000000000D+00  0.0000000000000D+00
319  3.1800000000000D+00  0.0000000000000D+00  0.0000000000000D+00
320  3.1900000000000D+00  0.0000000000000D+00  0.0000000000000D+00
321  3.2000000000000D+00  0.0000000000000D+00  0.0000000000000D+00
322  3.2100000000000D+00  0.0000000000000D+00  0.0000000000000D+00
323  3.2200000000000D+00  0.0000000000000D+00  0.0000000000000D+00
324  3.2300000000000D+00  0.0000000000000D+00  0.0000000000000D+00
325  3.2400000000000D+00  0.0000000000000D+00  0.0000000000000D+00
326  3.2500000000000D+00  0.0000000000000D+00  0.0000000000000D+00
327  3.2600000000000D+00  0.0000000000000D+00  0.0000000000000D+00
328  3.2700000000000D+00  0.0000000000000D+00  0.0000000000000D+00
329  3.2800000000000D+00  0.0000000000000D+00  0.0000000000000D+00
330  3.2900000000000D+00  0.0000000000000D+00  0.0000000000000D+00
331  3.3000000000000D+00  0.0000000000000D+00  0.0000000000000D+00
332  3.3100000000000D+00  0.0000000000000D+00  0.0000000000000D+00
333  3.3200000000000D+00  0.0000000000000D+00  0.0000000000000D+00
334  3.3300000000000D+00  0.0000000000000D+00  0.0000000000000D+00
335  3.3400000000000D+00  0.0000000000000D+00  0.0000000000000D+00
336  3.3500000000000D+00  0.0000000000000D+00  0.0000000000000D+00
337  3.3600000000000D+00  0.0000000000000D+00  0.0000000000000D+00
338  3.3700000000000D+00  0.0000000000000D+00  0.0000000000000D+00
339  3.3800000000000D+00  0.0000000000000D+00  0.0000000000000D+00
340  3.3900000000000D+00  0.0000000000000D+00  0.0000000000000D+00
341  3.4000000000000D+00  0.0000000000000D+00  0.0000000000000D+00
342  3.4100000000000D+00  0.0000000000000D+00  0.0000000000000D+00
343  3.4200000000000D+00  0.0000000000000D+00  0.0000000000000D+00
344  3.4300000000000D+00  0.0000000000000D+00  0.0000000000000D+00
345  3.4400000000000D+00  0.0000000000000D+00  0.0000000000000D+00
346  3.4500000000000D+00  0.0000000000000D+00  0.0000000000000D+00
347  3.4600000000000D+00  0.0000000000000D+00  0.0000000000000D+00
348  3.4700000000000D+00  0.0000000000000D+00  0.0000000000000D+00
349  3.4800000000000D+00  0.0000000000000D+00  0.0000000000000D+00
350  3.4900000000000D+00  0.0000000000000D+00  0.0000000000000D+00
351  3.5000000000000D+00  0.0000000000000D+00  0.0000000000000D+00
352  3.5100000000000D+00  0.0000000000000D+00  0.0000000000000D+00
353  3.5200000000000D+00  0.0000000000000D+00  0.0000000000000D+00
354  3.5300000000000D+00  0.0000000000000D+00  0.0000000000000D+00
355  3.5400000000000D+00  0.0000000000000D+00  0.0000000000000D+00
356  3.5500000000000D+00  0.0000000000000D+00  0.0000000000000D+00
357  3.5600000000000D+00  0.0000000000000D+00  0.0000000000000D+00
358  3.5700000000000D+00  0.0000000000000D+00  0.0000000000000D+00
359  3.5800000000000D+00  0.0000000000000D+00  0.0000000000000D+00
360  3.5900000000000D+00  0.0000000000000D+00  0.0000000000000D+00
361  3.6000000000000D+00  0.0000000000000D+00  0.0000000000000D+00
362  3.6100000000000D+00  0.0000000000000D+00  0.0000000000000D+00
363  3.6200000000000D+00  0.0000000000000D+00  0.0000000000000D+00
364  3.6300000000000D+00  0.0000000000000D+00  0.0000000000000D+00
365  3.6400000000000D+00  0.0000000000000D+00  0.0000000000000D+00
366  3.6500000000000D+00  0.0000000000000D+00  0.0000000000000D+00
367  3.6600000000000D+00  0.0000000000000D+00  0.0000000000000D+00
368  3.6700000000000D+00  0.0000000000000D+00  0.0000000000000D+00
369  3.6800000000000D+00  0.0000000000000D+00  0.0000000000000D+00
370  3.6900000000000D+00  0.0000000000000D+00  0.0000000000000D+00
371  3.7000000000000D+00  0.0000000000000D+00  0.0000000000000D+00
372  3.7100000000000D+00  0.0000000000000D+00  0.0000000000000D+00
373  3.7200000000000D+00  0.0000000000000D+00  0.0000000000000D+00
374  3.7300000000000D+00  0.0000000000000D+00  0.0000000000000D+00
375  3.7400000000000D+00  0.0000000000000D+00  0.0000000000000D+00
376  3.7500000000000D+00  0.0000000000000D+00  0.0000000000000D+00
377  3.7600000000000D+00  0.0000000000000D+00  0.0000000000000D+00
378  3.7700000000000D+00  0.0000000000000D+00  0.0000000000000D+00
379  3.7800000000000D+00  0.0000000000000D+00  0.0000000000000D+00
380  3.7900000000000D+00  0.0000000000000D+00  0.0000000000000D+00
381  3.8000000000000D+00  0.0000000000000D+00  0.0000000000000D+00
382  3.8100000000000D+00  0.0000000000000D+00  0.0000000000000D+00
383  3.8200000000000D+00  0.0000000000000D+00  0.0000000000000D+00
384  3.8300000000000D+00  0.0000000000000D+00  0.0000000000000D+00
385  3.8400000000000D+00  0.0000000000000D+00  0.0000000000000D+00
386  3.8500000000000D+00  0.0000000000000D+00  0.0000000000000D+00
387  3.8600000000000D+00  0.0000000000000D+00  0.0000000000000D+00
388  3.8700000000000D+00  0.0000000000000D+00  0.0000000000000D+00
389  3.8800000000000D+00  0.0000000000000D+00  0.0000000000000D+00
390  3.8900000000000D+00  0.0000000000000D+00  0.0000000000000D+00
391  3.9000000000000D+00  0.0000000000000D+00  0.0000000000000D+00
392  3.9100000000000D+00  0.0000000000000D+00  0.0000000000000D+00
393  3.9200000000000D+00  0.0000000000000D+00  0.0000000000000D+00
394  3.9300000000000D+00  0.0000000000000D+00  0.0000000000000D+00
395  3.9400000000000D+00  0.0000000000000D+00  0.0000000000000D+00
396  3.9500000000000D+00  0.0000000000000D+00  0.0000000000000D+00
397  3.9600000000000D+00  0.0000000000000D+00  0.0000000000000D+00
398  3.9700000000000D+00  0.0000000000000D+00  0.0000000000000D+00
399  3.9800000000000D+00  0.0000000000000D+00  0.0000000000000D+00
400  3.9900000000000D+00  0.0000000000000D+00  0.0000000000000D+00
401  4.0000000000000D+00  0.0000000000000D+00  0.0000000000000D+00
402  4.0100000000000D+00  0.0000000000000D+00  0.0000000000000D+00
403  4.0200000000000D+00  0.0000000000000D+00  0.0000000000000D+00
404  4.0300000000000D+00  0.0000000000000D+00  0.0000000000000D+00
405  4.0400000000000D+00  0.0000000000000D+00  0.0000000000000D+00
406  4.0500000000000D+00  0.0000000000000D+00  0.0000000000000D+00
407  4.0600000000000D+00  0.0000000000000D+00  0.0000000000000D+00
408  4.0700000000000D+00  0.0000000000000D+00  0.0000000000000D+00
409  4.0800000000000D+00  0.0000000000000D+00  0.0000000000000D+00
410  4.0900000000000D+00  0.0000000000000D+00  0.0000000000000D+00
411  4.1000000000000D+00  0.0000000000000D+00  0.0000000000000D+00
412  4.1100000000000D+00  0.0000000000000D+00  0.0000000000000D+00
413  4.1200000000000D+00  0.0000000000000D+00  0.0000000000000D+00
414  4.1300000000000D+00  0.0000000000000D+00  0.0000000000000D+00
415  4.1400000000000D+00  0.0000000000000D+00  0.0000000000000D+00
416  4.1500000000000D+00  0.0000000000000D+00  0.0000000000000D+00
417  4.1600000000000D+00  0.0000000000000D+00  0.0000000000000D+00
418  4.1700000000000D+00  0.0000000000000D+00  0.0000000000000D+00
419  4.1800000000000D+00  0.0000000000000D+00  0.0000000000000D+00
420  4.1900000000000D+00  0.0000000000000D+00  0.0000000000000D+00
421  4.2000000000000D+00  0.0000000000000D+00  0.0000000000000D+00
422  4.2100000000000D+00  0.0000000000000D+00  0.0000000000000D+00
423  4.2200000000000D+00  0.0000000000000D+00  0.0000000000000D+00
424  4.2300000000000D+00  0.0000000000000D+00  0.0000000000000D+00
425  4.2400000000000D+00  0.0000000000000D+00  0.0000000000000D+00
426  4.2500000000000D+00  0.0000000000000D+00  0.0000000000000D+00
427  4.2600000000000D+00  0.0000000000000D+00  0.0000000000000D+00
428  4.2700000000000D+00  0.0000000000000D+00  0.0000000000000D+00
429  4.2800000000000D+00  0.0000000000000D+00  0.0000000000000D+00
430  4.2900000000000D+00  0.0000000000000D+00  0.0000000000000D+00
431  4.3000000000000D+00  0.0000000000000D+00  0.0000000000000D+00
432  4.3100000000000D+00  0.0000000000000D+00  0.0000000000000D+00
433  4.3200000000000D+00  0.0000000000000D+00  0.0000000000000D+00
434  4.3300000000000D+00  0.0000000000000D+00  0.0000000000000D+00
435  4.3400000000000D+00  0.0000000000000D+00  0.0000000000000D+00
436  4.3500000000000D+00  0.0000000000000D+00  0.0000000000000D+00
437  4.3600000000000D+00  0.0000000000000D+00  0.0000000000000D+00
438  4.3700000000000D+00  0.0000000000000D+00  0.0000000000000D+00
439  4.3800000000000D+00  0.0000000000000D+00  0.0000000000000D+00
440  4.3900000000000D+00  0.0000000000000D+00  0.0000000000000D+00
441  4.4000000000000D+00  0.0000000000000D+00  0.0000000000000D+00
442  4.4100000000000D+00  0.0000000000000D+00  0.0000000000000D+00
443  4.4200000000000D+00  0.0000000000000D+00  0.0000000000000D+00