Bi    ONCVPSP-3.2.3.1  r_core=   1.40250   1.50656   1.40250
83.0000     23.0000      170503    zatom,zion,pspd
8      11   2     4   600     0    pspcod,pspxc,lmax,lloc,mmax,r2well
5.99000000  6.00000000  0.00000000    rchrg fchrg qchrg
2     2     2     0     0    nproj
1     1           extension_switch
0                         1.6886050217817D+01  2.3079970828214D+00
1  0.0000000000000D+00 -8.2501261378098D-10  2.1271414352153D-09
2  1.0000000000000D-02  8.6039502387833D-02 -2.3154567984899D-02
3  2.0000000000000D-02  1.7182612818434D-01 -4.6051588009106D-02
4  3.0000000000000D-02  2.5710830152084D-01 -6.8436054489624D-02
5  4.0000000000000D-02  3.4163703388538D-01 -9.0058011078392D-02
6  5.0000000000000D-02  4.2516718279414D-01 -1.1067498703100D-01
7  6.0000000000000D-02  5.0745866905151D-01 -1.3005432921538D-01
8  7.0000000000000D-02  5.8827763978035D-01 -1.4797539751288D-01
9  8.0000000000000D-02  6.6739756522881D-01 -1.6423159349123D-01
10  9.0000000000000D-02  7.4460025836724D-01 -1.7863219482676D-01
11  1.0000000000000D-01  8.1967680746225D-01 -1.9100397098224D-01
12  1.1000000000000D-01  8.9242841313698D-01 -2.0119255906160D-01
13  1.2000000000000D-01  9.6266712287624D-01 -2.0906358251054D-01
14  1.3000000000000D-01  1.0302164574904D+00 -2.1450349935597D-01
15  1.4000000000000D-01  1.0949119256871D+00 -2.1742017091549D-01
16  1.5000000000000D-01  1.1566014245911D+00 -2.1774314629527D-01
17  1.6000000000000D-01  1.2151455257715D+00 -2.1542366246238D-01
18  1.7000000000000D-01  1.2704176480547D+00 -2.1043436415705D-01
19  1.8000000000000D-01  1.3223041200961D+00 -2.0276875233037D-01
20  1.9000000000000D-01  1.3707041373216D+00 -1.9244037408404D-01
21  2.0000000000000D-01  1.4155296194087D+00 -1.7948177118210D-01
22  2.1000000000000D-01  1.4567049759284D+00 -1.6394320803512D-01
23  2.2000000000000D-01  1.4941667890908D+00 -1.4589120356076D-01
24  2.3000000000000D-01  1.5278634237039D+00 -1.2540689444469D-01
25  2.4000000000000D-01  1.5577545754510D+00 -1.0258426000861D-01
26  2.5000000000000D-01  1.5838107693913D+00 -7.7528241091279D-02
27  2.6000000000000D-01  1.6060128211901D+00 -5.0352787025155D-02
28  2.7000000000000D-01  1.6243512739590D+00 -2.1178865912573D-02
29  2.8000000000000D-01  1.6388258237418D+00  9.8675260511008D-03
30  2.9000000000000D-01  1.6494447466011D+00  4.2657320509551D-02
31  3.0000000000000D-01  1.6562243399514D+00  7.7060263083584D-02
32  3.1000000000000D-01  1.6591883902412D+00  1.1294669590915D-01
33  3.2000000000000D-01  1.6583676783218D+00  1.5018920459411D-01
34  3.3000000000000D-01  1.6537995328652D+00  1.8866409999746D-01
35  3.4000000000000D-01  1.6455274410087D+00  2.2825270814573D-01
36  3.5000000000000D-01  1.6336007240501D+00  2.6884244500066D-01
37  3.6000000000000D-01  1.6180742844877D+00  3.1032765662832D-01
38  3.7000000000000D-01  1.5990084290406D+00  3.5261020953741D-01
39  3.8000000000000D-01  1.5764687705092D+00  3.9559982048968D-01
40  3.9000000000000D-01  1.5505262094771D+00  4.3921411986661D-01
41  4.0000000000000D-01  1.5212569949450D+00  4.8337844763114D-01
42  4.1000000000000D-01  1.4887428610541D+00  5.2802538596945D-01
43  4.2000000000000D-01  1.4530712351355D+00  5.7309403775449D-01
44  4.3000000000000D-01  1.4143355104497D+00  6.1852906495683D-01
45  4.4000000000000D-01  1.3726353751835D+00  6.6427950595288D-01
46  4.5000000000000D-01  1.3280771875905D+00  7.1029739526445D-01
47  4.6000000000000D-01  1.2807743856249D+00  7.5653621352479D-01
48  4.7000000000000D-01  1.2308479180544D+00  8.0294919932555D-01
49  4.8000000000000D-01  1.1784266828830D+00  8.4948755798726D-01
50  4.9000000000000D-01  1.1236479579829D+00  8.9609860514260D-01
51  5.0000000000000D-01  1.0666578081585D+00  9.4272388527003D-01
52  5.1000000000000D-01  1.0076114524586D+00  9.8929730691455D-01
53  5.2000000000000D-01  9.4667357543187D-01  1.0357433372396D+00
54  5.3000000000000D-01  8.8401856619418D-01  1.0819752987408D+00
55  5.4000000000000D-01  8.1983066965342D-01  1.1278938103961D+00
56  5.5000000000000D-01  7.5430403501475D-01  1.1733854142254D+00
57  5.6000000000000D-01  6.8764264776957D-01  1.2183214261748D+00
58  5.7000000000000D-01  6.2006013273405D-01  1.2625570474750D+00
59  5.8000000000000D-01  5.5177941735277D-01  1.3059307691256D+00
60  5.9000000000000D-01  4.8303224637384D-01  1.3482640980377D+00
61  6.0000000000000D-01  4.1405854114538D-01  1.3893616285970D+00
62  6.1000000000000D-01  3.4510559910795D-01  1.4290114781455D+00
63  6.2000000000000D-01  2.7642713158001D-01  1.4669860990908D+00
64  6.3000000000000D-01  2.0828214056945D-01  1.5030434742259D+00
65  6.4000000000000D-01  1.4093363809007D-01  1.5369286953952D+00
66  6.5000000000000D-01  7.4647214264790D-02  1.5683759189881D+00
67  6.6000000000000D-01  9.6894632941635D-03  1.5971106850407D+00
68  6.7000000000000D-01 -5.3673720848383D-02  1.6228525799873D+00
69  6.8000000000000D-01 -1.1517896444416D-01  1.6453182165221D+00
70  6.9000000000000D-01 -1.7456733266575D-01  1.6642244976876D+00
71  7.0000000000000D-01 -2.3158632731946D-01  1.6792921263065D+00
72  7.1000000000000D-01 -2.8599194200846D-01  1.6902493153126D+00
73  7.2000000000000D-01 -3.3755075112207D-01  1.6968356495590D+00
74  7.3000000000000D-01 -3.8604200743349D-01  1.6988060453364D+00
75  7.4000000000000D-01 -4.3125972180368D-01  1.6959347502399D+00
76  7.5000000000000D-01 -4.7301469756104D-01  1.6880193232316D+00
77  7.6000000000000D-01 -5.1113649159098D-01  1.6748845328478D+00
78  7.7000000000000D-01 -5.4547527404033D-01  1.6563861105303D+00
79  7.8000000000000D-01 -5.7590355883370D-01  1.6324142960685D+00
80  7.9000000000000D-01 -6.0231777792125D-01  1.6028971131404D+00
81  8.0000000000000D-01 -6.2463967332981D-01  1.5678033149521D+00
82  8.1000000000000D-01 -6.4281748266669D-01  1.5271449429839D+00
83  8.2000000000000D-01 -6.5682689571518D-01  1.4809794458370D+00
84  8.3000000000000D-01 -6.6667176214263D-01  1.4294113100962D+00
85  8.4000000000000D-01 -6.7238453309109D-01  1.3725931609270D+00
86  8.5000000000000D-01 -6.7402642249968D-01  1.3107262967320D+00
87  8.6000000000000D-01 -6.7168727739091D-01  1.2440606295365D+00
88  8.7000000000000D-01 -6.6548514997579D-01  1.1728940107261D+00
89  8.8000000000000D-01 -6.5556556827141D-01  1.0975709302493D+00
90  8.9000000000000D-01 -6.4210050588977D-01  1.0184805862402D+00
91  9.0000000000000D-01 -6.2528705574409D-01  9.3605433118298D-01
92  9.1000000000000D-01 -6.0534581651111D-01  8.5076250997641D-01
93  9.2000000000000D-01 -5.8251900476592D-01  7.6311071451030D-01
94  9.3000000000000D-01 -5.5706830968825D-01  6.7363548844721D-01
95  9.4000000000000D-01 -5.2927251106835D-01  5.8289952468586D-01
96  9.5000000000000D-01 -4.9942488495656D-01  4.9148640631689D-01
97  9.6000000000000D-01 -4.6783042464264D-01  3.9999494963280D-01
98  9.7000000000000D-01 -4.3480290766509D-01  3.0903321479009D-01
99  9.8000000000000D-01 -4.0066184218330D-01  2.1921225591752D-01
100  9.9000000000000D-01 -3.6572932825851D-01  1.3113968773053D-01
101  1.0000000000000D+00 -3.3032687131153D-01  4.5413149875194D-02
102  1.0100000000000D+00 -2.9477218627409D-01 -3.7386246676475D-02
103  1.0200000000000D+00 -2.5937603166791D-01 -1.1670040495206D-01
104  1.0300000000000D+00 -2.2443911298110D-01 -1.9200057222420D-01
105  1.0400000000000D+00 -1.9024909432892D-01 -2.6279342897565D-01
106  1.0500000000000D+00 -1.5707775639206D-01 -3.2862685237834D-01
107  1.0600000000000D+00 -1.2517833709086D-01 -3.8909527332189D-01
108  1.0700000000000D+00 -9.4783089517801D-02 -4.4384455019617D-01
109  1.0800000000000D+00 -6.6101088850961D-02 -4.9257628876143D-01
110  1.0900000000000D+00 -3.9316317083797D-02 -5.3505154381605D-01
111  1.1000000000000D+00 -1.4586050632349D-02 -5.7109384675970D-01
112  1.1100000000000D+00  7.9604277004759D-03 -6.0059151114458D-01
113  1.1200000000000D+00  2.8222775395255D-02 -6.2349917832249D-01
114  1.1300000000000D+00  4.6130183188623D-02 -6.3983857581260D-01
115  1.1400000000000D+00  6.1641606793018D-02 -6.4969847178452D-01
116  1.1500000000000D+00  7.4745634563513D-02 -6.5323381978978D-01
117  1.1600000000000D+00  8.5459993236600D-02 -6.5066409901190D-01
118  1.1700000000000D+00  9.3830699535572D-02 -6.4227086815837D-01
119  1.1800000000000D+00  9.9930870244141D-02 -6.2839456202956D-01
120  1.1900000000000D+00  1.0385920726343D-01 -6.0943056868322D-01
121  1.2000000000000D+00  1.0573818006715D-01 -5.8582463852508D-01
122  1.2100000000000D+00  1.0571193197288D-01 -5.5806768576863D-01
123  1.2200000000000D+00  1.0394394042210D-01 -5.2669005129562D-01
124  1.2300000000000D+00  1.0061446458371D-01 -4.9225530305795D-01
125  1.2400000000000D+00  9.5917818253081D-02 -4.5535366076604D-01
126  1.2500000000000D+00  9.0059507421221D-02 -4.1659513478743D-01
127  1.2600000000000D+00  8.3253273867430D-02 -3.7660247377132D-01
128  1.2700000000000D+00  7.5718091530404D-02 -3.3600402854230D-01
129  1.2800000000000D+00  6.7675159937074D-02 -2.9542663275052D-01
130  1.2900000000000D+00  5.9344845388309D-02 -2.5548836218781D-01
131  1.3000000000000D+00  5.0943866161968D-02 -2.1679191547878D-01
132  1.3100000000000D+00  4.2683024031731D-02 -1.7991942659032D-01
133  1.3200000000000D+00  3.4761517775193D-02 -1.4541825805934D-01
134  1.3300000000000D+00  2.7361526965530D-02 -1.1378760715743D-01
135  1.3400000000000D+00  2.0642563330868D-02 -8.5464626690961D-02
136  1.3500000000000D+00  1.4739233551072D-02 -6.0819442778095D-02
137  1.3600000000000D+00  9.7628034809132D-03 -4.0164673495690D-02
138  1.3700000000000D+00  5.7818161432220D-03 -2.3679565080332D-02
139  1.3800000000000D+00  2.8406930816265D-03 -1.1489956669556D-02
140  1.3900000000000D+00  1.0628077108633D-03 -4.0660081079649D-03
141  1.4000000000000D+00  2.9030135868732D-04 -8.3235127196178D-04
142  1.4100000000000D+00  4.3434884949479D-05  2.6032047998780D-05
143  1.4200000000000D+00 -3.3668119400109D-07 -5.8194328859638D-06
144  1.4300000000000D+00  1.6955803419130D-06 -3.9315201674521D-05
145  1.4400000000000D+00  5.8646279075945D-07  3.6290773146456D-06
146  1.4500000000000D+00  2.9361422763357D-07  3.5873471731411D-06
147  1.4600000000000D+00 -5.3768143971797D-07  1.2749783294661D-06
148  1.4700000000000D+00 -9.9618287186236D-08  2.3622008869714D-07
149  1.4800000000000D+00  0.0000000000000D+00  0.0000000000000D+00
150  1.4900000000000D+00  0.0000000000000D+00  0.0000000000000D+00
151  1.5000000000000D+00  0.0000000000000D+00  0.0000000000000D+00
152  1.5100000000000D+00  0.0000000000000D+00  0.0000000000000D+00
153  1.5200000000000D+00  0.0000000000000D+00  0.0000000000000D+00
154  1.5300000000000D+00  0.0000000000000D+00  0.0000000000000D+00
155  1.5400000000000D+00  0.0000000000000D+00  0.0000000000000D+00
156  1.5500000000000D+00  0.0000000000000D+00  0.0000000000000D+00
157  1.5600000000000D+00  0.0000000000000D+00  0.0000000000000D+00
158  1.5700000000000D+00  0.0000000000000D+00  0.0000000000000D+00
159  1.5800000000000D+00  0.0000000000000D+00  0.0000000000000D+00
160  1.5900000000000D+00  0.0000000000000D+00  0.0000000000000D+00
161  1.6000000000000D+00  0.0000000000000D+00  0.0000000000000D+00
162  1.6100000000000D+00  0.0000000000000D+00  0.0000000000000D+00
163  1.6200000000000D+00  0.0000000000000D+00  0.0000000000000D+00
164  1.6300000000000D+00  0.0000000000000D+00  0.0000000000000D+00
165  1.6400000000000D+00  0.0000000000000D+00  0.0000000000000D+00
166  1.6500000000000D+00  0.0000000000000D+00  0.0000000000000D+00
167  1.6600000000000D+00  0.0000000000000D+00  0.0000000000000D+00
168  1.6700000000000D+00  0.0000000000000D+00  0.0000000000000D+00
169  1.6800000000000D+00  0.0000000000000D+00  0.0000000000000D+00
170  1.6900000000000D+00  0.0000000000000D+00  0.0000000000000D+00
171  1.7000000000000D+00  0.0000000000000D+00  0.0000000000000D+00
172  1.7100000000000D+00  0.0000000000000D+00  0.0000000000000D+00
173  1.7200000000000D+00  0.0000000000000D+00  0.0000000000000D+00
174  1.7300000000000D+00  0.0000000000000D+00  0.0000000000000D+00
175  1.7400000000000D+00  0.0000000000000D+00  0.0000000000000D+00
176  1.7500000000000D+00  0.0000000000000D+00  0.0000000000000D+00
177  1.7600000000000D+00  0.0000000000000D+00  0.0000000000000D+00
178  1.7700000000000D+00  0.0000000000000D+00  0.0000000000000D+00
179  1.7800000000000D+00  0.0000000000000D+00  0.0000000000000D+00
180  1.7900000000000D+00  0.0000000000000D+00  0.0000000000000D+00
181  1.8000000000000D+00  0.0000000000000D+00  0.0000000000000D+00
182  1.8100000000000D+00  0.0000000000000D+00  0.0000000000000D+00
183  1.8200000000000D+00  0.0000000000000D+00  0.0000000000000D+00
184  1.8300000000000D+00  0.0000000000000D+00  0.0000000000000D+00
185  1.8400000000000D+00  0.0000000000000D+00  0.0000000000000D+00
186  1.8500000000000D+00  0.0000000000000D+00  0.0000000000000D+00
187  1.8600000000000D+00  0.0000000000000D+00  0.0000000000000D+00
188  1.8700000000000D+00  0.0000000000000D+00  0.0000000000000D+00
189  1.8800000000000D+00  0.0000000000000D+00  0.0000000000000D+00
190  1.8900000000000D+00  0.0000000000000D+00  0.0000000000000D+00
191  1.9000000000000D+00  0.0000000000000D+00  0.0000000000000D+00
192  1.9100000000000D+00  0.0000000000000D+00  0.0000000000000D+00
193  1.9200000000000D+00  0.0000000000000D+00  0.0000000000000D+00
194  1.9300000000000D+00  0.0000000000000D+00  0.0000000000000D+00
195  1.9400000000000D+00  0.0000000000000D+00  0.0000000000000D+00
196  1.9500000000000D+00  0.0000000000000D+00  0.0000000000000D+00
197  1.9600000000000D+00  0.0000000000000D+00  0.0000000000000D+00
198  1.9700000000000D+00  0.0000000000000D+00  0.0000000000000D+00
199  1.9800000000000D+00  0.0000000000000D+00  0.0000000000000D+00
200  1.9900000000000D+00  0.0000000000000D+00  0.0000000000000D+00
201  2.0000000000000D+00  0.0000000000000D+00  0.0000000000000D+00
202  2.0100000000000D+00  0.0000000000000D+00  0.0000000000000D+00
203  2.0200000000000D+00  0.0000000000000D+00  0.0000000000000D+00
204  2.0300000000000D+00  0.0000000000000D+00  0.0000000000000D+00
205  2.0400000000000D+00  0.0000000000000D+00  0.0000000000000D+00
206  2.0500000000000D+00  0.0000000000000D+00  0.0000000000000D+00
207  2.0600000000000D+00  0.0000000000000D+00  0.0000000000000D+00
208  2.0700000000000D+00  0.0000000000000D+00  0.0000000000000D+00
209  2.0800000000000D+00  0.0000000000000D+00  0.0000000000000D+00
210  2.0900000000000D+00  0.0000000000000D+00  0.0000000000000D+00
211  2.1000000000000D+00  0.0000000000000D+00  0.0000000000000D+00
212  2.1100000000000D+00  0.0000000000000D+00  0.0000000000000D+00
213  2.1200000000000D+00  0.0000000000000D+00  0.0000000000000D+00
214  2.1300000000000D+00  0.0000000000000D+00  0.0000000000000D+00
215  2.1400000000000D+00  0.0000000000000D+00  0.0000000000000D+00
216  2.1500000000000D+00  0.0000000000000D+00  0.0000000000000D+00
217  2.1600000000000D+00  0.0000000000000D+00  0.0000000000000D+00
218  2.1700000000000D+00  0.0000000000000D+00  0.0000000000000D+00
219  2.1800000000000D+00  0.0000000000000D+00  0.0000000000000D+00
220  2.1900000000000D+00  0.0000000000000D+00  0.0000000000000D+00
221  2.2000000000000D+00  0.0000000000000D+00  0.0000000000000D+00
222  2.2100000000000D+00  0.0000000000000D+00  0.0000000000000D+00
223  2.2200000000000D+00  0.0000000000000D+00  0.0000000000000D+00
224  2.2300000000000D+00  0.0000000000000D+00  0.0000000000000D+00
225  2.2400000000000D+00  0.0000000000000D+00  0.0000000000000D+00
226  2.2500000000000D+00  0.0000000000000D+00  0.0000000000000D+00
227  2.2600000000000D+00  0.0000000000000D+00  0.0000000000000D+00
228  2.2700000000000D+00  0.0000000000000D+00  0.0000000000000D+00
229  2.2800000000000D+00  0.0000000000000D+00  0.0000000000000D+00
230  2.2900000000000D+00  0.0000000000000D+00  0.0000000000000D+00
231  2.3000000000000D+00  0.0000000000000D+00  0.0000000000000D+00
232  2.3100000000000D+00  0.0000000000000D+00  0.0000000000000D+00
233  2.3200000000000D+00  0.0000000000000D+00  0.0000000000000D+00
234  2.3300000000000D+00  0.0000000000000D+00  0.0000000000000D+00
235  2.3400000000000D+00  0.0000000000000D+00  0.0000000000000D+00
236  2.3500000000000D+00  0.0000000000000D+00  0.0000000000000D+00
237  2.3600000000000D+00  0.0000000000000D+00  0.0000000000000D+00
238  2.3700000000000D+00  0.0000000000000D+00  0.0000000000000D+00
239  2.3800000000000D+00  0.0000000000000D+00  0.0000000000000D+00
240  2.3900000000000D+00  0.0000000000000D+00  0.0000000000000D+00
241  2.4000000000000D+00  0.0000000000000D+00  0.0000000000000D+00
242  2.4100000000000D+00  0.0000000000000D+00  0.0000000000000D+00
243  2.4200000000000D+00  0.0000000000000D+00  0.0000000000000D+00
244  2.4300000000000D+00  0.0000000000000D+00  0.0000000000000D+00
245  2.4400000000000D+00  0.0000000000000D+00  0.0000000000000D+00
246  2.4500000000000D+00  0.0000000000000D+00  0.0000000000000D+00
247  2.4600000000000D+00  0.0000000000000D+00  0.0000000000000D+00
248  2.4700000000000D+00  0.0000000000000D+00  0.0000000000000D+00
249  2.4800000000000D+00  0.0000000000000D+00  0.0000000000000D+00
250  2.4900000000000D+00  0.0000000000000D+00  0.0000000000000D+00
251  2.5000000000000D+00  0.0000000000000D+00  0.0000000000000D+00
252  2.5100000000000D+00  0.0000000000000D+00  0.0000000000000D+00
253  2.5200000000000D+00  0.0000000000000D+00  0.0000000000000D+00
254  2.5300000000000D+00  0.0000000000000D+00  0.0000000000000D+00
255  2.5400000000000D+00  0.0000000000000D+00  0.0000000000000D+00
256  2.5500000000000D+00  0.0000000000000D+00  0.0000000000000D+00
257  2.5600000000000D+00  0.0000000000000D+00  0.0000000000000D+00
258  2.5700000000000D+00  0.0000000000000D+00  0.0000000000000D+00
259  2.5800000000000D+00  0.0000000000000D+00  0.0000000000000D+00
260  2.5900000000000D+00  0.0000000000000D+00  0.0000000000000D+00
261  2.6000000000000D+00  0.0000000000000D+00  0.0000000000000D+00
262  2.6100000000000D+00  0.0000000000000D+00  0.0000000000000D+00
263  2.6200000000000D+00  0.0000000000000D+00  0.0000000000000D+00
264  2.6300000000000D+00  0.0000000000000D+00  0.0000000000000D+00
265  2.6400000000000D+00  0.0000000000000D+00  0.0000000000000D+00
266  2.6500000000000D+00  0.0000000000000D+00  0.0000000000000D+00
267  2.6600000000000D+00  0.0000000000000D+00  0.0000000000000D+00
268  2.6700000000000D+00  0.0000000000000D+00  0.0000000000000D+00
269  2.6800000000000D+00  0.0000000000000D+00  0.0000000000000D+00
270  2.6900000000000D+00  0.0000000000000D+00  0.0000000000000D+00
271  2.7000000000000D+00  0.0000000000000D+00  0.0000000000000D+00
272  2.7100000000000D+00  0.0000000000000D+00  0.0000000000000D+00
273  2.7200000000000D+00  0.0000000000000D+00  0.0000000000000D+00
274  2.7300000000000D+00  0.0000000000000D+00  0.0000000000000D+00
275  2.7400000000000D+00  0.0000000000000D+00  0.0000000000000D+00
276  2.7500000000000D+00  0.0000000000000D+00  0.0000000000000D+00
277  2.7600000000000D+00  0.0000000000000D+00  0.0000000000000D+00
278  2.7700000000000D+00  0.0000000000000D+00  0.0000000000000D+00
279  2.7800000000000D+00  0.0000000000000D+00  0.0000000000000D+00
280  2.7900000000000D+00  0.0000000000000D+00  0.0000000000000D+00
281  2.8000000000000D+00  0.0000000000000D+00  0.0000000000000D+00
282  2.8100000000000D+00  0.0000000000000D+00  0.0000000000000D+00
283  2.8200000000000D+00  0.0000000000000D+00  0.0000000000000D+00
284  2.8300000000000D+00  0.0000000000000D+00  0.0000000000000D+00
285  2.8400000000000D+00  0.0000000000000D+00  0.0000000000000D+00
286  2.8500000000000D+00  0.0000000000000D+00  0.0000000000000D+00
287  2.8600000000000D+00  0.0000000000000D+00  0.0000000000000D+00
288  2.8700000000000D+00  0.0000000000000D+00  0.0000000000000D+00
289  2.8800000000000D+00  0.0000000000000D+00  0.0000000000000D+00
290  2.8900000000000D+00  0.0000000000000D+00  0.0000000000000D+00
291  2.9000000000000D+00  0.0000000000000D+00  0.0000000000000D+00
292  2.9100000000000D+00  0.0000000000000D+00  0.0000000000000D+00
293  2.9200000000000D+00  0.0000000000000D+00  0.0000000000000D+00
294  2.9300000000000D+00  0.0000000000000D+00  0.0000000000000D+00
295  2.9400000000000D+00  0.0000000000000D+00  0.0000000000000D+00
296  2.9500000000000D+00  0.0000000000000D+00  0.0000000000000D+00
297  2.9600000000000D+00  0.0000000000000D+00  0.0000000000000D+00
298  2.9700000000000D+00  0.0000000000000D+00  0.0000000000000D+00
299  2.9800000000000D+00  0.0000000000000D+00  0.0000000000000D+00
300  2.9900000000000D+00  0.0000000000000D+00  0.0000000000000D+00
301  3.0000000000000D+00  0.0000000000000D+00  0.0000000000000D+00
302  3.0100000000000D+00  0.0000000000000D+00  0.0000000000000D+00
303  3.0200000000000D+00  0.0000000000000D+00  0.0000000000000D+00
304  3.0300000000000D+00  0.0000000000000D+00  0.0000000000000D+00
305  3.0400000000000D+00  0.0000000000000D+00  0.0000000000000D+00
306  3.0500000000000D+00  0.0000000000000D+00  0.0000000000000D+00
307  3.0600000000000D+00  0.0000000000000D+00  0.0000000000000D+00
308  3.0700000000000D+00  0.0000000000000D+00  0.0000000000000D+00
309  3.0800000000000D+00  0.0000000000000D+00  0.0000000000000D+00
310  3.0900000000000D+00  0.0000000000000D+00  0.0000000000000D+00
311  3.1000000000000D+00  0.0000000000000D+00  0.0000000000000D+00
312  3.1100000000000D+00  0.0000000000000D+00  0.0000000000000D+00
313  3.1200000000000D+00  0.0000000000000D+00  0.0000000000000D+00
314  3.1300000000000D+00  0.0000000000000D+00  0.0000000000000D+00
315  3.1400000000000D+00  0.0000000000000D+00  0.0000000000000D+00
316  3.1500000000000D+00  0.0000000000000D+00  0.0000000000000D+00
317  3.1600000000000D+00  0.0000000000000D+00  0.0000000000000D+00
318  3.1700000000000D+00  0.0000000000000D+00  0.0000000000000D+00
319  3.1800000000000D+00  0.0000000000000D+00  0.0000000000000D+00
320  3.1900000000000D+00  0.0000000000000D+00  0.0000000000000D+00
321  3.2000000000000D+00  0.0000000000000D+00  0.0000000000000D+00
322  3.2100000000000D+00  0.0000000000000D+00  0.0000000000000D+00
323  3.2200000000000D+00  0.0000000000000D+00  0.0000000000000D+00
324  3.2300000000000D+00  0.0000000000000D+00  0.0000000000000D+00
325  3.2400000000000D+00  0.0000000000000D+00  0.0000000000000D+00
326  3.2500000000000D+00  0.0000000000000D+00  0.0000000000000D+00
327  3.2600000000000D+00  0.0000000000000D+00  0.0000000000000D+00
328  3.2700000000000D+00  0.0000000000000D+00  0.0000000000000D+00
329  3.2800000000000D+00  0.0000000000000D+00  0.0000000000000D+00
330  3.2900000000000D+00  0.0000000000000D+00  0.0000000000000D+00
331  3.3000000000000D+00  0.0000000000000D+00  0.0000000000000D+00
332  3.3100000000000D+00  0.0000000000000D+00  0.0000000000000D+00
333  3.3200000000000D+00  0.0000000000000D+00  0.0000000000000D+00
334  3.3300000000000D+00  0.0000000000000D+00  0.0000000000000D+00
335  3.3400000000000D+00  0.0000000000000D+00  0.0000000000000D+00
336  3.3500000000000D+00  0.0000000000000D+00  0.0000000000000D+00
337  3.3600000000000D+00  0.0000000000000D+00  0.0000000000000D+00
338  3.3700000000000D+00  0.0000000000000D+00  0.0000000000000D+00
339  3.3800000000000D+00  0.0000000000000D+00  0.0000000000000D+00
340  3.3900000000000D+00  0.0000000000000D+00  0.0000000000000D+00
341  3.4000000000000D+00  0.0000000000000D+00  0.0000000000000D+00
342  3.4100000000000D+00  0.0000000000000D+00  0.0000000000000D+00
343  3.4200000000000D+00  0.0000000000000D+00  0.0000000000000D+00
344  3.4300000000000D+00  0.0000000000000D+00  0.0000000000000D+00
345  3.4400000000000D+00  0.0000000000000D+00  0.0000000000000D+00
346  3.4500000000000D+00  0.0000000000000D+00  0.0000000000000D+00
347  3.4600000000000D+00  0.0000000000000D+00  0.0000000000000D+00
348  3.4700000000000D+00  0.0000000000000D+00  0.0000000000000D+00
349  3.4800000000000D+00  0.0000000000000D+00  0.0000000000000D+00
350  3.4900000000000D+00  0.0000000000000D+00  0.0000000000000D+00
351  3.5000000000000D+00  0.0000000000000D+00  0.0000000000000D+00
352  3.5100000000000D+00  0.0000000000000D+00  0.0000000000000D+00
353  3.5200000000000D+00  0.0000000000000D+00  0.0000000000000D+00
354  3.5300000000000D+00  0.0000000000000D+00  0.0000000000000D+00
355  3.5400000000000D+00  0.0000000000000D+00  0.0000000000000D+00
356  3.5500000000000D+00  0.0000000000000D+00  0.0000000000000D+00
357  3.5600000000000D+00  0.0000000000000D+00  0.0000000000000D+00
358  3.5700000000000D+00  0.0000000000000D+00  0.0000000000000D+00
359  3.5800000000000D+00  0.0000000000000D+00  0.0000000000000D+00
360  3.5900000000000D+00  0.0000000000000D+00  0.0000000000000D+00
361  3.6000000000000D+00  0.0000000000000D+00  0.0000000000000D+00
362  3.6100000000000D+00  0.0000000000000D+00  0.0000000000000D+00
363  3.6200000000000D+00  0.0000000000000D+00  0.0000000000000D+00
364  3.6300000000000D+00  0.0000000000000D+00  0.0000000000000D+00
365  3.6400000000000D+00  0.0000000000000D+00  0.0000000000000D+00
366  3.6500000000000D+00  0.0000000000000D+00  0.0000000000000D+00
367  3.6600000000000D+00  0.0000000000000D+00  0.0000000000000D+00
368  3.6700000000000D+00  0.0000000000000D+00  0.0000000000000D+00
369  3.6800000000000D+00  0.0000000000000D+00  0.0000000000000D+00
370  3.6900000000000D+00  0.0000000000000D+00  0.0000000000000D+00
371  3.7000000000000D+00  0.0000000000000D+00  0.0000000000000D+00
372  3.7100000000000D+00  0.0000000000000D+00  0.0000000000000D+00
373  3.7200000000000D+00  0.0000000000000D+00  0.0000000000000D+00
374  3.7300000000000D+00  0.0000000000000D+00  0.0000000000000D+00
375  3.7400000000000D+00  0.0000000000000D+00  0.0000000000000D+00
376  3.7500000000000D+00  0.0000000000000D+00  0.0000000000000D+00
377  3.7600000000000D+00  0.0000000000000D+00  0.0000000000000D+00
378  3.7700000000000D+00  0.0000000000000D+00  0.0000000000000D+00
379  3.7800000000000D+00  0.0000000000000D+00  0.0000000000000D+00
380  3.7900000000000D+00  0.0000000000000D+00  0.0000000000000D+00
381  3.8000000000000D+00  0.0000000000000D+00  0.0000000000000D+00
382  3.8100000000000D+00  0.0000000000000D+00  0.0000000000000D+00
383  3.8200000000000D+00  0.0000000000000D+00  0.0000000000000D+00
384  3.8300000000000D+00  0.0000000000000D+00  0.0000000000000D+00
385  3.8400000000000D+00  0.0000000000000D+00  0.0000000000000D+00
386  3.8500000000000D+00  0.0000000000000D+00  0.0000000000000D+00
387  3.8600000000000D+00  0.0000000000000D+00  0.0000000000000D+00
388  3.8700000000000D+00  0.0000000000000D+00  0.0000000000000D+00
389  3.8800000000000D+00  0.0000000000000D+00  0.0000000000000D+00
390  3.8900000000000D+00  0.0000000000000D+00  0.0000000000000D+00
391  3.9000000000000D+00  0.0000000000000D+00  0.0000000000000D+00
392  3.9100000000000D+00  0.0000000000000D+00  0.0000000000000D+00
393  3.9200000000000D+00  0.0000000000000D+00  0.0000000000000D+00
394  3.9300000000000D+00  0.0000000000000D+00  0.0000000000000D+00
395  3.9400000000000D+00  0.0000000000000D+00  0.0000000000000D+00
396  3.9500000000000D+00  0.0000000000000D+00  0.0000000000000D+00
397  3.9600000000000D+00  0.0000000000000D+00  0.0000000000000D+00
398  3.9700000000000D+00  0.0000000000000D+00  0.0000000000000D+00
399  3.9800000000000D+00  0.0000000000000D+00  0.0000000000000D+00
400  3.9900000000000D+00  0.0000000000000D+00  0.0000000000000D+00
401  4.0000000000000D+00  0.0000000000000D+00  0.0000000000000D+00
402  4.0100000000000D+00  0.0000000000000D+00  0.0000000000000D+00
403  4.0200000000000D+00  0.0000000000000D+00  0.0000000000000D+00
404  4.0300000000000D+00  0.0000000000000D+00  0.0000000000000D+00
405  4.0400000000000D+00  0.0000000000000D+00  0.0000000000000D+00
406  4.0500000000000D+00  0.0000000000000D+00  0.0000000000000D+00
407  4.0600000000000D+00  0.0000000000000D+00  0.0000000000000D+00
408  4.0700000000000D+00  0.0000000000000D+00  0.0000000000000D+00
409  4.0800000000000D+00  0.0000000000000D+00  0.0000000000000D+00
410  4.0900000000000D+00  0.0000000000000D+00  0.0000000000000D+00
411  4.1000000000000D+00  0.0000000000000D+00  0.0000000000000D+00
412  4.1100000000000D+00  0.0000000000000D+00  0.0000000000000D+00
413  4.1200000000000D+00  0.0000000000000D+00  0.0000000000000D+00
414  4.1300000000000D+00  0.0000000000000D+00  0.0000000000000D+00
415  4.1400000000000D+00  0.0000000000000D+00  0.0000000000000D+00
416  4.1500000000000D+00  0.0000000000000D+00  0.0000000000000D+00
417  4.1600000000000D+00  0.0000000000000D+00  0.0000000000000D+00
418  4.1700000000000D+00  0.0000000000000D+00  0.0000000000000D+00
419  4.1800000000000D+00  0.0000000000000D+00  0.0000000000000D+00
420  4.1900000000000D+00  0.0000000000000D+00  0.0000000000000D+00
421  4.2000000000000D+00  0.0000000000000D+00  0.0000000000000D+00
422  4.2100000000000D+00  0.0000000000000D+00  0.0000000000000D+00
423  4.2200000000000D+00  0.0000000000000D+00  0.0000000000000D+00
424  4.2300000000000D+00  0.0000000000000D+00  0.0000000000000D+00
425  4.2400000000000D+00  0.0000000000000D+00  0.0000000000000D+00
426  4.2500000000000D+00  0.0000000000000D+00  0.0000000000000D+00
427  4.2600000000000D+00  0.0000000000000D+00  0.0000000000000D+00
428  4.2700000000000D+00  0.0000000000000D+00  0.0000000000000D+00
429  4.2800000000000D+00  0.0000000000000D+00  0.0000000000000D+00
430  4.2900000000000D+00  0.0000000000000D+00  0.0000000000000D+00
431  4.3000000000000D+00  0.0000000000000D+00  0.0000000000000D+00
432  4.3100000000000D+00  0.0000000000000D+00  0.0000000000000D+00
433  4.3200000000000D+00  0.0000000000000D+00  0.0000000000000D+00
434  4.3300000000000D+00  0.0000000000000D+00  0.0000000000000D+00
435  4.3400000000000D+00  0.0000000000000D+00  0.0000000000000D+00
436  4.3500000000000D+00  0.0000000000000D+00  0.0000000000000D+00
437  4.3600000000000D+00  0.0000000000000D+00  0.0000000000000D+00
438  4.3700000000000D+00  0.0000000000000D+00  0.0000000000000D+00
439  4.3800000000000D+00  0.0000000000000D+00  0.0000000000000D+00
440  4.3900000000000D+00  0.0000000000000D+00  0.0000000000000D+00
441  4.4000000000000D+00  0.0000000000000D+00  0.0000000000000D+00
442  4.4100000000000D+00  0.0000000000000D+00  0.0000000000000D+00
443  4.4200000000000D+00  0.0000000000000D+00  0.0000000000000D+00