Ir    ONCVPSP-3.2.3  r_core=   1.60470   1.60470   1.51179   2.26792
77.0000     17.0000      161007    zatom,zion,pspd
8   -1012   3     4   500     0    pspcod,pspxc,lmax,lloc,mmax,r2well
4.99000000  5.00000000  0.00000000    rchrg fchrg qchrg
2     2     2     2     0    nproj
1     1           extension_switch
0                        -5.3831584001835D+01  3.1584053189106D+00
1  0.0000000000000D+00 -6.3257610261047D-10  6.4165177338094D-10
2  1.0000000000000D-02  7.8369626161680D-02  8.2183701972276D-03
3  2.0000000000000D-02  1.5647935644203D-01  1.6555125025797D-02
4  3.0000000000000D-02  2.3407078875397D-01  2.5127405609365D-02
5  4.0000000000000D-02  3.1088849439035D-01  3.4049880084366D-02
6  5.0000000000000D-02  3.8668146935549D-01  4.3433542011629D-02
7  6.0000000000000D-02  4.6120454372052D-01  5.3384550213744D-02
8  7.0000000000000D-02  5.3421973576177D-01  6.4003123084869D-02
9  8.0000000000000D-02  6.0549753827384D-01  7.5382499778018D-02
10  9.0000000000000D-02  6.7481812522628D-01  8.7607979886512D-02
11  1.0000000000000D-01  7.4197246784501D-01  1.0075605231080D-01
12  1.1000000000000D-01  8.0676335023689D-01  1.1489362294949D-01
13  1.2000000000000D-01  8.6900627582585D-01  1.3007734968651D-01
14  1.3000000000000D-01  9.2853025711845D-01  1.4635309187862D-01
15  1.4000000000000D-01  9.8517848265084D-01  1.6375548019298D-01
16  1.5000000000000D-01  1.0388088563731D+00  1.8230761121992D-01
17  1.6000000000000D-01  1.0892944061833D+00  2.0202086980724D-01
18  1.7000000000000D-01  1.1365235598153D+00  2.2289488054680D-01
19  1.8000000000000D-01  1.1804002877975D+00  2.4491758830986D-01
20  1.9000000000000D-01  1.2208441147068D+00  2.6806546619266D-01
21  2.0000000000000D-01  1.2577900014407D+00  2.9230384771543D-01
22  2.1000000000000D-01  1.2911881026846D+00  3.1758737863597D-01
23  2.2000000000000D-01  1.3210034051605D+00  3.4386058230927D-01
24  2.3000000000000D-01  1.3472152535785D+00  3.7105853116539D-01
25  2.4000000000000D-01  1.3698167724627D+00  3.9910761560572D-01
26  2.5000000000000D-01  1.3888141931740D+00  4.2792640044692D-01
27  2.6000000000000D-01  1.4042260964875D+00  4.5742655798883D-01
28  2.7000000000000D-01  1.4160825819860D+00  4.8751386585861D-01
29  2.8000000000000D-01  1.4244243763032D+00  5.1808925700128D-01
30  2.9000000000000D-01  1.4293018928639D+00  5.4904990855606D-01
31  3.0000000000000D-01  1.4307742562328D+00  5.8029035588804D-01
32  3.1000000000000D-01  1.4289083044786D+00  6.1170361774032D-01
33  3.2000000000000D-01  1.4237775830902D+00  6.4318231833991D-01
34  3.3000000000000D-01  1.4154613439405D+00  6.7461979233202D-01
35  3.4000000000000D-01  1.4040435625796D+00  7.0591115863397D-01
36  3.5000000000000D-01  1.3896119867603D+00  7.3695434968956D-01
37  3.6000000000000D-01  1.3722572285478D+00  7.6765108316415D-01
38  3.7000000000000D-01  1.3520719116624D+00  7.9790776384446D-01
39  3.8000000000000D-01  1.3291498848410D+00  8.2763630438744D-01
40  3.9000000000000D-01  1.3035855110035D+00  8.5675485459040D-01
41  4.0000000000000D-01  1.2754730408772D+00  8.8518843001769D-01
42  4.1000000000000D-01  1.2449060784789D+00  9.1286943210570D-01
43  4.2000000000000D-01  1.2119771445036D+00  9.3973805326218D-01
44  4.3000000000000D-01  1.1767773422239D+00  9.6574256196224D-01
45  4.4000000000000D-01  1.1393961289960D+00  9.9083946440372D-01
46  4.5000000000000D-01  1.0999211949031D+00  1.0149935409017D+00
47  4.6000000000000D-01  1.0584384484751D+00  1.0381777568549D+00
48  4.7000000000000D-01  1.0150321078156D+00  1.0603730497869D+00
49  4.8000000000000D-01  9.6978489386919D-01  1.0815679956293D+00
50  4.9000000000000D-01  9.2277832099340D-01  1.1017583590586D+00
51  5.0000000000000D-01  8.7409307847849D-01  1.1209465342884D+00
52  5.1000000000000D-01  8.2380949520774D-01  1.1391408842548D+00
53  5.2000000000000D-01  7.7200807828795D-01  1.1563549875722D+00
54  5.3000000000000D-01  7.1877011522474D-01  1.1726068039801D+00
55  5.4000000000000D-01  6.6417832808734D-01  1.1879177702150D+00
56  5.5000000000000D-01  6.0831756711688D-01  1.2023118393238D+00
57  5.6000000000000D-01  5.5127553040079D-01  1.2158144773544D+00
58  5.7000000000000D-01  4.9314349556930D-01  1.2284516321157D+00
59  5.8000000000000D-01  4.3401704898738D-01  1.2402486892757D+00
60  5.9000000000000D-01  3.7399679761919D-01  1.2512294314491D+00
61  6.0000000000000D-01  3.1318904864321D-01  1.2614150161176D+00
62  6.1000000000000D-01  2.5170644199835D-01  1.2708229882077D+00
63  6.2000000000000D-01  1.8966852134364D-01  1.2794663429386D+00
64  6.3000000000000D-01  1.2720222942372D-01  1.2873526541201D+00
65  6.4000000000000D-01  6.4442314534497D-02  1.2944832824619D+00
66  6.5000000000000D-01  1.5316356860037D-03  1.3008526776245D+00
67  6.6000000000000D-01 -6.1378644853645D-02  1.3064477867242D+00
68  6.7000000000000D-01 -1.2412899169207D-01  1.3112475808141D+00
69  6.8000000000000D-01 -1.8655155775374D-01  1.3152227094880D+00
70  6.9000000000000D-01 -2.4847038408711D-01  1.3183352922360D+00
71  7.0000000000000D-01 -3.0970174339163D-01  1.3205388535183D+00
72  7.1000000000000D-01 -3.7005463080988D-01  1.3217784067506D+00
73  7.2000000000000D-01 -4.2933140361384D-01  1.3219906905049D+00
74  7.3000000000000D-01 -4.8732856944765D-01  1.3211045582805D+00
75  7.4000000000000D-01 -5.4383772076676D-01  1.3190415211868D+00
76  7.5000000000000D-01 -5.9864661107075D-01  1.3157164408343D+00
77  7.6000000000000D-01 -6.5154036649902D-01  1.3110383676921D+00
78  7.7000000000000D-01 -7.0230282434414D-01  1.3049115181332D+00
79  7.8000000000000D-01 -7.5071798809406D-01  1.2972363814139D+00
80  7.9000000000000D-01 -7.9657158674603D-01  1.2879109459229D+00
81  8.0000000000000D-01 -8.3965272437365D-01  1.2768320322202D+00
82  8.1000000000000D-01 -8.7975560429884D-01  1.2638967186942D+00
83  8.2000000000000D-01 -9.1668131074396D-01  1.2490038441146D+00
84  8.3000000000000D-01 -9.5023962953846D-01  1.2320555699734D+00
85  8.4000000000000D-01 -9.8025088834813D-01  1.2129589843073D+00
86  8.5000000000000D-01 -1.0065477960020D+00  1.1916277276998D+00
87  8.6000000000000D-01 -1.0289772598259D+00  1.1679836213815D+00
88  8.7000000000000D-01 -1.0474021594687D+00  1.1419582768060D+00
89  8.8000000000000D-01 -1.0617030555326D+00  1.1134946657767D+00
90  8.9000000000000D-01 -1.0717798114054D+00  1.0825486301522D+00
91  9.0000000000000D-01 -1.0775531070401D+00  1.0490903103640D+00
92  9.1000000000000D-01 -1.0789658240399D+00  1.0131054724496D+00
93  9.2000000000000D-01 -1.0759842822793D+00  9.7459671402534D-01
94  9.3000000000000D-01 -1.0685993094234D+00  9.3358453060359D-01
95  9.4000000000000D-01 -1.0568271260842D+00  8.9010822487984D-01
96  9.5000000000000D-01 -1.0407100309690D+00  8.4422664307527D-01
97  9.6000000000000D-01 -1.0203168722052D+00  7.9601872409598D-01
98  9.7000000000000D-01 -9.9574329308728D-01  7.4558384917177D-01
99  9.8000000000000D-01 -9.6711174267885D-01  6.9304198168012D-01
100  9.9000000000000D-01 -9.3457124410573D-01  6.3853358910729D-01
101  1.0000000000000D+00 -8.9829691590533D-01  5.8221934148888D-01
102  1.0100000000000D+00 -8.5848924439943D-01  5.2427958313356D-01
103  1.0200000000000D+00 -8.1537310777189D-01  4.6491357701787D-01
104  1.0300000000000D+00 -7.6919655526566D-01  4.0433852384932D-01
105  1.0400000000000D+00 -7.2022934777516D-01  3.4278836054000D-01
106  1.0500000000000D+00 -6.6876126862141D-01  2.8051234524811D-01
107  1.0600000000000D+00 -6.1510021629569D-01  2.1777343903908D-01
108  1.0700000000000D+00 -5.5957009337368D-01  1.5484649656093D-01
109  1.0800000000000D+00 -5.0250850835468D-01  9.2016280609241D-02
110  1.0900000000000D+00 -4.4426430964086D-01  2.9575317861967D-02
111  1.1000000000000D+00 -3.8519497276351D-01 -3.2178385082468D-02
112  1.1100000000000D+00 -3.2566386431799D-01 -9.2943743908740D-02
113  1.1200000000000D+00 -2.6603740755711D-01 -1.5241909409564D-01
114  1.1300000000000D+00 -2.0668217620308D-01 -2.1030475918749D-01
115  1.1400000000000D+00 -1.4796194412299D-01 -2.6630566417978D-01
116  1.1500000000000D+00 -9.0234719600693D-02 -3.2013396725538D-01
117  1.1600000000000D+00 -3.3849793490745D-02 -3.7151168250527D-01
118  1.1700000000000D+00  2.0855169268960D-02 -4.2017326600874D-01
119  1.1800000000000D+00  7.3556965212872D-02 -4.6586813749989D-01
120  1.1900000000000D+00  1.2394958575964D-01 -5.0836311010032D-01
121  1.2000000000000D+00  1.7174682008962D-01 -5.4744470132149D-01
122  1.2100000000000D+00  2.1668470025708D-01 -5.8292129958086D-01
123  1.2200000000000D+00  2.5852376198034D-01 -6.1462516107055D-01
124  1.2300000000000D+00  2.9705109703144D-01 -6.4241421409874D-01
125  1.2400000000000D+00  3.3208217525519D-01 -6.6617364999614D-01
126  1.2500000000000D+00  3.6346241484947D-01 -6.8581728022515D-01
127  1.2600000000000D+00  3.9106848398459D-01 -7.0128864349206D-01
128  1.2700000000000D+00  4.1480931931552D-01 -7.1256184900835D-01
129  1.2800000000000D+00  4.3462684775720D-01 -7.1964214280462D-01
130  1.2900000000000D+00  4.5049640345144D-01 -7.2256618925029D-01
131  1.3000000000000D+00  4.6242683516787D-01 -7.2140206308866D-01
132  1.3100000000000D+00  4.7046029918103D-01 -7.1624894709503D-01
133  1.3200000000000D+00  4.7467174031535D-01 -7.0723653773267D-01
134  1.3300000000000D+00  4.7516806646968D-01 -6.9452416369291D-01
135  1.3400000000000D+00  4.7208702070524D-01 -6.7829962101978D-01
136  1.3500000000000D+00  4.6559576581392D-01 -6.5877773885921D-01
137  1.3600000000000D+00  4.5588919413538D-01 -6.3619868783230D-01
138  1.3700000000000D+00  4.4318797840510D-01 -6.1082604589809D-01
139  1.3800000000000D+00  4.2773638759811D-01 -5.8294464441403D-01
140  1.3900000000000D+00  4.0979988722547D-01 -5.5285821278322D-01
141  1.4000000000000D+00  3.8966255161712D-01 -5.2088684781373D-01
142  1.4100000000000D+00  3.6762431671750D-01 -4.8736433488320D-01
143  1.4200000000000D+00  3.4399810039120D-01 -4.5263534651846D-01
144  1.4300000000000D+00  3.1910682529216D-01 -4.1705255175726D-01
145  1.4400000000000D+00  2.9328037403660D-01 -3.8097366454577D-01
146  1.4500000000000D+00  2.6685251245361D-01 -3.4475846523180D-01
147  1.4600000000000D+00  2.4015781650876D-01 -3.0876582928615D-01
148  1.4700000000000D+00  2.1352863145290D-01 -2.7335078974075D-01
149  1.4800000000000D+00  1.8729212012408D-01 -2.3886168952048D-01
150  1.4900000000000D+00  1.6176729954475D-01 -2.0563731670060D-01
151  1.5000000000000D+00  1.3726213788304D-01 -1.7400409088437D-01
152  1.5100000000000D+00  1.1407244165942D-01 -1.4427511143958D-01
153  1.5200000000000D+00  9.2476992732074D-02 -1.1674526946299D-01
154  1.5300000000000D+00  7.2730956505148D-02 -9.1684524907343D-02
155  1.5400000000000D+00  5.5060282767597D-02 -6.9332272107620D-02
156  1.5500000000000D+00  3.9657896763195D-02 -4.9894160530359D-02
157  1.5600000000000D+00  2.6679273922423D-02 -3.3536865935400D-02
158  1.5700000000000D+00  1.6188227176448D-02 -2.0320775271412D-02
159  1.5800000000000D+00  8.3183555356350D-03 -1.0401969246401D-02
160  1.5900000000000D+00  3.3232592427825D-03 -4.0918533990463D-03
161  1.6000000000000D+00  8.8847451187875D-04 -1.0109053274068D-03
162  1.6100000000000D+00  5.6622386242095D-05  7.9655329729548D-06
163  1.6200000000000D+00 -3.4934564026820D-05  6.4007395941756D-05
164  1.6300000000000D+00  2.9859483422502D-05 -4.8298297316509D-05
165  1.6400000000000D+00  1.7470816473523D-05 -2.6938035231838D-05
166  1.6500000000000D+00 -4.0759048861672D-06  7.4683438170728D-06
167  1.6600000000000D+00 -2.2903118696904D-06  3.9886158019298D-06
168  1.6700000000000D+00 -9.5874644834518D-07  9.3813214794736D-07
169  1.6800000000000D+00 -4.6371471447606D-07  4.5374424267969D-07
170  1.6900000000000D+00  0.0000000000000D+00  0.0000000000000D+00
171  1.7000000000000D+00  0.0000000000000D+00  0.0000000000000D+00
172  1.7100000000000D+00  0.0000000000000D+00  0.0000000000000D+00
173  1.7200000000000D+00  0.0000000000000D+00  0.0000000000000D+00
174  1.7300000000000D+00  0.0000000000000D+00  0.0000000000000D+00
175  1.7400000000000D+00  0.0000000000000D+00  0.0000000000000D+00
176  1.7500000000000D+00  0.0000000000000D+00  0.0000000000000D+00
177  1.7600000000000D+00  0.0000000000000D+00  0.0000000000000D+00
178  1.7700000000000D+00  0.0000000000000D+00  0.0000000000000D+00
179  1.7800000000000D+00  0.0000000000000D+00  0.0000000000000D+00
180  1.7900000000000D+00  0.0000000000000D+00  0.0000000000000D+00
181  1.8000000000000D+00  0.0000000000000D+00  0.0000000000000D+00
182  1.8100000000000D+00  0.0000000000000D+00  0.0000000000000D+00
183  1.8200000000000D+00  0.0000000000000D+00  0.0000000000000D+00
184  1.8300000000000D+00  0.0000000000000D+00  0.0000000000000D+00
185  1.8400000000000D+00  0.0000000000000D+00  0.0000000000000D+00
186  1.8500000000000D+00  0.0000000000000D+00  0.0000000000000D+00
187  1.8600000000000D+00  0.0000000000000D+00  0.0000000000000D+00
188  1.8700000000000D+00  0.0000000000000D+00  0.0000000000000D+00
189  1.8800000000000D+00  0.0000000000000D+00  0.0000000000000D+00
190  1.8900000000000D+00  0.0000000000000D+00  0.0000000000000D+00
191  1.9000000000000D+00  0.0000000000000D+00  0.0000000000000D+00
192  1.9100000000000D+00  0.0000000000000D+00  0.0000000000000D+00
193  1.9200000000000D+00  0.0000000000000D+00  0.0000000000000D+00
194  1.9300000000000D+00  0.0000000000000D+00  0.0000000000000D+00
195  1.9400000000000D+00  0.0000000000000D+00  0.0000000000000D+00
196  1.9500000000000D+00  0.0000000000000D+00  0.0000000000000D+00
197  1.9600000000000D+00  0.0000000000000D+00  0.0000000000000D+00
198  1.9700000000000D+00  0.0000000000000D+00  0.0000000000000D+00
199  1.9800000000000D+00  0.0000000000000D+00  0.0000000000000D+00
200  1.9900000000000D+00  0.0000000000000D+00  0.0000000000000D+00
201  2.0000000000000D+00  0.0000000000000D+00  0.0000000000000D+00
202  2.0100000000000D+00  0.0000000000000D+00  0.0000000000000D+00
203  2.0200000000000D+00  0.0000000000000D+00  0.0000000000000D+00
204  2.0300000000000D+00  0.0000000000000D+00  0.0000000000000D+00
205  2.0400000000000D+00  0.0000000000000D+00  0.0000000000000D+00
206  2.0500000000000D+00  0.0000000000000D+00  0.0000000000000D+00
207  2.0600000000000D+00  0.0000000000000D+00  0.0000000000000D+00
208  2.0700000000000D+00  0.0000000000000D+00  0.0000000000000D+00
209  2.0800000000000D+00  0.0000000000000D+00  0.0000000000000D+00
210  2.0900000000000D+00  0.0000000000000D+00  0.0000000000000D+00
211  2.1000000000000D+00  0.0000000000000D+00  0.0000000000000D+00
212  2.1100000000000D+00  0.0000000000000D+00  0.0000000000000D+00
213  2.1200000000000D+00  0.0000000000000D+00  0.0000000000000D+00
214  2.1300000000000D+00  0.0000000000000D+00  0.0000000000000D+00
215  2.1400000000000D+00  0.0000000000000D+00  0.0000000000000D+00
216  2.1500000000000D+00  0.0000000000000D+00  0.0000000000000D+00
217  2.1600000000000D+00  0.0000000000000D+00  0.0000000000000D+00
218  2.1700000000000D+00  0.0000000000000D+00  0.0000000000000D+00
219  2.1800000000000D+00  0.0000000000000D+00  0.0000000000000D+00
220  2.1900000000000D+00  0.0000000000000D+00  0.0000000000000D+00
221  2.2000000000000D+00  0.0000000000000D+00  0.0000000000000D+00
222  2.2100000000000D+00  0.0000000000000D+00  0.0000000000000D+00
223  2.2200000000000D+00  0.0000000000000D+00  0.0000000000000D+00
224  2.2300000000000D+00  0.0000000000000D+00  0.0000000000000D+00
225  2.2400000000000D+00  0.0000000000000D+00  0.0000000000000D+00
226  2.2500000000000D+00  0.0000000000000D+00  0.0000000000000D+00
227  2.2600000000000D+00  0.0000000000000D+00  0.0000000000000D+00
228  2.2700000000000D+00  0.0000000000000D+00  0.0000000000000D+00
229  2.2800000000000D+00  0.0000000000000D+00  0.0000000000000D+00
230  2.2900000000000D+00  0.0000000000000D+00  0.0000000000000D+00
231  2.3000000000000D+00  0.0000000000000D+00  0.0000000000000D+00
232  2.3100000000000D+00  0.0000000000000D+00  0.0000000000000D+00
233  2.3200000000000D+00  0.0000000000000D+00  0.0000000000000D+00
234  2.3300000000000D+00  0.0000000000000D+00  0.0000000000000D+00
235  2.3400000000000D+00  0.0000000000000D+00  0.0000000000000D+00
236  2.3500000000000D+00  0.0000000000000D+00  0.0000000000000D+00
237  2.3600000000000D+00  0.0000000000000D+00  0.0000000000000D+00
238  2.3700000000000D+00  0.0000000000000D+00  0.0000000000000D+00
239  2.3800000000000D+00  0.0000000000000D+00  0.0000000000000D+00
240  2.3900000000000D+00  0.0000000000000D+00  0.0000000000000D+00
241  2.4000000000000D+00  0.0000000000000D+00  0.0000000000000D+00
242  2.4100000000000D+00  0.0000000000000D+00  0.0000000000000D+00
243  2.4200000000000D+00  0.0000000000000D+00  0.0000000000000D+00
244  2.4300000000000D+00  0.0000000000000D+00  0.0000000000000D+00
245  2.4400000000000D+00  0.0000000000000D+00  0.0000000000000D+00
246  2.4500000000000D+00  0.0000000000000D+00  0.0000000000000D+00
247  2.4600000000000D+00  0.0000000000000D+00  0.0000000000000D+00
248  2.4700000000000D+00  0.0000000000000D+00  0.0000000000000D+00
249  2.4800000000000D+00  0.0000000000000D+00  0.0000000000000D+00
250  2.4900000000000D+00  0.0000000000000D+00  0.0000000000000D+00
251  2.5000000000000D+00  0.0000000000000D+00  0.0000000000000D+00
252  2.5100000000000D+00  0.0000000000000D+00  0.0000000000000D+00
253  2.5200000000000D+00  0.0000000000000D+00  0.0000000000000D+00
254  2.5300000000000D+00  0.0000000000000D+00  0.0000000000000D+00
255  2.5400000000000D+00  0.0000000000000D+00  0.0000000000000D+00
256  2.5500000000000D+00  0.0000000000000D+00  0.0000000000000D+00
257  2.5600000000000D+00  0.0000000000000D+00  0.0000000000000D+00
258  2.5700000000000D+00  0.0000000000000D+00  0.0000000000000D+00
259  2.5800000000000D+00  0.0000000000000D+00  0.0000000000000D+00
260  2.5900000000000D+00  0.0000000000000D+00  0.0000000000000D+00
261  2.6000000000000D+00  0.0000000000000D+00  0.0000000000000D+00
262  2.6100000000000D+00  0.0000000000000D+00  0.0000000000000D+00
263  2.6200000000000D+00  0.0000000000000D+00  0.0000000000000D+00
264  2.6300000000000D+00  0.0000000000000D+00  0.0000000000000D+00
265  2.6400000000000D+00  0.0000000000000D+00  0.0000000000000D+00
266  2.6500000000000D+00  0.0000000000000D+00  0.0000000000000D+00
267  2.6600000000000D+00  0.0000000000000D+00  0.0000000000000D+00
268  2.6700000000000D+00  0.0000000000000D+00  0.0000000000000D+00
269  2.6800000000000D+00  0.0000000000000D+00  0.0000000000000D+00
270  2.6900000000000D+00  0.0000000000000D+00  0.0000000000000D+00
271  2.7000000000000D+00  0.0000000000000D+00  0.0000000000000D+00
272  2.7100000000000D+00  0.0000000000000D+00  0.0000000000000D+00
273  2.7200000000000D+00  0.0000000000000D+00  0.0000000000000D+00
274  2.7300000000000D+00  0.0000000000000D+00  0.0000000000000D+00
275  2.7400000000000D+00  0.0000000000000D+00  0.0000000000000D+00
276  2.7500000000000D+00  0.0000000000000D+00  0.0000000000000D+00
277  2.7600000000000D+00  0.0000000000000D+00  0.0000000000000D+00
278  2.7700000000000D+00  0.0000000000000D+00  0.0000000000000D+00
279  2.7800000000000D+00  0.0000000000000D+00  0.0000000000000D+00
280  2.7900000000000D+00  0.0000000000000D+00  0.0000000000000D+00
281  2.8000000000000D+00  0.0000000000000D+00  0.0000000000000D+00
282  2.8100000000000D+00  0.0000000000000D+00  0.0000000000000D+00
283  2.8200000000000D+00  0.0000000000000D+00  0.0000000000000D+00
284  2.8300000000000D+00  0.0000000000000D+00  0.0000000000000D+00
285  2.8400000000000D+00  0.0000000000000D+00  0.0000000000000D+00
286  2.8500000000000D+00  0.0000000000000D+00  0.0000000000000D+00
287  2.8600000000000D+00  0.0000000000000D+00  0.0000000000000D+00
288  2.8700000000000D+00  0.0000000000000D+00  0.0000000000000D+00
289  2.8800000000000D+00  0.0000000000000D+00  0.0000000000000D+00
290  2.8900000000000D+00  0.0000000000000D+00  0.0000000000000D+00
291  2.9000000000000D+00  0.0000000000000D+00  0.0000000000000D+00
292  2.9100000000000D+00  0.0000000000000D+00  0.0000000000000D+00
293  2.9200000000000D+00  0.0000000000000D+00  0.0000000000000D+00
294  2.9300000000000D+00  0.0000000000000D+00  0.0000000000000D+00
295  2.9400000000000D+00  0.0000000000000D+00  0.0000000000000D+00
296  2.9500000000000D+00  0.0000000000000D+00  0.0000000000000D+00
297  2.9600000000000D+00  0.0000000000000D+00  0.0000000000000D+00
298  2.9700000000000D+00  0.0000000000000D+00  0.0000000000000D+00
299  2.9800000000000D+00  0.0000000000000D+00  0.0000000000000D+00
300  2.9900000000000D+00  0.0000000000000D+00  0.0000000000000D+00
301  3.0000000000000D+00  0.0000000000000D+00  0.0000000000000D+00
302  3.0100000000000D+00  0.0000000000000D+00  0.0000000000000D+00
303  3.0200000000000D+00  0.0000000000000D+00  0.0000000000000D+00
304  3.0300000000000D+00  0.0000000000000D+00  0.0000000000000D+00
305  3.0400000000000D+00  0.0000000000000D+00  0.0000000000000D+00
306  3.0500000000000D+00  0.0000000000000D+00  0.0000000000000D+00
307  3.0600000000000D+00  0.0000000000000D+00  0.0000000000000D+00
308  3.0700000000000D+00  0.0000000000000D+00  0.0000000000000D+00
309  3.0800000000000D+00  0.0000000000000D+00  0.0000000000000D+00
310  3.0900000000000D+00  0.0000000000000D+00  0.0000000000000D+00
311  3.1000000000000D+00  0.0000000000000D+00  0.0000000000000D+00
312  3.1100000000000D+00  0.0000000000000D+00  0.0000000000000D+00
313  3.1200000000000D+00  0.0000000000000D+00  0.0000000000000D+00
314  3.1300000000000D+00  0.0000000000000D+00  0.0000000000000D+00
315  3.1400000000000D+00  0.0000000000000D+00  0.0000000000000D+00
316  3.1500000000000D+00  0.0000000000000D+00  0.0000000000000D+00
317  3.1600000000000D+00  0.0000000000000D+00  0.0000000000000D+00
318  3.1700000000000D+00  0.0000000000000D+00  0.0000000000000D+00
319  3.1800000000000D+00  0.0000000000000D+00  0.0000000000000D+00
320  3.1900000000000D+00  0.0000000000000D+00  0.0000000000000D+00
321  3.2000000000000D+00  0.0000000000000D+00  0.0000000000000D+00
322  3.2100000000000D+00  0.0000000000000D+00  0.0000000000000D+00
323  3.2200000000000D+00  0.0000000000000D+00  0.0000000000000D+00
324  3.2300000000000D+00  0.0000000000000D+00  0.0000000000000D+00
325  3.2400000000000D+00  0.0000000000000D+00  0.0000000000000D+00
326  3.2500000000000D+00  0.0000000000000D+00  0.0000000000000D+00
327  3.2600000000000D+00  0.0000000000000D+00  0.0000000000000D+00
328  3.2700000000000D+00  0.0000000000000D+00  0.0000000000000D+00
329  3.2800000000000D+00  0.0000000000000D+00  0.0000000000000D+00
330  3.2900000000000D+00  0.0000000000000D+00  0.0000000000000D+00
331  3.3000000000000D+00  0.0000000000000D+00  0.0000000000000D+00
332  3.3100000000000D+00  0.0000000000000D+00  0.0000000000000D+00
333  3.3200000000000D+00  0.0000000000000D+00  0.0000000000000D+00
334  3.3300000000000D+00  0.0000000000000D+00  0.0000000000000D+00
335  3.3400000000000D+00  0.0000000000000D+00  0.0000000000000D+00
336  3.3500000000000D+00  0.0000000000000D+00  0.0000000000000D+00
337  3.3600000000000D+00  0.0000000000000D+00  0.0000000000000D+00
338  3.3700000000000D+00  0.0000000000000D+00  0.0000000000000D+00
339  3.3800000000000D+00  0.0000000000000D+00  0.0000000000000D+00
340  3.3900000000000D+00  0.0000000000000D+00  0.0000000000000D+00
341  3.4000000000000D+00  0.0000000000000D+00  0.0000000000000D+00
342  3.4100000000000D+00  0.0000000000000D+00  0.0000000000000D+00
343  3.4200000000000D+00  0.0000000000000D+00  0.0000000000000D+00
344  3.4300000000000D+00  0.0000000000000D+00  0.0000000000000D+00
345  3.4400000000000D+00  0.0000000000000D+00  0.0000000000000D+00
346  3.4500000000000D+00  0.0000000000000D+00  0.0000000000000D+00
347  3.4600000000000D+00  0.0000000000000D+00  0.0000000000000D+00
348  3.4700000000000D+00  0.0000000000000D+00  0.0000000000000D+00
349  3.4800000000000D+00  0.0000000000000D+00  0.0000000000000D+00
350  3.4900000000000D+00  0.0000000000000D+00  0.0000000000000D+00
351  3.5000000000000D+00  0.0000000000000D+00  0.0000000000000D+00
352  3.5100000000000D+00  0.0000000000000D+00  0.0000000000000D+00
353  3.5200000000000D+00  0.0000000000000D+00  0.0000000000000D+00
354  3.5300000000000D+00  0.0000000000000D+00  0.0000000000000D+00
355  3.5400000000000D+00  0.0000000000000D+00  0.0000000000000D+00
356  3.5500000000000D+00  0.0000000000000D+00  0.0000000000000D+00
357  3.5600000000000D+00  0.0000000000000D+00  0.0000000000000D+00
358  3.5700000000000D+00  0.0000000000000D+00  0.0000000000000D+00
359  3.5800000000000D+00  0.0000000000000D+00  0.0000000000000D+00
360  3.5900000000000D+00  0.0000000000000D+00  0.0000000000000D+00
361  3.6000000000000D+00  0.0000000000000D+00  0.0000000000000D+00
362  3.6100000000000D+00  0.0000000000000D+00  0.0000000000000D+00
363  3.6200000000000D+00  0.0000000000000D+00  0.0000000000000D+00
364  3.6300000000000D+00  0.0000000000000D+00  0.0000000000000D+00
365  3.6400000000000D+00  0.0000000000000D+00  0.0000000000000D+00
366  3.6500000000000D+00  0.0000000000000D+00  0.0000000000000D+00
367  3.6600000000000D+00  0.0000000000000D+00  0.0000000000000D+00
368  3.6700000000000D+00  0.0000000000000D+00  0.0000000000000D+00
369  3.6800000000000D+00  0.0000000000000D+00  0.0000000000000D+00
370  3.6900000000000D+00  0.0000000000000D+00  0.0000000000000D+00
371  3.7000000000000D+00  0.0000000000000D+00  0.0000000000000D+00
372  3.7100000000000D+00  0.0000000000000D+00  0.0000000000000D+00
373  3.7200000000000D+00  0.0000000000000D+00  0.0000000000000D+00
374  3.7300000000000D+00  0.0000000000000D+00  0.0000000000000D+00
375  3.7400000000000D+00  0.0000000000000D+00  0.0000000000000D+00
376  3.7500000000000D+00  0.0000000000000D+00  0.0000000000000D+00
377  3.7600000000000D+00  0.0000000000000D+00  0.0000000000000D+00
378  3.7700000000000D+00  0.0000000000000D+00  0.0000000000000D+00
379  3.7800000000000D+00  0.0000000000000D+00  0.0000000000000D+00
380  3.7900000000000D+00  0.0000000000000D+00  0.0000000000000D+00
381  3.8000000000000D+00  0.0000000000000D+00  0.0000000000000D+00
382  3.8100000000000D+00  0.0000000000000D+00  0.0000000000000D+00
383  3.8200000000000D+00  0.0000000000000D+00  0.0000000000000D+00
384  3.8300000000000D+00  0.0000000000000D+00  0.0000000000000D+00
385  3.8400000000000D+00  0.0000000000000D+00  0.0000000000000D+00
386  3.8500000000000D+00  0.0000000000000D+00  0.0000000000000D+00
387  3.8600000000000D+00  0.0000000000000D+00  0.0000000000000D+00
388  3.8700000000000D+00  0.0000000000000D+00  0.0000000000000D+00
389  3.8800000000000D+00  0.0000000000000D+00  0.0000000000000D+00
390  3.8900000000000D+00  0.0000000000000D+00  0.0000000000000D+00
391  3.9000000000000D+00  0.0000000000000D+00  0.0000000000000D+00
392  3.9100000000000D+00  0.0000000000000D+00  0.0000000000000D+00
393  3.9200000000000D+00  0.0000000000000D+00  0.0000000000000D+00
394  3.9300000000000D+00  0.0000000000000D+00  0.0000000000000D+00
395  3.9400000000000D+00  0.0000000000000D+00  0.0000000000000D+00
396  3.9500000000000D+00  0.0000000000000D+00  0.0000000000000D+00
397  3.9600000000000D+00  0.0000000000000D+00  0.0000000000000D+00
398  3.9700000000000D+00  0.0000000000000D+00  0.0000000000000D+00
399  3.9800000000000D+00  0.0000000000000D+00  0.0000000000000D+00
400  3.9900000000000D+00  0.0000000000000D+00  0.0000000000000D+00
401  4.0000000000000D+00  0.0000000000000D+00  0.0000000000000D+00
402  4.0100000000000D+00  0.0000000000000D+00  0.0000000000000D+00
403  4.0200000000000D+00  0.0000000000000D+00  0.0000000000000D+00
404  4.0300000000000D+00  0.0000000000000D+00  0.0000000000000D+00
405  4.0400000000000D+00  0.0000000000000D+00  0.0000000000000D+00
406  4.0500000000000D+00  0.0000000000000D+00  0.0000000000000D+00
407  4.0600000000000D+00  0.0000000000000D+00  0.0000000000000D+00
408  4.0700000000000D+00  0.0000000000000D+00  0.0000000000000D+00
409  4.0800000000000D+00  0.0000000000000D+00  0.0000000000000D+00
410  4.0900000000000D+00  0.0000000000000D+00  0.0000000000000D+00
411  4.1000000000000D+00  0.0000000000000D+00  0.0000000000000D+00
412  4.1100000000000D+00  0.0000000000000D+00  0.0000000000000D+00
413  4.1200000000000D+00  0.0000000000000D+00  0.0000000000000D+00
414  4.1300000000000D+00  0.0000000000000D+00  0.0000000000000D+00
415  4.1400000000000D+00  0.0000000000000D+00  0.0000000000000D+00
416  4.1500000000000D+00  0.0000000000000D+00  0.0000000000000D+00
417  4.1600000000000D+00  0.0000000000000D+00  0.0000000000000D+00
418  4.1700000000000D+00  0.0000000000000D+00  0.0000000000000D+00
419  4.1800000000000D+00  0.0000000000000D+00  0.0000000000000D+00
420  4.1900000000000D+00  0.0000000000000D+00  0.0000000000000D+00
421  4.2000000000000D+00  0.0000000000000D+00  0.0000000000000D+00
422  4.2100000000000D+00  0.0000000000000D+00  0.0000000000000D+00
423  4.2200000000000D+00  0.0000000000000D+00  0.0000000000000D+00
424  4.2300000000000D+00  0.0000000000000D+00  0.0000000000000D+00
425  4.2400000000000D+00  0.0000000000000D+00  0.0000000000000D+00
426  4.2500000000000D+00  0.0000000000000D+00  0.0000000000000D+00
427  4.2600000000000D+00  0.0000000000000D+00  0.0000000000000D+00
428  4.2700000000000D+00  0.0000000000000D+00  0.0000000000000D+00
429  4.2800000000000D+00  0.0000000000000D+00  0.0000000000000D+00
430  4.2900000000000D+00  0.0000000000000D+00  0.0000000000000D+00
431  4.3000000000000D+00  0.0000000000000D+00  0.0000000000000D+00
432  4.3100000000000D+00  0.0000000000000D+00  0.0000000000000D+00
433  4.3200000000000D+00  0.0000000000000D+00  0.0000000000000D+00
434  4.3300000000000D+00  0.0000000000000D+00  0.0000000000000D+00
435  4.3400000000000D+00  0.0000000000000D+00  0.0000000000000D+00
436  4.3500000000000D+00  0.0000000000000D+00  0.0000000000000D+00
437  4.3600000000000D+00  0.0000000000000D+00  0.0000000000000D+00
438  4.3700000000000D+00  0.0000000000000D+00  0.0000000000000D+00
439  4.3800000000000D+00  0.0000000000000D+00  0.0000000000000D+00
440  4.3900000000000D+00  0.0000000000000D+00  0.0000000000000D+00
441  4.4000000000000D+00  0.0000000000000D+00  0.0000000000000D+00
442  4.4100000000000D+00  0.0000000000000D+00  0.0000000000000D+00
443  4.4200000000000D+00  0.0000000000000D+00  0.0000000000000D+00