Ca    ONCVPSP  r_core=  1.46  1.46  1.85
20.0000     10.0000      161004    zatom,zion,pspd
8 -116133   2     4   400     0    pspcod,pspxc,lmax,lloc,mmax,r2well
3.99000000  6.00000000  0.00000000    rchrg fchrg qchrg
2     2     2     0     0    nproj
1                 extension_switch
0                         9.7174994756279D+00  8.8827090350063D-01
1  0.0000000000000D+00 -5.6893123545620D-10  2.4208801074899D-09
2  1.0000000000000D-02  7.0173804397875D-02 -4.0133815008687D-02
3  2.0000000000000D-02  1.4017881191745D-01 -7.9956609621196D-02
4  3.0000000000000D-02  2.0984716417468D-01 -1.1916061640405D-01
5  4.0000000000000D-02  2.7901286919111D-01 -1.5744452973011D-01
6  5.0000000000000D-02  3.4751270828663D-01 -1.9451662701094D-01
7  6.0000000000000D-02  4.1518711181085D-01 -2.3009776007085D-01
8  7.0000000000000D-02  4.8188099400396D-01 -2.6392417626137D-01
9  8.0000000000000D-02  5.4744453784694D-01 -2.9575013133588D-01
10  9.0000000000000D-02  6.1173392145719D-01 -3.2535025906612D-01
11  1.0000000000000D-01  6.7461197839864D-01 -3.5252166604441D-01
12  1.1000000000000D-01  7.3594878519505D-01 -3.7708572402854D-01
13  1.2000000000000D-01  7.9562217034679D-01 -3.9888953649614D-01
14  1.3000000000000D-01  8.5351814024255D-01 -4.1780706072157D-01
15  1.4000000000000D-01  9.0953121851087D-01 -4.3373987160470D-01
16  1.5000000000000D-01  9.6356469655741D-01 -4.4661755859985D-01
17  1.6000000000000D-01  1.0155307942642D+00 -4.5639775234083D-01
18  1.7000000000000D-01  1.0653507310696D+00 -4.6306578286090D-01
19  1.8000000000000D-01  1.1129547088865D+00 -4.6663397659050D-01
20  1.9000000000000D-01  1.1582818095273D+00 -4.6714060450252D-01
21  2.0000000000000D-01  1.2012798104827D+00 -4.6464849879536D-01
22  2.1000000000000D-01  1.2419049240119D+00 -4.5924336028077D-01
23  2.2000000000000D-01  1.2801214655500D+00 -4.5103178311262D-01
24  2.3000000000000D-01  1.3159014583867D+00 -4.4013902758552D-01
25  2.4000000000000D-01  1.3492241824261D+00 -4.2670657539203D-01
26  2.5000000000000D-01  1.3800756755691D+00 -4.1088950489762D-01
27  2.6000000000000D-01  1.4084481968713D+00 -3.9285372662805D-01
28  2.7000000000000D-01  1.4343396611025D+00 -3.7277312122385D-01
29  2.8000000000000D-01  1.4577530546629D+00 -3.5082662356816D-01
30  2.9000000000000D-01  1.4786958429943D+00 -3.2719529761590D-01
31  3.0000000000000D-01  1.4971793796560D+00 -3.0205944662631D-01
32  3.1000000000000D-01  1.5132183271100D+00 -2.7559580302429D-01
33  3.2000000000000D-01  1.5268300989882D+00 -2.4797484098953D-01
34  3.3000000000000D-01  1.5380343331918D+00 -2.1935825311096D-01
35  3.4000000000000D-01  1.5468524046045D+00 -1.8989663006770D-01
36  3.5000000000000D-01  1.5533069855047D+00 -1.5972737933690D-01
37  3.6000000000000D-01  1.5574216609287D+00 -1.2897291542375D-01
38  3.7000000000000D-01  1.5592206053000D+00 -9.7739150106207D-02
39  3.8000000000000D-01  1.5587283255920D+00 -6.6114306738862D-02
40  3.9000000000000D-01  1.5559694751626D+00 -3.4168077831953D-02
41  4.0000000000000D-01  1.5509687411972D+00 -1.9511399762100D-03
42  4.1000000000000D-01  1.5437508074405D+00  3.0504965204202D-02
43  4.2000000000000D-01  1.5343403926070D+00  6.3187580944336D-02
44  4.3000000000000D-01  1.5227623635533D+00  9.6102318593899D-02
45  4.4000000000000D-01  1.5090419209888D+00  1.2927208240530D-01
46  4.5000000000000D-01  1.4932048542189D+00  1.6273574959977D-01
47  4.6000000000000D-01  1.4752778601740D+00  1.9654652487959D-01
48  4.7000000000000D-01  1.4552889207935D+00  2.3076999373859D-01
49  4.8000000000000D-01  1.4332677317334D+00  2.6548190379644D-01
50  4.9000000000000D-01  1.4092461743557D+00  3.0076570786700D-01
51  5.0000000000000D-01  1.3832588220631D+00  3.3670990650204D-01
52  5.1000000000000D-01  1.3553434712716D+00  3.7340523126330D-01
53  5.2000000000000D-01  1.3255416866829D+00  4.1094171291482D-01
54  5.3000000000000D-01  1.2938993500379D+00  4.4940568104270D-01
55  5.4000000000000D-01  1.2604672012115D+00  4.8887674326285D-01
56  5.5000000000000D-01  1.2253013603528D+00  5.2942479313804D-01
57  5.6000000000000D-01  1.1884638197908D+00  5.7110709617190D-01
58  5.7000000000000D-01  1.1500228946136D+00  6.1396550276736D-01
59  5.8000000000000D-01  1.1100536211900D+00  6.5802383583261D-01
60  5.9000000000000D-01  1.0686380934305D+00  7.0328549879442D-01
61  6.0000000000000D-01  1.0258657272812D+00  7.4973134716181D-01
62  6.1000000000000D-01  9.8183344479224D-01  7.9731786349158D-01
63  6.2000000000000D-01  9.3664577009894D-01  8.4597567170787D-01
64  6.3000000000000D-01  8.9041483078582D-01  8.9560842221785D-01
65  6.4000000000000D-01  8.4326025934934D-01  9.4609207428187D-01
66  6.5000000000000D-01  7.9530899082979D-01  9.9727459661861D-01
67  6.6000000000000D-01  7.4669495412074D-01  1.0489761013845D+00
68  6.7000000000000D-01  6.9755865596077D-01  1.1009894205483D+00
69  6.8000000000000D-01  6.4804665816448D-01  1.1530811273054D+00
70  6.9000000000000D-01  5.9831095021531D-01  1.2049929987121D+00
71  7.0000000000000D-01  5.4850822091508D-01  1.2564439091954D+00
72  7.1000000000000D-01  4.9879903432576D-01  1.3071321381717D+00
73  7.2000000000000D-01  4.4934691675090D-01  1.3567380686702D+00
74  7.3000000000000D-01  4.0031736293324D-01  1.4049272478297D+00
75  7.4000000000000D-01  3.5187677099465D-01  1.4513537744156D+00
76  7.5000000000000D-01  3.0419131688395D-01  1.4956639731969D+00
77  7.6000000000000D-01  2.5742578020543D-01  1.5375003112464D+00
78  7.7000000000000D-01  2.1174233426918D-01  1.5765055069906D+00
79  7.8000000000000D-01  1.6729931400486D-01  1.6123267792672D+00
80  7.9000000000000D-01  1.2424997600862D-01  1.6446201807796D+00
81  8.0000000000000D-01  8.2741265433711D-02  1.6730549582058D+00
82  8.1000000000000D-01  4.2912604680797D-02  1.6973178798929D+00
83  8.2000000000000D-01  4.8947188874843D-03  1.7171174715473D+00
84  8.3000000000000D-01 -3.1191486944585D-02  1.7321881006508D+00
85  8.4000000000000D-01 -6.5235984713714D-02  1.7422938514882D+00
86  8.5000000000000D-01 -9.7140599971702D-02  1.7472321346574D+00
87  8.6000000000000D-01 -1.2681989553302D-01  1.7468369777339D+00
88  8.7000000000000D-01 -1.5420194976272D-01  1.7409819473381D+00
89  8.8000000000000D-01 -1.7922901850150D-01  1.7295826571716D+00
90  8.9000000000000D-01 -2.0185807088662D-01  1.7125988215882D+00
91  9.0000000000000D-01 -2.2206119077596D-01  1.6900358198865D+00
92  9.1000000000000D-01 -2.3982583706107D-01  1.6619457426766D+00
93  9.2000000000000D-01 -2.5515495784338D-01  1.6284278983031D+00
94  9.3000000000000D-01 -2.6806695522313D-01  1.5896287643146D+00
95  9.4000000000000D-01 -2.7859549928926D-01  1.5457413762491D+00
96  9.5000000000000D-01 -2.8678919177596D-01  1.4970041534692D+00
97  9.6000000000000D-01 -2.9271108173880D-01  1.4436991693045D+00
98  9.7000000000000D-01 -2.9643803749572D-01  1.3861498803228D+00
99  9.8000000000000D-01 -2.9805998088198D-01  1.3247183367829D+00
100  9.9000000000000D-01 -2.9767899167151D-01  1.2598019035673D+00
101  1.0000000000000D+00 -2.9540829168887D-01  1.1918295276269D+00
102  1.0100000000000D+00 -2.9137111969466D-01  1.1212575942675D+00
103  1.0200000000000D+00 -2.8569950956140D-01  1.0485654204117D+00
104  1.0300000000000D+00 -2.7853298552262D-01  9.7425043811540D-01
105  1.0400000000000D+00 -2.7001718938833D-01  8.9882312614769D-01
106  1.0500000000000D+00 -2.6030245545869D-01  8.2280175087644D-01
107  1.0600000000000D+00 -2.4954234964580D-01  7.4670698091932D-01
108  1.0700000000000D+00 -2.3789218971210D-01  6.7105644169470D-01
109  1.0800000000000D+00 -2.2550756381251D-01  5.9635927721270D-01
110  1.0900000000000D+00 -2.1254286448729D-01  5.2311078637306D-01
111  1.1000000000000D+00 -1.9914985511719D-01  4.5178720056234D-01
112  1.1100000000000D+00 -1.8547628531195D-01  3.8284066726679D-01
113  1.1200000000000D+00 -1.7166457107229D-01  3.1669450194544D-01
114  1.1300000000000D+00 -1.5785055456023D-01  2.5373876644607D-01
115  1.1400000000000D+00 -1.4416235737278D-01  1.9432622852745D-01
116  1.1500000000000D+00 -1.3071933979740D-01  1.3876875142408D-01
117  1.1600000000000D+00 -1.1763117704433D-01  8.7334156479582D-02
118  1.1700000000000D+00 -1.0499706165286D-01  4.0243594695530D-02
119  1.1800000000000D+00 -9.2905040013656D-02 -2.3305419701099D-03
120  1.1900000000000D+00 -8.1431488486728D-02 -4.0266148570794D-02
121  1.2000000000000D+00 -7.0640732828480D-02 -7.3492360502518D-02
122  1.2100000000000D+00 -6.0584812569877D-02 -1.0198992659593D-01
123  1.2200000000000D+00 -5.1303390424891D-02 -1.2579100263351D-01
124  1.2300000000000D+00 -4.2823803862288D-02 -1.4497837777950D-01
125  1.2400000000000D+00 -3.5161254217239D-02 -1.5968415346372D-01
126  1.2500000000000D+00 -2.8319127812181D-02 -1.7008789789990D-01
127  1.2600000000000D+00 -2.2289439931203D-02 -1.7641431397820D-01
128  1.2700000000000D+00 -1.7053390138012D-02 -1.7893046974453D-01
129  1.2800000000000D+00 -1.2582026785700D-02 -1.7794258837413D-01
130  1.2900000000000D+00 -8.8369756057891D-03 -1.7379262343143D-01
131  1.3000000000000D+00 -5.7713472011192D-03 -1.6685398446110D-01
132  1.3100000000000D+00 -3.3303381426248D-03 -1.5752900065236D-01
133  1.3200000000000D+00 -1.4526677377455D-03 -1.4624194284458D-01
134  1.3300000000000D+00 -7.2683504147585D-05 -1.3342846858928D-01
135  1.3400000000000D+00  8.7731896655545D-04 -1.1952445725249D-01
136  1.3500000000000D+00  1.4651520367026D-03 -1.0495701825408D-01
137  1.3600000000000D+00  1.7576666046391D-03 -9.0140394128876D-02
138  1.3700000000000D+00  1.8194058989825D-03 -7.5470262899346D-02
139  1.3800000000000D+00  1.7113819031692D-03 -6.1318652879855D-02
140  1.3900000000000D+00  1.4899157619699D-03 -4.8029119859025D-02
141  1.4000000000000D+00  1.2055764079744D-03 -3.5912348777706D-02
142  1.4100000000000D+00  9.0235804621292D-04 -2.5245155858486D-02
143  1.4200000000000D+00  6.1642930103619D-04 -1.6258075472841D-02
144  1.4300000000000D+00  3.7325105146990D-04 -9.0952501936931D-03
145  1.4400000000000D+00  1.9824892829808D-04 -4.0106008044278D-03
146  1.4500000000000D+00  1.0897331157596D-04 -1.2013748488634D-03
147  1.4600000000000D+00  6.4831272749154D-05 -1.2460460072013D-04
148  1.4700000000000D+00  2.0884159630854D-05  5.5543397310116D-05
149  1.4800000000000D+00 -4.4498949945065D-06 -2.0335279629669D-05
150  1.4900000000000D+00 -3.1328879001846D-06 -1.8918926109468D-05
151  1.5000000000000D+00  1.2691971583541D-06  4.1034926118039D-06
152  1.5100000000000D+00  4.1907408470206D-07  1.5673925352882D-06
153  1.5200000000000D+00 -1.9799316887762D-07  5.3486723964368D-07
154  1.5300000000000D+00 -4.8156003842413D-09  1.3009069450968D-08
155  1.5400000000000D+00  0.0000000000000D+00  0.0000000000000D+00
156  1.5500000000000D+00  0.0000000000000D+00  0.0000000000000D+00
157  1.5600000000000D+00  0.0000000000000D+00  0.0000000000000D+00
158  1.5700000000000D+00  0.0000000000000D+00  0.0000000000000D+00
159  1.5800000000000D+00  0.0000000000000D+00  0.0000000000000D+00
160  1.5900000000000D+00  0.0000000000000D+00  0.0000000000000D+00
161  1.6000000000000D+00  0.0000000000000D+00  0.0000000000000D+00
162  1.6100000000000D+00  0.0000000000000D+00  0.0000000000000D+00
163  1.6200000000000D+00  0.0000000000000D+00  0.0000000000000D+00
164  1.6300000000000D+00  0.0000000000000D+00  0.0000000000000D+00
165  1.6400000000000D+00  0.0000000000000D+00  0.0000000000000D+00
166  1.6500000000000D+00  0.0000000000000D+00  0.0000000000000D+00
167  1.6600000000000D+00  0.0000000000000D+00  0.0000000000000D+00
168  1.6700000000000D+00  0.0000000000000D+00  0.0000000000000D+00
169  1.6800000000000D+00  0.0000000000000D+00  0.0000000000000D+00
170  1.6900000000000D+00  0.0000000000000D+00  0.0000000000000D+00
171  1.7000000000000D+00  0.0000000000000D+00  0.0000000000000D+00
172  1.7100000000000D+00  0.0000000000000D+00  0.0000000000000D+00
173  1.7200000000000D+00  0.0000000000000D+00  0.0000000000000D+00
174  1.7300000000000D+00  0.0000000000000D+00  0.0000000000000D+00
175  1.7400000000000D+00  0.0000000000000D+00  0.0000000000000D+00
176  1.7500000000000D+00  0.0000000000000D+00  0.0000000000000D+00
177  1.7600000000000D+00  0.0000000000000D+00  0.0000000000000D+00
178  1.7700000000000D+00  0.0000000000000D+00  0.0000000000000D+00
179  1.7800000000000D+00  0.0000000000000D+00  0.0000000000000D+00
180  1.7900000000000D+00  0.0000000000000D+00  0.0000000000000D+00
181  1.8000000000000D+00  0.0000000000000D+00  0.0000000000000D+00
182  1.8100000000000D+00  0.0000000000000D+00  0.0000000000000D+00
183  1.8200000000000D+00  0.0000000000000D+00  0.0000000000000D+00
184  1.8300000000000D+00  0.0000000000000D+00  0.0000000000000D+00
185  1.8400000000000D+00  0.0000000000000D+00  0.0000000000000D+00
186  1.8500000000000D+00  0.0000000000000D+00  0.0000000000000D+00
187  1.8600000000000D+00  0.0000000000000D+00  0.0000000000000D+00
188  1.8700000000000D+00  0.0000000000000D+00  0.0000000000000D+00
189  1.8800000000000D+00  0.0000000000000D+00  0.0000000000000D+00
190  1.8900000000000D+00  0.0000000000000D+00  0.0000000000000D+00
191  1.9000000000000D+00  0.0000000000000D+00  0.0000000000000D+00
192  1.9100000000000D+00  0.0000000000000D+00  0.0000000000000D+00
193  1.9200000000000D+00  0.0000000000000D+00  0.0000000000000D+00
194  1.9300000000000D+00  0.0000000000000D+00  0.0000000000000D+00
195  1.9400000000000D+00  0.0000000000000D+00  0.0000000000000D+00
196  1.9500000000000D+00  0.0000000000000D+00  0.0000000000000D+00
197  1.9600000000000D+00  0.0000000000000D+00  0.0000000000000D+00
198  1.9700000000000D+00  0.0000000000000D+00  0.0000000000000D+00
199  1.9800000000000D+00  0.0000000000000D+00  0.0000000000000D+00
200  1.9900000000000D+00  0.0000000000000D+00  0.0000000000000D+00
201  2.0000000000000D+00  0.0000000000000D+00  0.0000000000000D+00
202  2.0100000000000D+00  0.0000000000000D+00  0.0000000000000D+00
203  2.0200000000000D+00  0.0000000000000D+00  0.0000000000000D+00
204  2.0300000000000D+00  0.0000000000000D+00  0.0000000000000D+00
205  2.0400000000000D+00  0.0000000000000D+00  0.0000000000000D+00
206  2.0500000000000D+00  0.0000000000000D+00  0.0000000000000D+00
207  2.0600000000000D+00  0.0000000000000D+00  0.0000000000000D+00
208  2.0700000000000D+00  0.0000000000000D+00  0.0000000000000D+00
209  2.0800000000000D+00  0.0000000000000D+00  0.0000000000000D+00
210  2.0900000000000D+00  0.0000000000000D+00  0.0000000000000D+00
211  2.1000000000000D+00  0.0000000000000D+00  0.0000000000000D+00
212  2.1100000000000D+00  0.0000000000000D+00  0.0000000000000D+00
213  2.1200000000000D+00  0.0000000000000D+00  0.0000000000000D+00
214  2.1300000000000D+00  0.0000000000000D+00  0.0000000000000D+00
215  2.1400000000000D+00  0.0000000000000D+00  0.0000000000000D+00
216  2.1500000000000D+00  0.0000000000000D+00  0.0000000000000D+00
217  2.1600000000000D+00  0.0000000000000D+00  0.0000000000000D+00
218  2.1700000000000D+00  0.0000000000000D+00  0.0000000000000D+00
219  2.1800000000000D+00  0.0000000000000D+00  0.0000000000000D+00
220  2.1900000000000D+00  0.0000000000000D+00  0.0000000000000D+00
221  2.2000000000000D+00  0.0000000000000D+00  0.0000000000000D+00
222  2.2100000000000D+00  0.0000000000000D+00  0.0000000000000D+00
223  2.2200000000000D+00  0.0000000000000D+00  0.0000000000000D+00
224  2.2300000000000D+00  0.0000000000000D+00  0.0000000000000D+00
225  2.2400000000000D+00  0.0000000000000D+00  0.0000000000000D+00
226  2.2500000000000D+00  0.0000000000000D+00  0.0000000000000D+00
227  2.2600000000000D+00  0.0000000000000D+00  0.0000000000000D+00
228  2.2700000000000D+00  0.0000000000000D+00  0.0000000000000D+00
229  2.2800000000000D+00  0.0000000000000D+00  0.0000000000000D+00
230  2.2900000000000D+00  0.0000000000000D+00  0.0000000000000D+00
231  2.3000000000000D+00  0.0000000000000D+00  0.0000000000000D+00
232  2.3100000000000D+00  0.0000000000000D+00  0.0000000000000D+00
233  2.3200000000000D+00  0.0000000000000D+00  0.0000000000000D+00
234  2.3300000000000D+00  0.0000000000000D+00  0.0000000000000D+00
235  2.3400000000000D+00  0.0000000000000D+00  0.0000000000000D+00
236  2.3500000000000D+00  0.0000000000000D+00  0.0000000000000D+00
237  2.3600000000000D+00  0.0000000000000D+00  0.0000000000000D+00
238  2.3700000000000D+00  0.0000000000000D+00  0.0000000000000D+00
239  2.3800000000000D+00  0.0000000000000D+00  0.0000000000000D+00
240  2.3900000000000D+00  0.0000000000000D+00  0.0000000000000D+00
241  2.4000000000000D+00  0.0000000000000D+00  0.0000000000000D+00
242  2.4100000000000D+00  0.0000000000000D+00  0.0000000000000D+00
243  2.4200000000000D+00  0.0000000000000D+00  0.0000000000000D+00
244  2.4300000000000D+00  0.0000000000000D+00  0.0000000000000D+00
245  2.4400000000000D+00  0.0000000000000D+00  0.0000000000000D+00
246  2.4500000000000D+00  0.0000000000000D+00  0.0000000000000D+00
247  2.4600000000000D+00  0.0000000000000D+00  0.0000000000000D+00
248  2.4700000000000D+00  0.0000000000000D+00  0.0000000000000D+00
249  2.4800000000000D+00  0.0000000000000D+00  0.0000000000000D+00
250  2.4900000000000D+00  0.0000000000000D+00  0.0000000000000D+00
251  2.5000000000000D+00  0.0000000000000D+00  0.0000000000000D+00
252  2.5100000000000D+00  0.0000000000000D+00  0.0000000000000D+00
253  2.5200000000000D+00  0.0000000000000D+00  0.0000000000000D+00
254  2.5300000000000D+00  0.0000000000000D+00  0.0000000000000D+00
255  2.5400000000000D+00  0.0000000000000D+00  0.0000000000000D+00
256  2.5500000000000D+00  0.0000000000000D+00  0.0000000000000D+00
257  2.5600000000000D+00  0.0000000000000D+00  0.0000000000000D+00
258  2.5700000000000D+00  0.0000000000000D+00  0.0000000000000D+00
259  2.5800000000000D+00  0.0000000000000D+00  0.0000000000000D+00
260  2.5900000000000D+00  0.0000000000000D+00  0.0000000000000D+00
261  2.6000000000000D+00  0.0000000000000D+00  0.0000000000000D+00
262  2.6100000000000D+00  0.0000000000000D+00  0.0000000000000D+00
263  2.6200000000000D+00  0.0000000000000D+00  0.0000000000000D+00
264  2.6300000000000D+00  0.0000000000000D+00  0.0000000000000D+00
265  2.6400000000000D+00  0.0000000000000D+00  0.0000000000000D+00
266  2.6500000000000D+00  0.0000000000000D+00  0.0000000000000D+00
267  2.6600000000000D+00  0.0000000000000D+00  0.0000000000000D+00
268  2.6700000000000D+00  0.0000000000000D+00  0.0000000000000D+00
269  2.6800000000000D+00  0.0000000000000D+00  0.0000000000000D+00
270  2.6900000000000D+00  0.0000000000000D+00  0.0000000000000D+00
271  2.7000000000000D+00  0.0000000000000D+00  0.0000000000000D+00
272  2.7100000000000D+00  0.0000000000000D+00  0.0000000000000D+00
273  2.7200000000000D+00  0.0000000000000D+00  0.0000000000000D+00
274  2.7300000000000D+00  0.0000000000000D+00  0.0000000000000D+00
275  2.7400000000000D+00  0.0000000000000D+00  0.0000000000000D+00
276  2.7500000000000D+00  0.0000000000000D+00  0.0000000000000D+00
277  2.7600000000000D+00  0.0000000000000D+00  0.0000000000000D+00
278  2.7700000000000D+00  0.0000000000000D+00  0.0000000000000D+00
279  2.7800000000000D+00  0.0000000000000D+00  0.0000000000000D+00
280  2.7900000000000D+00  0.0000000000000D+00  0.0000000000000D+00
281  2.8000000000000D+00  0.0000000000000D+00  0.0000000000000D+00
282  2.8100000000000D+00  0.0000000000000D+00  0.0000000000000D+00
283  2.8200000000000D+00  0.0000000000000D+00  0.0000000000000D+00
284  2.8300000000000D+00  0.0000000000000D+00  0.0000000000000D+00
285  2.8400000000000D+00  0.0000000000000D+00  0.0000000000000D+00
286  2.8500000000000D+00  0.0000000000000D+00  0.0000000000000D+00
287  2.8600000000000D+00  0.0000000000000D+00  0.0000000000000D+00
288  2.8700000000000D+00  0.0000000000000D+00  0.0000000000000D+00
289  2.8800000000000D+00  0.0000000000000D+00  0.0000000000000D+00
290  2.8900000000000D+00  0.0000000000000D+00  0.0000000000000D+00
291  2.9000000000000D+00  0.0000000000000D+00  0.0000000000000D+00
292  2.9100000000000D+00  0.0000000000000D+00  0.0000000000000D+00
293  2.9200000000000D+00  0.0000000000000D+00  0.0000000000000D+00
294  2.9300000000000D+00  0.0000000000000D+00  0.0000000000000D+00
295  2.9400000000000D+00  0.0000000000000D+00  0.0000000000000D+00
296  2.9500000000000D+00  0.0000000000000D+00  0.0000000000000D+00
297  2.9600000000000D+00  0.0000000000000D+00  0.0000000000000D+00
298  2.9700000000000D+00  0.0000000000000D+00  0.0000000000000D+00
299  2.9800000000000D+00  0.0000000000000D+00  0.0000000000000D+00
300  2.9900000000000D+00  0.0000000000000D+00  0.0000000000000D+00
301  3.0000000000000D+00  0.0000000000000D+00  0.0000000000000D+00
302  3.0100000000000D+00  0.0000000000000D+00  0.0000000000000D+00
303  3.0200000000000D+00  0.0000000000000D+00  0.0000000000000D+00
304  3.0300000000000D+00  0.0000000000000D+00  0.0000000000000D+00
305  3.0400000000000D+00  0.0000000000000D+00  0.0000000000000D+00
306  3.0500000000000D+00  0.0000000000000D+00  0.0000000000000D+00
307  3.0600000000000D+00  0.0000000000000D+00  0.0000000000000D+00
308  3.0700000000000D+00  0.0000000000000D+00  0.0000000000000D+00
309  3.0800000000000D+00  0.0000000000000D+00  0.0000000000000D+00
310  3.0900000000000D+00  0.0000000000000D+00  0.0000000000000D+00
311  3.1000000000000D+00  0.0000000000000D+00  0.0000000000000D+00
312  3.1100000000000D+00  0.0000000000000D+00  0.0000000000000D+00
313  3.1200000000000D+00  0.0000000000000D+00  0.0000000000000D+00
314  3.1300000000000D+00  0.0000000000000D+00  0.0000000000000D+00
315  3.1400000000000D+00  0.0000000000000D+00  0.0000000000000D+00
316  3.1500000000000D+00  0.0000000000000D+00  0.0000000000000D+00
317  3.1600000000000D+00  0.0000000000000D+00  0.0000000000000D+00
318  3.1700000000000D+00  0.0000000000000D+00  0.0000000000000D+00
319  3.1800000000000D+00  0.0000000000000D+00  0.0000000000000D+00
320  3.1900000000000D+00  0.0000000000000D+00  0.0000000000000D+00
321  3.2000000000000D+00  0.0000000000000D+00  0.0000000000000D+00
322  3.2100000000000D+00  0.0000000000000D+00  0.0000000000000D+00
323  3.2200000000000D+00  0.0000000000000D+00  0.0000000000000D+00
324  3.2300000000000D+00  0.0000000000000D+00  0.0000000000000D+00
325  3.2400000000000D+00  0.0000000000000D+00  0.0000000000000D+00
326  3.2500000000000D+00  0.0000000000000D+00  0.0000000000000D+00
327  3.2600000000000D+00  0.0000000000000D+00  0.0000000000000D+00
328  3.2700000000000D+00  0.0000000000000D+00  0.0000000000000D+00
329  3.2800000000000D+00  0.0000000000000D+00  0.0000000000000D+00
330  3.2900000000000D+00  0.0000000000000D+00  0.0000000000000D+00
331  3.3000000000000D+00  0.0000000000000D+00  0.0000000000000D+00
332  3.3100000000000D+00  0.0000000000000D+00  0.0000000000000D+00
333  3.3200000000000D+00  0.0000000000000D+00  0.0000000000000D+00
334  3.3300000000000D+00  0.0000000000000D+00  0.0000000000000D+00
335  3.3400000000000D+00  0.0000000000000D+00  0.0000000000000D+00
336  3.3500000000000D+00  0.0000000000000D+00  0.0000000000000D+00
337  3.3600000000000D+00  0.0000000000000D+00  0.0000000000000D+00
338  3.3700000000000D+00  0.0000000000000D+00  0.0000000000000D+00
339  3.3800000000000D+00  0.0000000000000D+00  0.0000000000000D+00
340  3.3900000000000D+00  0.0000000000000D+00  0.0000000000000D+00
341  3.4000000000000D+00  0.0000000000000D+00  0.0000000000000D+00
342  3.4100000000000D+00  0.0000000000000D+00  0.0000000000000D+00
343  3.4200000000000D+00  0.0000000000000D+00  0.0000000000000D+00
344  3.4300000000000D+00  0.0000000000000D+00  0.0000000000000D+00
345  3.4400000000000D+00  0.0000000000000D+00  0.0000000000000D+00
346  3.4500000000000D+00  0.0000000000000D+00  0.0000000000000D+00
347  3.4600000000000D+00  0.0000000000000D+00  0.0000000000000D+00
348  3.4700000000000D+00  0.0000000000000D+00  0.0000000000000D+00
349  3.4800000000000D+00  0.0000000000000D+00  0.0000000000000D+00
350  3.4900000000000D+00  0.0000000000000D+00  0.0000000000000D+00
351  3.5000000000000D+00  0.0000000000000D+00  0.0000000000000D+00
352  3.5100000000000D+00  0.0000000000000D+00  0.0000000000000D+00
353  3.5200000000000D+00  0.0000000000000D+00  0.0000000000000D+00
354  3.5300000000000D+00  0.0000000000000D+00  0.0000000000000D+00
355  3.5400000000000D+00  0.0000000000000D+00  0.0000000000000D+00
356  3.5500000000000D+00  0.0000000000000D+00  0.0000000000000D+00
357  3.5600000000000D+00  0.0000000000000D+00  0.0000000000000D+00
358  3.5700000000000D+00  0.0000000000000D+00  0.0000000000000D+00
359  3.5800000000000D+00  0.0000000000000D+00  0.0000000000000D+00
360  3.5900000000000D+00  0.0000000000000D+00  0.0000000000000D+00
361  3.6000000000000D+00  0.0000000000000D+00  0.0000000000000D+00
362  3.6100000000000D+00  0.0000000000000D+00  0.0000000000000D+00
363  3.6200000000000D+00  0.0000000000000D+00  0.0000000000000D+00
364  3.6300000000000D+00  0.0000000000000D+00  0.0000000000000D+00
365  3.6400000000000D+00  0.0000000000000D+00  0.0000000000000D+00
366  3.6500000000000D+00  0.0000000000000D+00  0.0000000000000D+00
367  3.6600000000000D+00  0.0000000000000D+00  0.0000000000000D+00
368  3.6700000000000D+00  0.0000000000000D+00  0.0000000000000D+00
369  3.6800000000000D+00  0.0000000000000D+00  0.0000000000000D+00
370  3.6900000000000D+00  0.0000000000000D+00  0.0000000000000D+00
371  3.7000000000000D+00  0.0000000000000D+00  0.0000000000000D+00
372  3.7100000000000D+00  0.0000000000000D+00  0.0000000000000D+00
373  3.7200000000000D+00  0.0000000000000D+00  0.0000000000000D+00
374  3.7300000000000D+00  0.0000000000000D+00  0.0000000000000D+00
375  3.7400000000000D+00  0.0000000000000D+00  0.0000000000000D+00
376  3.7500000000000D+00  0.0000000000000D+00  0.0000000000000D+00
377  3.7600000000000D+00  0.0000000000000D+00  0.0000000000000D+00
378  3.7700000000000D+00  0.0000000000000D+00  0.0000000000000D+00
379  3.7800000000000D+00  0.0000000000000D+00  0.0000000000000D+00
380  3.7900000000000D+00  0.0000000000000D+00  0.0000000000000D+00
381  3.8000000000000D+00  0.0000000000000D+00  0.0000000000000D+00
382  3.8100000000000D+00  0.0000000000000D+00  0.0000000000000D+00
383  3.8200000000000D+00  0.0000000000000D+00  0.0000000000000D+00
384  3.8300000000000D+00  0.0000000000000D+00  0.0000000000000D+00
385  3.8400000000000D+00  0.0000000000000D+00  0.0000000000000D+00
386  3.8500000000000D+00  0.0000000000000D+00  0.0000000000000D+00
387  3.8600000000000D+00  0.0000000000000D+00  0.0000000000000D+00
388  3.8700000000000D+00  0.0000000000000D+00  0.0000000000000D+00
389  3.8800000000000D+00  0.0000000000000D+00  0.0000000000000D+00
390  3.8900000000000D+00  0.0000000000000D+00  0.0000000000000D+00
391  3.9000000000000D+00  0.0000000000000D+00  0.0000000000000D+00
392  3.9100000000000D+00  0.0000000000000D+00  0.0000000000000D+00
393  3.9200000000000D+00  0.0000000000000D+00  0.0000000000000D+00
394  3.9300000000000D+00  0.0000000000000D+00  0.0000000000000D+00
395  3.9400000000000D+00  0.0000000000000D+00  0.0000000000000D+00
396  3.9500000000000D+00  0.0000000000000D+00  0.0000000000000D+00
397  3.9600000000000D+00  0.0000000000000D+00  0.0000000000000D+00
398  3.9700000000000D+00  0.0000000000000D+00  0.0000000000000D+00
399  3.9800000000000D+00  0.0000000000000D+00  0.0000000000000D+00
400  3.9900000000000D+00  0.0000000000000D+00  0.0000000000000D+00
1                         2.8294226491455D+00  5.6825690740449D-01
1  0.0000000000000D+00  1.5545343928780D-08 -3.2669936173013D-08
2  1.0000000000000D-02  2.5131032456938D-03 -2.1737663872565D-03
3  2.0000000000000D-02  1.0020670139935D-02 -8.6389610164060D-03
4  3.0000000000000D-02  2.2427996761820D-02 -1.9228340918896D-02
5  4.0000000000000D-02  3.9578982989334D-02 -3.3666717755586D-02
6  5.0000000000000D-02  6.1258710957218D-02 -5.1576217166889D-02
7  6.0000000000000D-02  8.7196993111912D-02 -7.2483511875881D-02
8  7.0000000000000D-02  1.1707282931988D-01 -9.5828901191177D-02
9  8.0000000000000D-02  1.5051969694025D-01 -1.2097707688640D-01
10  9.0000000000000D-02  1.8713158350175D-01 -1.4722938546404D-01
11  1.0000000000000D-01  2.2646965886768D-01 -1.7383737005439D-01
12  1.1000000000000D-01  2.6806947274775D-01 -2.0001735211167D-01
13  1.2000000000000D-01  3.1144855430659D-01 -2.2496579404276D-01
14  1.3000000000000D-01  3.5611428358394D-01 -2.4787516927170D-01
15  1.4000000000000D-01  4.0157189960025D-01 -2.6795005625866D-01
16  1.5000000000000D-01  4.4733250746017D-01 -2.8442316783816D-01
17  1.6000000000000D-01  4.9292094653304D-01 -2.9657102701633D-01
18  1.7000000000000D-01  5.3788338389265D-01 -3.0372900509044D-01
19  1.8000000000000D-01  5.8179450161002D-01 -3.0530544756154D-01
20  1.9000000000000D-01  6.2426415314418D-01 -3.0079462765902D-01
21  2.0000000000000D-01  6.6494337286285D-01 -2.8978828615813D-01
22  2.1000000000000D-01  7.0352963350626D-01 -2.7198553925020D-01
23  2.2000000000000D-01  7.3977125900981D-01 -2.4720096314793D-01
24  2.3000000000000D-01  7.7347091431937D-01 -2.1537069443869D-01
25  2.4000000000000D-01  8.0448810943474D-01 -1.7655641844315D-01
26  2.5000000000000D-01  8.3274067164601D-01 -1.3094715344877D-01
27  2.6000000000000D-01  8.5820515750848D-01 -7.8858776081609D-02
28  2.7000000000000D-01  8.8091619424315D-01 -2.0731271636111D-02
29  2.8000000000000D-01  9.0096475865031D-01  4.2876267740203D-02
30  2.9000000000000D-01  9.1849541997602D-01  1.1129283516482D-01
31  3.0000000000000D-01  9.3370259116731D-01  1.8374479143916D-01
32  3.1000000000000D-01  9.4682585028924D-01  2.5936710103792D-01
33  3.2000000000000D-01  9.5814441026005D-01  3.3721635026343D-01
34  3.3000000000000D-01  9.6797083021196D-01  4.1628534413351D-01
35  3.4000000000000D-01  9.7664407544259D-01  4.9551904974539D-01
36  3.5000000000000D-01  9.8452204484886D-01  5.7383162873600D-01
37  3.6000000000000D-01  9.9197369472274D-01  6.5012428048407D-01
38  3.7000000000000D-01  9.9937089565586D-01  7.2330360125138D-01
39  3.8000000000000D-01  1.0070801649057D+00  7.9230015284229D-01
40  3.9000000000000D-01  1.0154544198090D+00  8.5608692780195D-01
41  4.0000000000000D-01  1.0248248986233D+00  9.1369739681648D-01
42  4.1000000000000D-01  1.0354933935012D+00  9.6424282788407D-01
43  4.2000000000000D-01  1.0477249361701D+00  1.0069285759651D+00