He    ONCVPSP-3.3.0  r_core=   1.26476   1.13601
2.0000      2.0000      171101    zatom,zion,pspd
8   -1012   1     4   600     0    pspcod,pspxc,lmax,lloc,mmax,r2well
5.99000000  0.00000000  0.00000000    rchrg fchrg qchrg
2     1     0     0     0    nproj
1     1           extension_switch
0                        -3.4706538195795D+00 -7.8635031340994D-01
1  0.0000000000000D+00 -2.3189750120167D-09  7.0628906612136D-09
2  1.0000000000000D-02  1.0940629083131D-01 -5.2060502542912D-02
3  2.0000000000000D-02  2.1836508348390D-01 -1.0353984628817D-01
4  3.0000000000000D-02  3.2643201447557D-01 -1.5386357292861D-01
5  4.0000000000000D-02  4.3316895249225D-01 -2.0247052180007D-01
6  5.0000000000000D-02  5.3814702201702D-01 -2.4881922220972D-01
7  6.0000000000000D-02  6.4094951770192D-01 -2.9239398312198D-01
8  7.0000000000000D-02  7.4117467584541D-01 -3.3271058780054D-01
9  8.0000000000000D-02  8.3843827165721D-01 -3.6932150806757D-01
10  9.0000000000000D-02  9.3237601381061D-01 -4.0182056141829D-01
11  1.0000000000000D-01  1.0226457110487D+00 -4.2984694415861D-01
12  1.1000000000000D-01  1.1089291892654D+00 -4.5308858483129D-01
13  1.2000000000000D-01  1.1909339414607D+00 -4.7128477425182D-01
14  1.3000000000000D-01  1.2683944971927D+00 -4.8422804126476D-01
15  1.4000000000000D-01  1.3410735025538D+00 -4.9176525661469D-01
16  1.5000000000000D-01  1.4087625061877D+00 -4.9379796085422D-01
17  1.6000000000000D-01  1.4712824513729D+00 -4.9028192573219D-01
18  1.7000000000000D-01  1.5284838786343D+00 -4.8122597176516D-01
19  1.8000000000000D-01  1.5802468476367D+00 -4.6669007744779D-01
20  1.9000000000000D-01  1.6264805911774D+00 -4.4678282756420D-01
21  2.0000000000000D-01  1.6671229178672D+00 -4.2165825910040D-01
22  2.1000000000000D-01  1.7021393834959D+00 -3.9151217312224D-01
23  2.2000000000000D-01  1.7315222540653D+00 -3.5657798949193D-01
24  2.3000000000000D-01  1.7552892859874D+00 -3.1712222829396D-01
25  2.4000000000000D-01  1.7734823509494D+00 -2.7343970719788D-01
26  2.5000000000000D-01  1.7861659344000D+00 -2.2584854760965D-01
27  2.6000000000000D-01  1.7934255375038D+00 -1.7468508428800D-01
28  2.7000000000000D-01  1.7953660127254D+00 -1.2029877310270D-01
29  2.8000000000000D-01  1.7921098629381D+00 -6.3047189792217D-02
30  2.9000000000000D-01  1.7837955331291D+00 -3.2912089834838D-03
31  3.0000000000000D-01  1.7705757224024D+00  5.8609552560541D-02
32  3.1000000000000D-01  1.7526157421039D+00  1.2230095138804D-01
33  3.2000000000000D-01  1.7300919435507D+00  1.8743812276301D-01
34  3.3000000000000D-01  1.7031902360878D+00  2.5368881691623D-01
35  3.4000000000000D-01  1.6721047130830D+00  3.2073621774902D-01
36  3.5000000000000D-01  1.6370364000723D+00  3.8828120719126D-01
37  3.6000000000000D-01  1.5981921356446D+00  4.5604405066000D-01
38  3.7000000000000D-01  1.5557835919021D+00  5.2376549171051D-01
39  3.8000000000000D-01  1.5100264375053D+00  5.9120725677016D-01
40  3.9000000000000D-01  1.4611396425094D+00  6.5815198354159D-01
41  4.0000000000000D-01  1.4093449204893D+00  7.2440259899747D-01
42  4.1000000000000D-01  1.3548662999123D+00  7.8978118462456D-01
43  4.2000000000000D-01  1.2979298134292D+00  8.5412737746882D-01
44  4.3000000000000D-01  1.2387632907781D+00  9.1729636536829D-01
45  4.4000000000000D-01  1.1775962383940D+00  9.7915654333823D-01
46  4.5000000000000D-01  1.1146597866548D+00  1.0395869052169D+00
47  4.6000000000000D-01  1.0501866839967D+00  1.0984742502435D+00
48  4.7000000000000D-01  9.8441131596144D-01  1.1557102881075D+00
49  4.8000000000000D-01  9.1756972659533D-01  1.2111887280935D+00
50  4.9000000000000D-01  8.4989961953810D-01  1.2648024382038D+00
51  5.0000000000000D-01  7.8164031661318D-01  1.3164407585576D+00
52  5.1000000000000D-01  7.1303265275490D-01  1.3659870499628D+00
53  5.2000000000000D-01  6.4431878766370D-01  1.4133165533998D+00
54  5.3000000000000D-01  5.7574191663642D-01  1.4582946293323D+00
55  5.4000000000000D-01  5.0754586553456D-01  1.5007754374151D+00
56  5.5000000000000D-01  4.3997455778373D-01  1.5406011074259D+00
57  5.6000000000000D-01  3.7327134457053D-01  1.5776014413611D+00
58  5.7000000000000D-01  3.0767819297304D-01  1.6115941747257D+00
59  5.8000000000000D-01  2.4343473052915D-01  1.6423858124539D+00
60  5.9000000000000D-01  1.8077714866104D-01  1.6697730417686D+00
61  6.0000000000000D-01  1.1993697132727D-01  1.6935447109811D+00
62  6.1000000000000D-01  6.1139699210957D-02  1.7134843499156D+00
63  6.2000000000000D-01  4.6033435507100D-03  1.7293731947171D+00
64  6.3000000000000D-01 -4.9463132648967D-02  1.7409936673590D+00
65  6.4000000000000D-01 -1.0086144497195D-01  1.7481332486682D+00
66  6.5000000000000D-01 -1.4940566546201D-01  1.7505886731887D+00
67  6.6000000000000D-01 -1.9492392140579D-01  1.7481703650497D+00
68  6.7000000000000D-01 -2.3726008635082D-01  1.7407070263747D+00
69  6.8000000000000D-01 -2.7627543313661D-01  1.7280502837820D+00
70  6.9000000000000D-01 -3.1185021775913D-01  1.7100792943978D+00
71  7.0000000000000D-01 -3.4388516254187D-01  1.6867052106051D+00
72  7.1000000000000D-01 -3.7230280736386D-01  1.6578754025435D+00
73  7.2000000000000D-01 -3.9704869862131D-01  1.6235773392318D+00
74  7.3000000000000D-01 -4.1809238715464D-01  1.5838420330629D+00
75  7.4000000000000D-01 -4.3542820854836D-01  1.5387469582924D+00
76  7.5000000000000D-01 -4.4907582198021D-01  1.4884183619354D+00
77  7.6000000000000D-01 -4.5908048710505D-01  1.4330328950374D+00
78  7.7000000000000D-01 -4.6551306227190D-01  1.3728185034855D+00
79  7.8000000000000D-01 -4.6846971162427D-01  1.3080545301808D+00
80  7.9000000000000D-01 -4.6807131323538D-01  1.2390709942269D+00
81  8.0000000000000D-01 -4.6446256532472D-01  1.1662470276230D+00
82  8.1000000000000D-01 -4.5781079269026D-01  1.0900084654818D+00
83  8.2000000000000D-01 -4.4830446068412D-01  1.0108246017453D+00
84  8.3000000000000D-01 -4.3615140926385D-01  9.2920413844387D-01
85  8.4000000000000D-01 -4.2157682476967D-01  8.4569037244790D-01
86  8.5000000000000D-01 -4.0482097201474D-01  7.6085567907922D-01
87  8.6000000000000D-01 -3.8613671393593D-01  6.7529536659731D-01
88  8.7000000000000D-01 -3.6578685034692D-01  5.8962098916111D-01
89  8.8000000000000D-01 -3.4404131117840D-01  5.0445321812498D-01
90  8.9000000000000D-01 -3.2117424290448D-01  4.2041438220987D-01
91  9.0000000000000D-01 -2.9746102957123D-01  3.3812079597734D-01
92  9.1000000000000D-01 -2.7317529190351D-01  2.5817500293579D-01
93  9.2000000000000D-01 -2.4858590932251D-01  1.8115806437046D-01
94  9.3000000000000D-01 -2.2395411032330D-01  1.0762202749445D-01
95  9.4000000000000D-01 -1.9953067651759D-01  3.8082706691698D-02
96  9.5000000000000D-01 -1.7555330473196D-01 -2.6987090570584D-02
97  9.6000000000000D-01 -1.5224416988324D-01 -8.7163766101752D-02
98  9.7000000000000D-01 -1.2980772886913D-01 -1.4207844158878D-01
99  9.8000000000000D-01 -1.0842880317974D-01 -1.9142166414078D-01
100  9.9000000000000D-01 -8.8270973439709D-02 -2.3494720769685D-01
101  1.0000000000000D+00 -6.9475290806936D-02 -2.7247497903533D-01
102  1.0100000000000D+00 -5.2159465877006D-02 -3.0389240282024D-01
103  1.0200000000000D+00 -3.6416971392493D-02 -3.2915661083260D-01
104  1.0300000000000D+00 -2.2315644816894D-02 -3.4829903829001D-01
105  1.0400000000000D+00 -9.8966197392371D-03 -3.6142882979653D-01
106  1.0500000000000D+00  8.2541417687398D-04 -3.6873113102243D-01
107  1.0600000000000D+00  9.8615156344810D-03 -3.7046404086479D-01
108  1.0700000000000D+00  1.7247441219521D-02 -3.6695455955480D-01
109  1.0800000000000D+00  2.3042231785944D-02 -3.5859347028751D-01
110  1.0900000000000D+00  2.7326463836112D-02 -3.4582924628405D-01
111  1.1000000000000D+00  3.0200196351541D-02 -3.2916107702605D-01
112  1.1100000000000D+00  3.1780647198250D-02 -3.0913111624195D-01
113  1.1200000000000D+00  3.2199637439128D-02 -2.8631606772302D-01
114  1.1300000000000D+00  3.1600846136631D-02 -2.6131823806896D-01
115  1.1400000000000D+00  3.0136920884735D-02 -2.3475619361368D-01
116  1.1500000000000D+00  2.7966492341498D-02 -2.0725516811874D-01
117  1.1600000000000D+00  2.5251142258961D-02 -1.7943737163070D-01
118  1.1700000000000D+00  2.2152375131753D-02 -1.5191235288932D-01
119  1.1800000000000D+00  1.8828643995381D-02 -1.2526756897370D-01
120  1.1900000000000D+00  1.5432479820093D-02 -1.0005931266840D-01
121  1.2000000000000D+00  1.2107771981927D-02 -7.6804142076333D-02
122  1.2100000000000D+00  8.9872448614768D-03 -5.5970949638995D-02
123  1.2200000000000D+00  6.1901733228798D-03 -3.7973800767481D-02
124  1.2300000000000D+00  3.8218182082691D-03 -2.3174280407752D-02
125  1.2400000000000D+00  1.9567129770989D-03 -1.1785889825989D-02
126  1.2500000000000D+00  6.9179677651203D-04 -4.1987180250216D-03
127  1.2600000000000D+00  8.0842758804166D-05 -5.8855698552493D-04
128  1.2700000000000D+00 -5.6481767837798D-05  2.5926375936789D-04
129  1.2800000000000D+00  2.8528231099939D-07 -1.4282892251242D-06
130  1.2900000000000D+00  1.1956505441213D-05 -6.1322553315233D-05
131  1.3000000000000D+00 -2.4046969325134D-06  1.1979742497425D-05
132  1.3100000000000D+00 -4.3227032771859D-07  2.1763487159244D-06
133  1.3200000000000D+00  7.4692686675545D-08 -1.5710573618321D-07
134  1.3300000000000D+00  0.0000000000000D+00  0.0000000000000D+00
135  1.3400000000000D+00  0.0000000000000D+00  0.0000000000000D+00
136  1.3500000000000D+00  0.0000000000000D+00  0.0000000000000D+00
137  1.3600000000000D+00  0.0000000000000D+00  0.0000000000000D+00
138  1.3700000000000D+00  0.0000000000000D+00  0.0000000000000D+00
139  1.3800000000000D+00  0.0000000000000D+00  0.0000000000000D+00
140  1.3900000000000D+00  0.0000000000000D+00  0.0000000000000D+00
141  1.4000000000000D+00  0.0000000000000D+00  0.0000000000000D+00
142  1.4100000000000D+00  0.0000000000000D+00  0.0000000000000D+00
143  1.4200000000000D+00  0.0000000000000D+00  0.0000000000000D+00
144  1.4300000000000D+00  0.0000000000000D+00  0.0000000000000D+00
145  1.4400000000000D+00  0.0000000000000D+00  0.0000000000000D+00
146  1.4500000000000D+00  0.0000000000000D+00  0.0000000000000D+00
147  1.4600000000000D+00  0.0000000000000D+00  0.0000000000000D+00
148  1.4700000000000D+00  0.0000000000000D+00  0.0000000000000D+00
149  1.4800000000000D+00  0.0000000000000D+00  0.0000000000000D+00
150  1.4900000000000D+00  0.0000000000000D+00  0.0000000000000D+00
151  1.5000000000000D+00  0.0000000000000D+00  0.0000000000000D+00
152  1.5100000000000D+00  0.0000000000000D+00  0.0000000000000D+00
153  1.5200000000000D+00  0.0000000000000D+00  0.0000000000000D+00
154  1.5300000000000D+00  0.0000000000000D+00  0.0000000000000D+00
155  1.5400000000000D+00  0.0000000000000D+00  0.0000000000000D+00
156  1.5500000000000D+00  0.0000000000000D+00  0.0000000000000D+00
157  1.5600000000000D+00  0.0000000000000D+00  0.0000000000000D+00
158  1.5700000000000D+00  0.0000000000000D+00  0.0000000000000D+00
159  1.5800000000000D+00  0.0000000000000D+00  0.0000000000000D+00
160  1.5900000000000D+00  0.0000000000000D+00  0.0000000000000D+00
161  1.6000000000000D+00  0.0000000000000D+00  0.0000000000000D+00
162  1.6100000000000D+00  0.0000000000000D+00  0.0000000000000D+00
163  1.6200000000000D+00  0.0000000000000D+00  0.0000000000000D+00
164  1.6300000000000D+00  0.0000000000000D+00  0.0000000000000D+00
165  1.6400000000000D+00  0.0000000000000D+00  0.0000000000000D+00
166  1.6500000000000D+00  0.0000000000000D+00  0.0000000000000D+00
167  1.6600000000000D+00  0.0000000000000D+00  0.0000000000000D+00
168  1.6700000000000D+00  0.0000000000000D+00  0.0000000000000D+00
169  1.6800000000000D+00  0.0000000000000D+00  0.0000000000000D+00
170  1.6900000000000D+00  0.0000000000000D+00  0.0000000000000D+00
171  1.7000000000000D+00  0.0000000000000D+00  0.0000000000000D+00
172  1.7100000000000D+00  0.0000000000000D+00  0.0000000000000D+00
173  1.7200000000000D+00  0.0000000000000D+00  0.0000000000000D+00
174  1.7300000000000D+00  0.0000000000000D+00  0.0000000000000D+00
175  1.7400000000000D+00  0.0000000000000D+00  0.0000000000000D+00
176  1.7500000000000D+00  0.0000000000000D+00  0.0000000000000D+00
177  1.7600000000000D+00  0.0000000000000D+00  0.0000000000000D+00
178  1.7700000000000D+00  0.0000000000000D+00  0.0000000000000D+00
179  1.7800000000000D+00  0.0000000000000D+00  0.0000000000000D+00
180  1.7900000000000D+00  0.0000000000000D+00  0.0000000000000D+00
181  1.8000000000000D+00  0.0000000000000D+00  0.0000000000000D+00
182  1.8100000000000D+00  0.0000000000000D+00  0.0000000000000D+00
183  1.8200000000000D+00  0.0000000000000D+00  0.0000000000000D+00
184  1.8300000000000D+00  0.0000000000000D+00  0.0000000000000D+00
185  1.8400000000000D+00  0.0000000000000D+00  0.0000000000000D+00
186  1.8500000000000D+00  0.0000000000000D+00  0.0000000000000D+00
187  1.8600000000000D+00  0.0000000000000D+00  0.0000000000000D+00
188  1.8700000000000D+00  0.0000000000000D+00  0.0000000000000D+00
189  1.8800000000000D+00  0.0000000000000D+00  0.0000000000000D+00
190  1.8900000000000D+00  0.0000000000000D+00  0.0000000000000D+00
191  1.9000000000000D+00  0.0000000000000D+00  0.0000000000000D+00
192  1.9100000000000D+00  0.0000000000000D+00  0.0000000000000D+00
193  1.9200000000000D+00  0.0000000000000D+00  0.0000000000000D+00
194  1.9300000000000D+00  0.0000000000000D+00  0.0000000000000D+00
195  1.9400000000000D+00  0.0000000000000D+00  0.0000000000000D+00
196  1.9500000000000D+00  0.0000000000000D+00  0.0000000000000D+00
197  1.9600000000000D+00  0.0000000000000D+00  0.0000000000000D+00
198  1.9700000000000D+00  0.0000000000000D+00  0.0000000000000D+00
199  1.9800000000000D+00  0.0000000000000D+00  0.0000000000000D+00
200  1.9900000000000D+00  0.0000000000000D+00  0.0000000000000D+00
201  2.0000000000000D+00  0.0000000000000D+00  0.0000000000000D+00
202  2.0100000000000D+00  0.0000000000000D+00  0.0000000000000D+00
203  2.0200000000000D+00  0.0000000000000D+00  0.0000000000000D+00
204  2.0300000000000D+00  0.0000000000000D+00  0.0000000000000D+00
205  2.0400000000000D+00  0.0000000000000D+00  0.0000000000000D+00
206  2.0500000000000D+00  0.0000000000000D+00  0.0000000000000D+00
207  2.0600000000000D+00  0.0000000000000D+00  0.0000000000000D+00
208  2.0700000000000D+00  0.0000000000000D+00  0.0000000000000D+00
209  2.0800000000000D+00  0.0000000000000D+00  0.0000000000000D+00
210  2.0900000000000D+00  0.0000000000000D+00  0.0000000000000D+00
211  2.1000000000000D+00  0.0000000000000D+00  0.0000000000000D+00
212  2.1100000000000D+00  0.0000000000000D+00  0.0000000000000D+00
213  2.1200000000000D+00  0.0000000000000D+00  0.0000000000000D+00
214  2.1300000000000D+00  0.0000000000000D+00  0.0000000000000D+00
215  2.1400000000000D+00  0.0000000000000D+00  0.0000000000000D+00
216  2.1500000000000D+00  0.0000000000000D+00  0.0000000000000D+00
217  2.1600000000000D+00  0.0000000000000D+00  0.0000000000000D+00
218  2.1700000000000D+00  0.0000000000000D+00  0.0000000000000D+00
219  2.1800000000000D+00  0.0000000000000D+00  0.0000000000000D+00
220  2.1900000000000D+00  0.0000000000000D+00  0.0000000000000D+00
221  2.2000000000000D+00  0.0000000000000D+00  0.0000000000000D+00
222  2.2100000000000D+00  0.0000000000000D+00  0.0000000000000D+00
223  2.2200000000000D+00  0.0000000000000D+00  0.0000000000000D+00
224  2.2300000000000D+00  0.0000000000000D+00  0.0000000000000D+00
225  2.2400000000000D+00  0.0000000000000D+00  0.0000000000000D+00
226  2.2500000000000D+00  0.0000000000000D+00  0.0000000000000D+00
227  2.2600000000000D+00  0.0000000000000D+00  0.0000000000000D+00
228  2.2700000000000D+00  0.0000000000000D+00  0.0000000000000D+00
229  2.2800000000000D+00  0.0000000000000D+00  0.0000000000000D+00
230  2.2900000000000D+00  0.0000000000000D+00  0.0000000000000D+00
231  2.3000000000000D+00  0.0000000000000D+00  0.0000000000000D+00
232  2.3100000000000D+00  0.0000000000000D+00  0.0000000000000D+00
233  2.3200000000000D+00  0.0000000000000D+00  0.0000000000000D+00
234  2.3300000000000D+00  0.0000000000000D+00  0.0000000000000D+00
235  2.3400000000000D+00  0.0000000000000D+00  0.0000000000000D+00
236  2.3500000000000D+00  0.0000000000000D+00  0.0000000000000D+00
237  2.3600000000000D+00  0.0000000000000D+00  0.0000000000000D+00
238  2.3700000000000D+00  0.0000000000000D+00  0.0000000000000D+00
239  2.3800000000000D+00  0.0000000000000D+00  0.0000000000000D+00
240  2.3900000000000D+00  0.0000000000000D+00  0.0000000000000D+00
241  2.4000000000000D+00  0.0000000000000D+00  0.0000000000000D+00
242  2.4100000000000D+00  0.0000000000000D+00  0.0000000000000D+00
243  2.4200000000000D+00  0.0000000000000D+00  0.0000000000000D+00
244  2.4300000000000D+00  0.0000000000000D+00  0.0000000000000D+00
245  2.4400000000000D+00  0.0000000000000D+00  0.0000000000000D+00
246  2.4500000000000D+00  0.0000000000000D+00  0.0000000000000D+00
247  2.4600000000000D+00  0.0000000000000D+00  0.0000000000000D+00
248  2.4700000000000D+00  0.0000000000000D+00  0.0000000000000D+00
249  2.4800000000000D+00  0.0000000000000D+00  0.0000000000000D+00
250  2.4900000000000D+00  0.0000000000000D+00  0.0000000000000D+00
251  2.5000000000000D+00  0.0000000000000D+00  0.0000000000000D+00
252  2.5100000000000D+00  0.0000000000000D+00  0.0000000000000D+00
253  2.5200000000000D+00  0.0000000000000D+00  0.0000000000000D+00
254  2.5300000000000D+00  0.0000000000000D+00  0.0000000000000D+00
255  2.5400000000000D+00  0.0000000000000D+00  0.0000000000000D+00
256  2.5500000000000D+00  0.0000000000000D+00  0.0000000000000D+00
257  2.5600000000000D+00  0.0000000000000D+00  0.0000000000000D+00
258  2.5700000000000D+00  0.0000000000000D+00  0.0000000000000D+00
259  2.5800000000000D+00  0.0000000000000D+00  0.0000000000000D+00
260  2.5900000000000D+00  0.0000000000000D+00  0.0000000000000D+00
261  2.6000000000000D+00  0.0000000000000D+00  0.0000000000000D+00
262  2.6100000000000D+00  0.0000000000000D+00  0.0000000000000D+00
263  2.6200000000000D+00  0.0000000000000D+00  0.0000000000000D+00
264  2.6300000000000D+00  0.0000000000000D+00  0.0000000000000D+00
265  2.6400000000000D+00  0.0000000000000D+00  0.0000000000000D+00
266  2.6500000000000D+00  0.0000000000000D+00  0.0000000000000D+00
267  2.6600000000000D+00  0.0000000000000D+00  0.0000000000000D+00
268  2.6700000000000D+00  0.0000000000000D+00  0.0000000000000D+00
269  2.6800000000000D+00  0.0000000000000D+00  0.0000000000000D+00
270  2.6900000000000D+00  0.0000000000000D+00  0.0000000000000D+00
271  2.7000000000000D+00  0.0000000000000D+00  0.0000000000000D+00
272  2.7100000000000D+00  0.0000000000000D+00  0.0000000000000D+00
273  2.7200000000000D+00  0.0000000000000D+00  0.0000000000000D+00
274  2.7300000000000D+00  0.0000000000000D+00  0.0000000000000D+00
275  2.7400000000000D+00  0.0000000000000D+00  0.0000000000000D+00
276  2.7500000000000D+00  0.0000000000000D+00  0.0000000000000D+00
277  2.7600000000000D+00  0.0000000000000D+00  0.0000000000000D+00
278  2.7700000000000D+00  0.0000000000000D+00  0.0000000000000D+00
279  2.7800000000000D+00  0.0000000000000D+00  0.0000000000000D+00
280  2.7900000000000D+00  0.0000000000000D+00  0.0000000000000D+00
281  2.8000000000000D+00  0.0000000000000D+00  0.0000000000000D+00
282  2.8100000000000D+00  0.0000000000000D+00  0.0000000000000D+00
283  2.8200000000000D+00  0.0000000000000D+00  0.0000000000000D+00
284  2.8300000000000D+00  0.0000000000000D+00  0.0000000000000D+00
285  2.8400000000000D+00  0.0000000000000D+00  0.0000000000000D+00
286  2.8500000000000D+00  0.0000000000000D+00  0.0000000000000D+00
287  2.8600000000000D+00  0.0000000000000D+00  0.0000000000000D+00
288  2.8700000000000D+00  0.0000000000000D+00  0.0000000000000D+00
289  2.8800000000000D+00  0.0000000000000D+00  0.0000000000000D+00
290  2.8900000000000D+00  0.0000000000000D+00  0.0000000000000D+00
291  2.9000000000000D+00  0.0000000000000D+00  0.0000000000000D+00
292  2.9100000000000D+00  0.0000000000000D+00  0.0000000000000D+00
293  2.9200000000000D+00  0.0000000000000D+00  0.0000000000000D+00
294  2.9300000000000D+00  0.0000000000000D+00  0.0000000000000D+00
295  2.9400000000000D+00  0.0000000000000D+00  0.0000000000000D+00
296  2.9500000000000D+00  0.0000000000000D+00  0.0000000000000D+00
297  2.9600000000000D+00  0.0000000000000D+00  0.0000000000000D+00
298  2.9700000000000D+00  0.0000000000000D+00  0.0000000000000D+00
299  2.9800000000000D+00  0.0000000000000D+00  0.0000000000000D+00
300  2.9900000000000D+00  0.0000000000000D+00  0.0000000000000D+00
301  3.0000000000000D+00  0.0000000000000D+00  0.0000000000000D+00
302  3.0100000000000D+00  0.0000000000000D+00  0.0000000000000D+00
303  3.0200000000000D+00  0.0000000000000D+00  0.0000000000000D+00
304  3.0300000000000D+00  0.0000000000000D+00  0.0000000000000D+00
305  3.0400000000000D+00  0.0000000000000D+00  0.0000000000000D+00
306  3.0500000000000D+00  0.0000000000000D+00  0.0000000000000D+00
307  3.0600000000000D+00  0.0000000000000D+00  0.0000000000000D+00
308  3.0700000000000D+00  0.0000000000000D+00  0.0000000000000D+00
309  3.0800000000000D+00  0.0000000000000D+00  0.0000000000000D+00
310  3.0900000000000D+00  0.0000000000000D+00  0.0000000000000D+00
311  3.1000000000000D+00  0.0000000000000D+00  0.0000000000000D+00
312  3.1100000000000D+00  0.0000000000000D+00  0.0000000000000D+00
313  3.1200000000000D+00  0.0000000000000D+00  0.0000000000000D+00
314  3.1300000000000D+00  0.0000000000000D+00  0.0000000000000D+00
315  3.1400000000000D+00  0.0000000000000D+00  0.0000000000000D+00
316  3.1500000000000D+00  0.0000000000000D+00  0.0000000000000D+00
317  3.1600000000000D+00  0.0000000000000D+00  0.0000000000000D+00
318  3.1700000000000D+00  0.0000000000000D+00  0.0000000000000D+00
319  3.1800000000000D+00  0.0000000000000D+00  0.0000000000000D+00
320  3.1900000000000D+00  0.0000000000000D+00  0.0000000000000D+00
321  3.2000000000000D+00  0.0000000000000D+00  0.0000000000000D+00
322  3.2100000000000D+00  0.0000000000000D+00  0.0000000000000D+00
323  3.2200000000000D+00  0.0000000000000D+00  0.0000000000000D+00
324  3.2300000000000D+00  0.0000000000000D+00  0.0000000000000D+00
325  3.2400000000000D+00  0.0000000000000D+00  0.0000000000000D+00
326  3.2500000000000D+00  0.0000000000000D+00  0.0000000000000D+00
327  3.2600000000000D+00  0.0000000000000D+00  0.0000000000000D+00
328  3.2700000000000D+00  0.0000000000000D+00  0.0000000000000D+00
329  3.2800000000000D+00  0.0000000000000D+00  0.0000000000000D+00
330  3.2900000000000D+00  0.0000000000000D+00  0.0000000000000D+00
331  3.3000000000000D+00  0.0000000000000D+00  0.0000000000000D+00
332  3.3100000000000D+00  0.0000000000000D+00  0.0000000000000D+00
333  3.3200000000000D+00  0.0000000000000D+00  0.0000000000000D+00
334  3.3300000000000D+00  0.0000000000000D+00  0.0000000000000D+00
335  3.3400000000000D+00  0.0000000000000D+00  0.0000000000000D+00
336  3.3500000000000D+00  0.0000000000000D+00  0.0000000000000D+00
337  3.3600000000000D+00  0.0000000000000D+00  0.0000000000000D+00
338  3.3700000000000D+00  0.0000000000000D+00  0.0000000000000D+00
339  3.3800000000000D+00  0.0000000000000D+00  0.0000000000000D+00
340  3.3900000000000D+00  0.0000000000000D+00  0.0000000000000D+00
341  3.4000000000000D+00  0.0000000000000D+00  0.0000000000000D+00
342  3.4100000000000D+00  0.0000000000000D+00  0.0000000000000D+00
343  3.4200000000000D+00  0.0000000000000D+00  0.0000000000000D+00
344  3.4300000000000D+00  0.0000000000000D+00  0.0000000000000D+00
345  3.4400000000000D+00  0.0000000000000D+00  0.0000000000000D+00
346  3.4500000000000D+00  0.0000000000000D+00  0.0000000000000D+00
347  3.4600000000000D+00  0.0000000000000D+00  0.0000000000000D+00
348  3.4700000000000D+00  0.0000000000000D+00  0.0000000000000D+00
349  3.4800000000000D+00  0.0000000000000D+00  0.0000000000000D+00
350  3.4900000000000D+00  0.0000000000000D+00  0.0000000000000D+00
351  3.5000000000000D+00  0.0000000000000D+00  0.0000000000000D+00
352  3.5100000000000D+00  0.0000000000000D+00  0.0000000000000D+00
353  3.5200000000000D+00  0.0000000000000D+00  0.0000000000000D+00
354  3.5300000000000D+00  0.0000000000000D+00  0.0000000000000D+00
355  3.5400000000000D+00  0.0000000000000D+00  0.0000000000000D+00
356  3.5500000000000D+00  0.0000000000000D+00  0.0000000000000D+00
357  3.5600000000000D+00  0.0000000000000D+00  0.0000000000000D+00
358  3.5700000000000D+00  0.0000000000000D+00  0.0000000000000D+00
359  3.5800000000000D+00  0.0000000000000D+00  0.0000000000000D+00
360  3.5900000000000D+00  0.0000000000000D+00  0.0000000000000D+00
361  3.6000000000000D+00  0.0000000000000D+00  0.0000000000000D+00
362  3.6100000000000D+00  0.0000000000000D+00  0.0000000000000D+00
363  3.6200000000000D+00  0.0000000000000D+00  0.0000000000000D+00
364  3.6300000000000D+00  0.0000000000000D+00  0.0000000000000D+00
365  3.6400000000000D+00  0.0000000000000D+00  0.0000000000000D+00
366  3.6500000000000D+00  0.0000000000000D+00  0.0000000000000D+00
367  3.6600000000000D+00  0.0000000000000D+00  0.0000000000000D+00
368  3.6700000000000D+00  0.0000000000000D+00  0.0000000000000D+00
369  3.6800000000000D+00  0.0000000000000D+00  0.0000000000000D+00
370  3.6900000000000D+00  0.0000000000000D+00  0.0000000000000D+00
371  3.7000000000000D+00  0.0000000000000D+00  0.0000000000000D+00
372  3.7100000000000D+00  0.0000000000000D+00  0.0000000000000D+00
373  3.7200000000000D+00  0.0000000000000D+00  0.0000000000000D+00
374  3.7300000000000D+00  0.0000000000000D+00  0.0000000000000D+00
375  3.7400000000000D+00  0.0000000000000D+00  0.0000000000000D+00
376  3.7500000000000D+00  0.0000000000000D+00  0.0000000000000D+00
377  3.7600000000000D+00  0.0000000000000D+00  0.0000000000000D+00
378  3.7700000000000D+00  0.0000000000000D+00  0.0000000000000D+00
379  3.7800000000000D+00  0.0000000000000D+00  0.0000000000000D+00
380  3.7900000000000D+00  0.0000000000000D+00  0.0000000000000D+00
381  3.8000000000000D+00  0.0000000000000D+00  0.0000000000000D+00
382  3.8100000000000D+00  0.0000000000000D+00  0.0000000000000D+00
383  3.8200000000000D+00  0.0000000000000D+00  0.0000000000000D+00
384  3.8300000000000D+00  0.0000000000000D+00  0.0000000000000D+00
385  3.8400000000000D+00  0.0000000000000D+00  0.0000000000000D+00
386  3.8500000000000D+00  0.0000000000000D+00  0.0000000000000D+00
387  3.8600000000000D+00  0.0000000000000D+00  0.0000000000000D+00
388  3.8700000000000D+00  0.0000000000000D+00  0.0000000000000D+00
389  3.8800000000000D+00  0.0000000000000D+00  0.0000000000000D+00
390  3.8900000000000D+00  0.0000000000000D+00  0.0000000000000D+00
391  3.9000000000000D+00  0.0000000000000D+00  0.0000000000000D+00
392  3.9100000000000D+00  0.0000000000000D+00  0.0000000000000D+00
393  3.9200000000000D+00  0.0000000000000D+00  0.0000000000000D+00
394  3.9300000000000D+00  0.0000000000000D+00  0.0000000000000D+00
395  3.9400000000000D+00  0.0000000000000D+00  0.0000000000000D+00
396  3.9500000000000D+00  0.0000000000000D+00  0.0000000000000D+00
397  3.9600000000000D+00  0.0000000000000D+00  0.0000000000000D+00
398  3.9700000000000D+00  0.0000000000000D+00  0.0000000000000D+00
399  3.9800000000000D+00  0.0000000000000D+00  0.0000000000000D+00
400  3.9900000000000D+00  0.0000000000000D+00  0.0000000000000D+00
401  4.0000000000000D+00  0.0000000000000D+00  0.0000000000000D+00
402  4.0100000000000D+00  0.0000000000000D+00  0.0000000000000D+00
403  4.0200000000000D+00  0.0000000000000D+00  0.0000000000000D+00
404  4.0300000000000D+00  0.0000000000000D+00  0.0000000000000D+00
405  4.0400000000000D+00  0.0000000000000D+00  0.0000000000000D+00
406  4.0500000000000D+00  0.0000000000000D+00  0.0000000000000D+00
407  4.0600000000000D+00  0.0000000000000D+00  0.0000000000000D+00
408  4.0700000000000D+00  0.0000000000000D+00  0.0000000000000D+00
409  4.0800000000000D+00  0.0000000000000D+00  0.0000000000000D+00
410  4.0900000000000D+00  0.0000000000000D+00  0.0000000000000D+00
411  4.1000000000000D+00  0.0000000000000D+00  0.0000000000000D+00
412  4.1100000000000D+00  0.0000000000000D+00  0.0000000000000D+00
413  4.1200000000000D+00  0.0000000000000D+00  0.0000000000000D+00
414  4.1300000000000D+00  0.0000000000000D+00  0.0000000000000D+00
415  4.1400000000000D+00  0.0000000000000D+00  0.0000000000000D+00
416  4.1500000000000D+00  0.0000000000000D+00  0.0000000000000D+00
417  4.1600000000000D+00  0.0000000000000D+00  0.0000000000000D+00
418  4.1700000000000D+00  0.0000000000000D+00  0.0000000000000D+00
419  4.1800000000000D+00  0.0000000000000D+00  0.0000000000000D+00
420  4.1900000000000D+00  0.0000000000000D+00  0.0000000000000D+00
421  4.2000000000000D+00  0.0000000000000D+00  0.0000000000000D+00
422  4.2100000000000D+00  0.0000000000000D+00  0.0000000000000D+00
423  4.2200000000000D+00  0.0000000000000D+00  0.0000000000000D+00
424  4.2300000000000D+00  0.0000000000000D+00  0.0000000000000D+00
425  4.2400000000000D+00  0.0000000000000D+00  0.0000000000000D+00
426  4.2500000000000D+00  0.0000000000000D+00  0.0000000000000D+00
427  4.2600000000000D+00  0.0000000000000D+00  0.0000000000000D+00
428  4.2700000000000D+00  0.0000000000000D+00  0.0000000000000D+00
429  4.2800000000000D+00  0.0000000000000D+00  0.0000000000000D+00
430  4.2900000000000D+00  0.0000000000000D+00  0.0000000000000D+00
431  4.3000000000000D+00  0.0000000000000D+00  0.0000000000000D+00
432  4.3100000000000D+00  0.0000000000000D+00  0.0000000000000D+00
433  4.3200000000000D+00  0.0000000000000D+00  0.0000000000000D+00
434  4.3300000000000D+00  0.0000000000000D+00  0.0000000000000D+00
435  4.3400000000000D+00  0.0000000000000D+00  0.0000000000000D+00
436  4.3500000000000D+00  0.0000000000000D+00  0.0000000000000D+00
437  4.3600000000000D+00  0.0000000000000D+00  0.0000000000000D+00
438  4.3700000000000D+00  0.0000000000000D+00  0.0000000000000D+00
439  4.3800000000000D+00  0.0000000000000D+00  0.0000000000000D+00
440  4.3900000000000D+00  0.0000000000000D+00  0.0000000000000D+00
441  4.4000000000000D+00  0.0000000000000D+00  0.0000000000000D+00
442  4.4100000000000D+00  0.0000000000000D+00  0.0000000000000D+00
443  4.4200000000000D+00  0.0000000000000D+00  0.0000000000000D+00