Fe    ONCVPSP  r_core=  1.41  1.57  1.85
26.0000     16.0000      140907    zatom,zion,pspd
8    11     2     4   601     0    pspcod,pspxc,lmax,lloc,mmax,r2well
6.00000000  0.05000000  0.00000000    rchrg fchrg qchrg
2     2     2     0     0    nproj
0                 extension_switch
0                         4.4980423640383D+00 -2.6531096813927D-01
1  0.0000000000000D+00 -0.0000000000000D+00  0.0000000000000D+00
2  1.0000000000000D-02 -9.0106258853198D-02  3.1800575119725D-02
3  2.0000000000000D-02 -1.7988975377481D-01  6.3240081043504D-02
4  3.0000000000000D-02 -2.6902992970872D-01  9.3963636240775D-02
5  4.0000000000000D-02 -3.5721062356888D-01  1.2362863451388D-01
6  5.0000000000000D-02 -4.4412219614294D-01  1.5191063423323D-01
7  6.0000000000000D-02 -5.2946358812728D-01  1.7850895380129D-01
8  7.0000000000000D-02 -6.1294427671185D-01  2.0315188261779D-01
9  8.0000000000000D-02 -6.9428611054505D-01  2.2560142279580D-01
10  9.0000000000000D-02 -7.7322500266905D-01  2.4565748427016D-01
11  1.0000000000000D-01 -8.4951246303702D-01  2.6316146447107D-01
12  1.1000000000000D-01 -9.2291695450467D-01  2.7799915336320D-01
13  1.2000000000000D-01 -9.9322505874565D-01  2.9010291533430D-01
14  1.3000000000000D-01 -1.0602424412113D+00  2.9945311068943D-01
15  1.4000000000000D-01 -1.1237946070522D+00  3.0607873142210D-01
16  1.5000000000000D-01 -1.1837274431043D+00  3.1005723865902D-01
17  1.6000000000000D-01 -1.2399075436313D+00  3.1151360123504D-01
18  1.7000000000000D-01 -1.2922223211194D+00  3.1061854812924D-01
19  1.8000000000000D-01 -1.3405799058208D+00  3.0758605974071D-01
20  1.9000000000000D-01 -1.3849088411796D+00  3.0267013385729D-01
21  2.0000000000000D-01 -1.4251575847767D+00  2.9616087943533D-01
22  2.1000000000000D-01 -1.4612938269332D+00  2.8837998805439D-01
23  2.2000000000000D-01 -1.4933036423267D+00  2.7967566649950D-01
24  2.3000000000000D-01 -1.5211904908272D+00  2.7041709514097D-01
25  2.4000000000000D-01 -1.5449740883005D+00  2.6098851445429D-01
26  2.5000000000000D-01 -1.5646891631486D+00  2.5178300101268D-01
27  2.6000000000000D-01 -1.5803841302513D+00  2.4319609070939D-01
28  2.7000000000000D-01 -1.5921196896274D+00  2.3561925898984D-01
29  2.8000000000000D-01 -1.5999673922940D+00  2.2943346974112D-01
30  2.9000000000000D-01 -1.6040081806129D+00  2.2500280465192D-01
31  3.0000000000000D-01 -1.6043309346180D+00  2.2266832045711D-01
32  3.1000000000000D-01 -1.6010310459115D+00  2.2274222501335D-01
33  3.2000000000000D-01 -1.5942090474064D+00  2.2550249364730D-01
34  3.3000000000000D-01 -1.5839693001010D+00  2.3118792600121D-01
35  3.4000000000000D-01 -1.5704187755377D+00  2.3999381694687D-01
36  3.5000000000000D-01 -1.5536659704334D+00  2.5206838157626D-01
37  3.6000000000000D-01 -1.5338198868302D+00  2.6750966606625D-01
38  3.7000000000000D-01 -1.5109892089185D+00  2.8636347917280D-01
39  3.8000000000000D-01 -1.4852816116916D+00  3.0862206313605D-01
40  3.9000000000000D-01 -1.4568031709906D+00  3.3422342264282D-01
41  4.0000000000000D-01 -1.4256580123356D+00  3.6305179524090D-01
42  4.1000000000000D-01 -1.3919480733285D+00  3.9493880332604D-01
43  4.2000000000000D-01 -1.3557730353833D+00  4.2966548627300D-01
44  4.3000000000000D-01 -1.3172304129389D+00  4.6696515679773D-01
45  4.4000000000000D-01 -1.2764157923340D+00  5.0652703961499D-01
46  4.5000000000000D-01 -1.2334232107159D+00  5.4800064145342D-01
47  4.6000000000000D-01 -1.1883456628506D+00  5.9100078963381D-01
48  4.7000000000000D-01 -1.1412757211275D+00  6.3511326351771D-01
49  4.8000000000000D-01 -1.0923062496273D+00  6.7990084813204D-01
50  4.9000000000000D-01 -1.0415311932876D+00  7.2491005525130D-01
51  5.0000000000000D-01 -9.8904644074647D-01  7.6967794832489D-01
52  5.1000000000000D-01 -9.3495069886923D-01  8.1373908880990D-01
53  5.2000000000000D-01 -8.7934638503331D-01  8.5663272532661D-01
54  5.3000000000000D-01 -8.2234056544876D-01  8.9791052221563D-01
55  5.4000000000000D-01 -7.6404572407888D-01  9.3714251281272D-01
56  5.5000000000000D-01 -7.0458067506164D-01  9.7392525346409D-01
57  5.6000000000000D-01 -6.4407119152720D-01  1.0078871582656D+00
58  5.7000000000000D-01 -5.8265070230542D-01  1.0386953249554D+00
59  5.8000000000000D-01 -5.2046075070092D-01  1.0660604522173D+00
60  5.9000000000000D-01 -4.5765143536340D-01  1.0897424310687D+00
61  6.0000000000000D-01 -3.9438151402445D-01  1.1095531039463D+00
62  6.1000000000000D-01 -3.3081865162172D-01  1.1253618866572D+00
63  6.2000000000000D-01 -2.6713907320004D-01  1.1370953322874D+00
64  6.3000000000000D-01 -2.0352746597751D-01  1.1447414617455D+00
65  6.4000000000000D-01 -1.4017638417635D-01  1.1483490666752D+00
66  6.5000000000000D-01 -7.7285568157664D-02  1.1480267229910D+00
67  6.6000000000000D-01 -1.5061136218892D-02  1.1439434536685D+00
68  6.7000000000000D-01  4.6285521420181D-02  1.1363252875614D+00
69  6.8000000000000D-01  1.0653894454382D-01  1.1254521219921D+00
70  6.9000000000000D-01  1.6548090105469D-01  1.1116537834061D+00
71  7.0000000000000D-01  2.2289214536765D-01  1.0953061117761D+00
72  7.1000000000000D-01  2.7855390868825D-01  1.0768242852961D+00
73  7.2000000000000D-01  3.3224971833846D-01  1.0566569734098D+00
74  7.3000000000000D-01  3.8376726600538D-01  1.0352795158000D+00
75  7.4000000000000D-01  4.3290022885568D-01  1.0131868012510D+00
76  7.5000000000000D-01  4.7945052017550D-01  9.9088515609869D-01
77  7.6000000000000D-01  5.2323014223520D-01  9.6888441606047D-01
78  7.7000000000000D-01  5.6406307791498D-01  9.4768999803571D-01
79  7.8000000000000D-01  6.0178726497613D-01  9.2779468970588D-01
80  7.9000000000000D-01  6.3625644550733D-01  9.0967061395205D-01
81  8.0000000000000D-01  6.6734191233710D-01  8.9376142394541D-01
82  8.1000000000000D-01  6.9493412455782D-01  8.8047485317370D-01
83  8.2000000000000D-01  7.1894416567267D-01  8.7017573996716D-01
84  8.3000000000000D-01  7.3930501965699D-01  8.6317963954747D-01
85  8.4000000000000D-01  7.5597264238692D-01  8.5974712838902D-01
86  8.5000000000000D-01  7.6892680839494D-01  8.6007889590407D-01
87  8.6000000000000D-01  7.7817171573013D-01  8.6431170729595D-01
88  8.7000000000000D-01  7.8373633479898D-01  8.7251530900485D-01
89  8.8000000000000D-01  7.8567449041387D-01  8.8469033462553D-01
90  8.9000000000000D-01  7.8406466985697D-01  9.0076725460669D-01
91  9.0000000000000D-01  7.7900955355830D-01  9.2060639754270D-01
92  9.1000000000000D-01  7.7063526896558D-01  9.4399905452706D-01
93  9.2000000000000D-01  7.5909037232600D-01  9.7066966096233D-01
94  9.3000000000000D-01  7.4454456736569D-01  1.0002790325669D+00
95  9.4000000000000D-01  7.2718717418478D-01  1.0324286143141D+00
96  9.5000000000000D-01  7.0722536599566D-01  1.0666656830287D+00
97  9.6000000000000D-01  6.8488221911115D-01  1.1024896423688D+00
98  9.7000000000000D-01  6.6039466817587D-01  1.1393577425805D+00
99  9.8000000000000D-01  6.3401090730526D-01  1.1766940210842D+00
100  9.9000000000000D-01  6.0598799090357D-01  1.2138973952906D+00
101  1.0000000000000D+00  5.7658927291618D-01  1.2503501874028D+00
102  1.0100000000000D+00  5.4608176843820D-01  1.2854271379318D+00
103  1.0200000000000D+00  5.1473351758521D-01  1.3185045151226D+00
104  1.0300000000000D+00  4.8281198597583D-01  1.3489662450978D+00
105  1.0400000000000D+00  4.5057834007230D-01  1.3762219058031D+00
106  1.0500000000000D+00  4.1828740790715D-01  1.3997089216761D+00
107  1.0600000000000D+00  3.8618454586884D-01  1.4189029486474D+00
108  1.0700000000000D+00  3.5450336019814D-01  1.4333258998729D+00
109  1.0800000000000D+00  3.2346583960371D-01  1.4425462897913D+00
110  1.0900000000000D+00  2.9327350465002D-01  1.4462077414936D+00
111  1.1000000000000D+00  2.6411165960135D-01  1.4440164270513D+00
112  1.1100000000000D+00  2.3614648910784D-01  1.4357504598050D+00
113  1.1200000000000D+00  2.0952593040982D-01  1.4212573344335D+00
114  1.1300000000000D+00  1.8437291761611D-01  1.4004755106273D+00
115  1.1400000000000D+00  1.6078752332997D-01  1.3734273706788D+00
116  1.1500000000000D+00  1.3884851929314D-01  1.3402138519278D+00
117  1.1600000000000D+00  1.1861499515299D-01  1.3010091820055D+00
118  1.1700000000000D+00  1.0011756067176D-01  1.2560873878595D+00
119  1.1800000000000D+00  8.3366377740747D-02  1.2057958188151D+00
120  1.1900000000000D+00  6.8352450972648D-02  1.1505504534723D+00
121  1.2000000000000D+00  5.5046424888550D-02  1.0908387941476D+00
122  1.2100000000000D+00  4.3396084150768D-02  1.0272232855650D+00
123  1.2200000000000D+00  3.3335078089656D-02  9.6031444638255D-01
124  1.2300000000000D+00  2.4783150819570D-02  8.9077119704606D-01
125  1.2400000000000D+00  1.7641759281661D-02  8.1930342860301D-01
126  1.2500000000000D+00  1.1804254675365D-02  7.4664489181420D-01
127  1.2600000000000D+00  7.1546508029597D-03  6.7355853965878D-01
128  1.2700000000000D+00  3.5688662224909D-03  6.0081680722820D-01
129  1.2800000000000D+00  9.2031791089129D-04  5.2919121251340D-01
130  1.2900000000000D+00 -9.2217154982627D-04  4.5946380296907D-01
131  1.3000000000000D+00 -2.0863761358296D-03  3.9237727594833D-01
132  1.3100000000000D+00 -2.6973715474533D-03  3.2865333545855D-01
133  1.3200000000000D+00 -2.8802203358548D-03  2.6900417016806D-01
134  1.3300000000000D+00 -2.7444445638261D-03  2.1405179519150D-01
135  1.3400000000000D+00 -2.3960111749551D-03  1.6439692373938D-01
136  1.3500000000000D+00 -1.9312590898595D-03  1.2058543021002D-01
137  1.3600000000000D+00 -1.4261582726219D-03  8.3057581491142D-02
138  1.3700000000000D+00 -9.5371125478629D-04  5.2235612581337D-02
139  1.3800000000000D+00 -5.6111880384698D-04  2.8408760319097D-02
140  1.3900000000000D+00 -2.7889061212374D-04  1.1779935587426D-02
141  1.4000000000000D+00 -1.4070701643780D-04  3.1510818136726D-03
142  1.4100000000000D+00 -7.2573427056126D-05 -9.7056276654382D-05
143  1.4200000000000D+00 -1.5851259726151D-05 -3.5972973571402D-04
144  1.4300000000000D+00  5.7051948534613D-06 -2.1355232799781D-05
145  1.4400000000000D+00  1.5078433156076D-06 -5.6440394863741D-06
146  1.4500000000000D+00  0.0000000000000D+00  0.0000000000000D+00
147  1.4600000000000D+00  0.0000000000000D+00  0.0000000000000D+00
148  1.4700000000000D+00  0.0000000000000D+00  0.0000000000000D+00
149  1.4800000000000D+00  0.0000000000000D+00  0.0000000000000D+00
150  1.4900000000000D+00  0.0000000000000D+00  0.0000000000000D+00
151  1.5000000000000D+00  0.0000000000000D+00  0.0000000000000D+00
152  1.5100000000000D+00  0.0000000000000D+00  0.0000000000000D+00
153  1.5200000000000D+00  0.0000000000000D+00  0.0000000000000D+00
154  1.5300000000000D+00  0.0000000000000D+00  0.0000000000000D+00
155  1.5400000000000D+00  0.0000000000000D+00  0.0000000000000D+00
156  1.5500000000000D+00  0.0000000000000D+00  0.0000000000000D+00
157  1.5600000000000D+00  0.0000000000000D+00  0.0000000000000D+00
158  1.5700000000000D+00  0.0000000000000D+00  0.0000000000000D+00
159  1.5800000000000D+00  0.0000000000000D+00  0.0000000000000D+00
160  1.5900000000000D+00  0.0000000000000D+00  0.0000000000000D+00
161  1.6000000000000D+00  0.0000000000000D+00  0.0000000000000D+00
162  1.6100000000000D+00  0.0000000000000D+00  0.0000000000000D+00
163  1.6200000000000D+00  0.0000000000000D+00  0.0000000000000D+00
164  1.6300000000000D+00  0.0000000000000D+00  0.0000000000000D+00
165  1.6400000000000D+00  0.0000000000000D+00  0.0000000000000D+00
166  1.6500000000000D+00  0.0000000000000D+00  0.0000000000000D+00
167  1.6600000000000D+00  0.0000000000000D+00  0.0000000000000D+00
168  1.6700000000000D+00  0.0000000000000D+00  0.0000000000000D+00
169  1.6800000000000D+00  0.0000000000000D+00  0.0000000000000D+00
170  1.6900000000000D+00  0.0000000000000D+00  0.0000000000000D+00
171  1.7000000000000D+00  0.0000000000000D+00  0.0000000000000D+00
172  1.7100000000000D+00  0.0000000000000D+00  0.0000000000000D+00
173  1.7200000000000D+00  0.0000000000000D+00  0.0000000000000D+00
174  1.7300000000000D+00  0.0000000000000D+00  0.0000000000000D+00
175  1.7400000000000D+00  0.0000000000000D+00  0.0000000000000D+00
176  1.7500000000000D+00  0.0000000000000D+00  0.0000000000000D+00
177  1.7600000000000D+00  0.0000000000000D+00  0.0000000000000D+00
178  1.7700000000000D+00  0.0000000000000D+00  0.0000000000000D+00
179  1.7800000000000D+00  0.0000000000000D+00  0.0000000000000D+00
180  1.7900000000000D+00  0.0000000000000D+00  0.0000000000000D+00
181  1.8000000000000D+00  0.0000000000000D+00  0.0000000000000D+00
182  1.8100000000000D+00  0.0000000000000D+00  0.0000000000000D+00
183  1.8200000000000D+00  0.0000000000000D+00  0.0000000000000D+00
184  1.8300000000000D+00  0.0000000000000D+00  0.0000000000000D+00
185  1.8400000000000D+00  0.0000000000000D+00  0.0000000000000D+00
186  1.8500000000000D+00  0.0000000000000D+00  0.0000000000000D+00
187  1.8600000000000D+00  0.0000000000000D+00  0.0000000000000D+00
188  1.8700000000000D+00  0.0000000000000D+00  0.0000000000000D+00
189  1.8800000000000D+00  0.0000000000000D+00  0.0000000000000D+00
190  1.8900000000000D+00  0.0000000000000D+00  0.0000000000000D+00
191  1.9000000000000D+00  0.0000000000000D+00  0.0000000000000D+00
192  1.9100000000000D+00  0.0000000000000D+00  0.0000000000000D+00
193  1.9200000000000D+00  0.0000000000000D+00  0.0000000000000D+00
194  1.9300000000000D+00  0.0000000000000D+00  0.0000000000000D+00
195  1.9400000000000D+00  0.0000000000000D+00  0.0000000000000D+00
196  1.9500000000000D+00  0.0000000000000D+00  0.0000000000000D+00
197  1.9600000000000D+00  0.0000000000000D+00  0.0000000000000D+00
198  1.9700000000000D+00  0.0000000000000D+00  0.0000000000000D+00
199  1.9800000000000D+00  0.0000000000000D+00  0.0000000000000D+00
200  1.9900000000000D+00  0.0000000000000D+00  0.0000000000000D+00
201  2.0000000000000D+00  0.0000000000000D+00  0.0000000000000D+00
202  2.0100000000000D+00  0.0000000000000D+00  0.0000000000000D+00
203  2.0200000000000D+00  0.0000000000000D+00  0.0000000000000D+00
204  2.0300000000000D+00  0.0000000000000D+00  0.0000000000000D+00
205  2.0400000000000D+00  0.0000000000000D+00  0.0000000000000D+00
206  2.0500000000000D+00  0.0000000000000D+00  0.0000000000000D+00
207  2.0600000000000D+00  0.0000000000000D+00  0.0000000000000D+00
208  2.0700000000000D+00  0.0000000000000D+00  0.0000000000000D+00
209  2.0800000000000D+00  0.0000000000000D+00  0.0000000000000D+00
210  2.0900000000000D+00  0.0000000000000D+00  0.0000000000000D+00
211  2.1000000000000D+00  0.0000000000000D+00  0.0000000000000D+00
212  2.1100000000000D+00  0.0000000000000D+00  0.0000000000000D+00
213  2.1200000000000D+00  0.0000000000000D+00  0.0000000000000D+00
214  2.1300000000000D+00  0.0000000000000D+00  0.0000000000000D+00
215  2.1400000000000D+00  0.0000000000000D+00  0.0000000000000D+00
216  2.1500000000000D+00  0.0000000000000D+00  0.0000000000000D+00
217  2.1600000000000D+00  0.0000000000000D+00  0.0000000000000D+00
218  2.1700000000000D+00  0.0000000000000D+00  0.0000000000000D+00
219  2.1800000000000D+00  0.0000000000000D+00  0.0000000000000D+00
220  2.1900000000000D+00  0.0000000000000D+00  0.0000000000000D+00
221  2.2000000000000D+00  0.0000000000000D+00  0.0000000000000D+00
222  2.2100000000000D+00  0.0000000000000D+00  0.0000000000000D+00
223  2.2200000000000D+00  0.0000000000000D+00  0.0000000000000D+00
224  2.2300000000000D+00  0.0000000000000D+00  0.0000000000000D+00
225  2.2400000000000D+00  0.0000000000000D+00  0.0000000000000D+00
226  2.2500000000000D+00  0.0000000000000D+00  0.0000000000000D+00
227  2.2600000000000D+00  0.0000000000000D+00  0.0000000000000D+00
228  2.2700000000000D+00  0.0000000000000D+00  0.0000000000000D+00
229  2.2800000000000D+00  0.0000000000000D+00  0.0000000000000D+00
230  2.2900000000000D+00  0.0000000000000D+00  0.0000000000000D+00
231  2.3000000000000D+00  0.0000000000000D+00  0.0000000000000D+00
232  2.3100000000000D+00  0.0000000000000D+00  0.0000000000000D+00
233  2.3200000000000D+00  0.0000000000000D+00  0.0000000000000D+00
234  2.3300000000000D+00  0.0000000000000D+00  0.0000000000000D+00
235  2.3400000000000D+00  0.0000000000000D+00  0.0000000000000D+00
236  2.3500000000000D+00  0.0000000000000D+00  0.0000000000000D+00
237  2.3600000000000D+00  0.0000000000000D+00  0.0000000000000D+00
238  2.3700000000000D+00  0.0000000000000D+00  0.0000000000000D+00
239  2.3800000000000D+00  0.0000000000000D+00  0.0000000000000D+00
240  2.3900000000000D+00  0.0000000000000D+00  0.0000000000000D+00
241  2.4000000000000D+00  0.0000000000000D+00  0.0000000000000D+00
242  2.4100000000000D+00  0.0000000000000D+00  0.0000000000000D+00
243  2.4200000000000D+00  0.0000000000000D+00  0.0000000000000D+00
244  2.4300000000000D+00  0.0000000000000D+00  0.0000000000000D+00
245  2.4400000000000D+00  0.0000000000000D+00  0.0000000000000D+00
246  2.4500000000000D+00  0.0000000000000D+00  0.0000000000000D+00
247  2.4600000000000D+00  0.0000000000000D+00  0.0000000000000D+00
248  2.4700000000000D+00  0.0000000000000D+00  0.0000000000000D+00
249  2.4800000000000D+00  0.0000000000000D+00  0.0000000000000D+00
250  2.4900000000000D+00  0.0000000000000D+00  0.0000000000000D+00
251  2.5000000000000D+00  0.0000000000000D+00  0.0000000000000D+00
252  2.5100000000000D+00  0.0000000000000D+00  0.0000000000000D+00
253  2.5200000000000D+00  0.0000000000000D+00  0.0000000000000D+00
254  2.5300000000000D+00  0.0000000000000D+00  0.0000000000000D+00
255  2.5400000000000D+00  0.0000000000000D+00  0.0000000000000D+00
256  2.5500000000000D+00  0.0000000000000D+00  0.0000000000000D+00
257  2.5600000000000D+00  0.0000000000000D+00  0.0000000000000D+00
258  2.5700000000000D+00  0.0000000000000D+00  0.0000000000000D+00
259  2.5800000000000D+00  0.0000000000000D+00  0.0000000000000D+00
260  2.5900000000000D+00  0.0000000000000D+00  0.0000000000000D+00
261  2.6000000000000D+00  0.0000000000000D+00  0.0000000000000D+00
262  2.6100000000000D+00  0.0000000000000D+00  0.0000000000000D+00
263  2.6200000000000D+00  0.0000000000000D+00  0.0000000000000D+00
264  2.6300000000000D+00  0.0000000000000D+00  0.0000000000000D+00
265  2.6400000000000D+00  0.0000000000000D+00  0.0000000000000D+00
266  2.6500000000000D+00  0.0000000000000D+00  0.0000000000000D+00
267  2.6600000000000D+00  0.0000000000000D+00  0.0000000000000D+00
268  2.6700000000000D+00  0.0000000000000D+00  0.0000000000000D+00
269  2.6800000000000D+00  0.0000000000000D+00  0.0000000000000D+00
270  2.6900000000000D+00  0.0000000000000D+00  0.0000000000000D+00
271  2.7000000000000D+00  0.0000000000000D+00  0.0000000000000D+00
272  2.7100000000000D+00  0.0000000000000D+00  0.0000000000000D+00
273  2.7200000000000D+00  0.0000000000000D+00  0.0000000000000D+00
274  2.7300000000000D+00  0.0000000000000D+00  0.0000000000000D+00
275  2.7400000000000D+00  0.0000000000000D+00  0.0000000000000D+00
276  2.7500000000000D+00  0.0000000000000D+00  0.0000000000000D+00
277  2.7600000000000D+00  0.0000000000000D+00  0.0000000000000D+00
278  2.7700000000000D+00  0.0000000000000D+00  0.0000000000000D+00
279  2.7800000000000D+00  0.0000000000000D+00  0.0000000000000D+00
280  2.7900000000000D+00  0.0000000000000D+00  0.0000000000000D+00
281  2.8000000000000D+00  0.0000000000000D+00  0.0000000000000D+00
282  2.8100000000000D+00  0.0000000000000D+00  0.0000000000000D+00
283  2.8200000000000D+00  0.0000000000000D+00  0.0000000000000D+00
284  2.8300000000000D+00  0.0000000000000D+00  0.0000000000000D+00
285  2.8400000000000D+00  0.0000000000000D+00  0.0000000000000D+00
286  2.8500000000000D+00  0.0000000000000D+00  0.0000000000000D+00
287  2.8600000000000D+00  0.0000000000000D+00  0.0000000000000D+00
288  2.8700000000000D+00  0.0000000000000D+00  0.0000000000000D+00
289  2.8800000000000D+00  0.0000000000000D+00  0.0000000000000D+00
290  2.8900000000000D+00  0.0000000000000D+00  0.0000000000000D+00
291  2.9000000000000D+00  0.0000000000000D+00  0.0000000000000D+00
292  2.9100000000000D+00  0.0000000000000D+00  0.0000000000000D+00
293  2.9200000000000D+00  0.0000000000000D+00  0.0000000000000D+00
294  2.9300000000000D+00  0.0000000000000D+00  0.0000000000000D+00
295  2.9400000000000D+00  0.0000000000000D+00  0.0000000000000D+00
296  2.9500000000000D+00  0.0000000000000D+00  0.0000000000000D+00
297  2.9600000000000D+00  0.0000000000000D+00  0.0000000000000D+00
298  2.9700000000000D+00  0.0000000000000D+00  0.0000000000000D+00
299  2.9800000000000D+00  0.0000000000000D+00  0.0000000000000D+00
300  2.9900000000000D+00  0.0000000000000D+00  0.0000000000000D+00
301  3.0000000000000D+00  0.0000000000000D+00  0.0000000000000D+00
302  3.0100000000000D+00  0.0000000000000D+00  0.0000000000000D+00
303  3.0200000000000D+00  0.0000000000000D+00  0.0000000000000D+00
304  3.0300000000000D+00  0.0000000000000D+00  0.0000000000000D+00
305  3.0400000000000D+00  0.0000000000000D+00  0.0000000000000D+00
306  3.0500000000000D+00  0.0000000000000D+00  0.0000000000000D+00
307  3.0600000000000D+00  0.0000000000000D+00  0.0000000000000D+00
308  3.0700000000000D+00  0.0000000000000D+00  0.0000000000000D+00
309  3.0800000000000D+00  0.0000000000000D+00  0.0000000000000D+00
310  3.0900000000000D+00  0.0000000000000D+00  0.0000000000000D+00
311  3.1000000000000D+00  0.0000000000000D+00  0.0000000000000D+00
312  3.1100000000000D+00  0.0000000000000D+00  0.0000000000000D+00
313  3.1200000000000D+00  0.0000000000000D+00  0.0000000000000D+00
314  3.1300000000000D+00  0.0000000000000D+00  0.0000000000000D+00
315  3.1400000000000D+00  0.0000000000000D+00  0.0000000000000D+00
316  3.1500000000000D+00  0.0000000000000D+00  0.0000000000000D+00
317  3.1600000000000D+00  0.0000000000000D+00  0.0000000000000D+00
318  3.1700000000000D+00  0.0000000000000D+00  0.0000000000000D+00
319  3.1800000000000D+00  0.0000000000000D+00  0.0000000000000D+00
320  3.1900000000000D+00  0.0000000000000D+00  0.0000000000000D+00
321  3.2000000000000D+00  0.0000000000000D+00  0.0000000000000D+00
322  3.2100000000000D+00  0.0000000000000D+00  0.0000000000000D+00
323  3.2200000000000D+00  0.0000000000000D+00  0.0000000000000D+00
324  3.2300000000000D+00  0.0000000000000D+00  0.0000000000000D+00
325  3.2400000000000D+00  0.0000000000000D+00  0.0000000000000D+00
326  3.2500000000000D+00  0.0000000000000D+00  0.0000000000000D+00
327  3.2600000000000D+00  0.0000000000000D+00  0.0000000000000D+00
328  3.2700000000000D+00  0.0000000000000D+00  0.0000000000000D+00
329  3.2800000000000D+00  0.0000000000000D+00  0.0000000000000D+00
330  3.2900000000000D+00  0.0000000000000D+00  0.0000000000000D+00
331  3.3000000000000D+00  0.0000000000000D+00  0.0000000000000D+00
332  3.3100000000000D+00  0.0000000000000D+00  0.0000000000000D+00
333  3.3200000000000D+00  0.0000000000000D+00  0.0000000000000D+00
334  3.3300000000000D+00  0.0000000000000D+00  0.0000000000000D+00
335  3.3400000000000D+00  0.0000000000000D+00  0.0000000000000D+00
336  3.3500000000000D+00  0.0000000000000D+00  0.0000000000000D+00
337  3.3600000000000D+00  0.0000000000000D+00  0.0000000000000D+00
338  3.3700000000000D+00  0.0000000000000D+00  0.0000000000000D+00
339  3.3800000000000D+00  0.0000000000000D+00  0.0000000000000D+00
340  3.3900000000000D+00  0.0000000000000D+00  0.0000000000000D+00
341  3.4000000000000D+00  0.0000000000000D+00  0.0000000000000D+00
342  3.4100000000000D+00  0.0000000000000D+00  0.0000000000000D+00
343  3.4200000000000D+00  0.0000000000000D+00  0.0000000000000D+00
344  3.4300000000000D+00  0.0000000000000D+00  0.0000000000000D+00
345  3.4400000000000D+00  0.0000000000000D+00  0.0000000000000D+00
346  3.4500000000000D+00  0.0000000000000D+00  0.0000000000000D+00
347  3.4600000000000D+00  0.0000000000000D+00  0.0000000000000D+00
348  3.4700000000000D+00  0.0000000000000D+00  0.0000000000000D+00
349  3.4800000000000D+00  0.0000000000000D+00  0.0000000000000D+00
350  3.4900000000000D+00  0.0000000000000D+00  0.0000000000000D+00
351  3.5000000000000D+00  0.0000000000000D+00  0.0000000000000D+00
352  3.5100000000000D+00  0.0000000000000D+00  0.0000000000000D+00
353  3.5200000000000D+00  0.0000000000000D+00  0.0000000000000D+00
354  3.5300000000000D+00  0.0000000000000D+00  0.0000000000000D+00
355  3.5400000000000D+00  0.0000000000000D+00  0.0000000000000D+00
356  3.5500000000000D+00  0.0000000000000D+00  0.0000000000000D+00
357  3.5600000000000D+00  0.0000000000000D+00  0.0000000000000D+00
358  3.5700000000000D+00  0.0000000000000D+00  0.0000000000000D+00
359  3.5800000000000D+00  0.0000000000000D+00  0.0000000000000D+00
360  3.5900000000000D+00  0.0000000000000D+00  0.0000000000000D+00
361  3.6000000000000D+00  0.0000000000000D+00  0.0000000000000D+00
362  3.6100000000000D+00  0.0000000000000D+00  0.0000000000000D+00
363  3.6200000000000D+00  0.0000000000000D+00  0.0000000000000D+00
364  3.6300000000000D+00  0.0000000000000D+00  0.0000000000000D+00
365  3.6400000000000D+00  0.0000000000000D+00  0.0000000000000D+00
366  3.6500000000000D+00  0.0000000000000D+00  0.0000000000000D+00
367  3.6600000000000D+00  0.0000000000000D+00  0.0000000000000D+00
368  3.6700000000000D+00  0.0000000000000D+00  0.0000000000000D+00
369  3.6800000000000D+00  0.0000000000000D+00  0.0000000000000D+00
370  3.6900000000000D+00  0.0000000000000D+00  0.0000000000000D+00
371  3.7000000000000D+00  0.0000000000000D+00  0.0000000000000D+00
372  3.7100000000000D+00  0.0000000000000D+00  0.0000000000000D+00
373  3.7200000000000D+00  0.0000000000000D+00  0.0000000000000D+00
374  3.7300000000000D+00  0.0000000000000D+00  0.0000000000000D+00
375  3.7400000000000D+00  0.0000000000000D+00  0.0000000000000D+00
376  3.7500000000000D+00  0.0000000000000D+00  0.0000000000000D+00
377  3.7600000000000D+00  0.0000000000000D+00  0.0000000000000D+00
378  3.7700000000000D+00  0.0000000000000D+00  0.0000000000000D+00
379  3.7800000000000D+00  0.0000000000000D+00  0.0000000000000D+00
380  3.7900000000000D+00  0.0000000000000D+00  0.0000000000000D+00
381  3.8000000000000D+00  0.0000000000000D+00  0.0000000000000D+00
382  3.8100000000000D+00  0.0000000000000D+00  0.0000000000000D+00
383  3.8200000000000D+00  0.0000000000000D+00  0.0000000000000D+00
384  3.8300000000000D+00  0.0000000000000D+00  0.0000000000000D+00
385  3.8400000000000D+00  0.0000000000000D+00  0.0000000000000D+00
386  3.8500000000000D+00  0.0000000000000D+00  0.0000000000000D+00
387  3.8600000000000D+00  0.0000000000000D+00  0.0000000000000D+00
388  3.8700000000000D+00  0.0000000000000D+00  0.0000000000000D+00
389  3.8800000000000D+00  0.0000000000000D+00  0.0000000000000D+00
390  3.8900000000000D+00  0.0000000000000D+00  0.0000000000000D+00
391  3.9000000000000D+00  0.0000000000000D+00  0.0000000000000D+00
392  3.9100000000000D+00  0.0000000000000D+00  0.0000000000000D+00
393  3.9200000000000D+00  0.0000000000000D+00  0.0000000000000D+00
394  3.9300000000000D+00  0.0000000000000D+00  0.0000000000000D+00
395  3.9400000000000D+00  0.0000000000000D+00  0.0000000000000D+00
396  3.9500000000000D+00  0.0000000000000D+00  0.0000000000000D+00
397  3.9600000000000D+00  0.0000000000000D+00  0.0000000000000D+00
398  3.9700000000000D+00  0.0000000000000D+00  0.0000000000000D+00
399  3.9800000000000D+00  0.0000000000000D+00  0.0000000000000D+00
400  3.9900000000000D+00  0.0000000000000D+00  0.0000000000000D+00
401  4.0000000000000D+00  0.0000000000000D+00  0.0000000000000D+00
402  4.0100000000000D+00  0.0000000000000D+00  0.0000000000000D+00
403  4.0200000000000D+00  0.0000000000000D+00  0.0000000000000D+00
404  4.0300000000000D+00  0.0000000000000D+00  0.0000000000000D+00
405  4.0400000000000D+00  0.0000000000000D+00  0.0000000000000D+00
406  4.0500000000000D+00  0.0000000000000D+00  0.0000000000000D+00
407  4.0600000000000D+00  0.0000000000000D+00  0.0000000000000D+00
408  4.0700000000000D+00  0.0000000000000D+00  0.0000000000000D+00
409  4.0800000000000D+00  0.0000000000000D+00  0.0000000000000D+00
410  4.0900000000000D+00  0.0000000000000D+00  0.0000000000000D+00
411  4.1000000000000D+00  0.0000000000000D+00  0.0000000000000D+00
412  4.1100000000000D+00  0.0000000000000D+00  0.0000000000000D+00
413  4.1200000000000D+00  0.0000000000000D+00  0.0000000000000D+00
414  4.1300000000000D+00  0.0000000000000D+00  0.0000000000000D+00
415  4.1400000000000D+00  0.0000000000000D+00  0.0000000000000D+00
416  4.1500000000000D+00  0.0000000000000D+00  0.0000000000000D+00
417  4.1600000000000D+00  0.0000000000000D+00  0.0000000000000D+00
418  4.1700000000000D+00  0.0000000000000D+00  0.0000000000000D+00
419  4.1800000000000D+00  0.0000000000000D+00  0.0000000000000D+00
420  4.1900000000000D+00  0.0000000000000D+00  0.0000000000000D+00
421  4.2000000000000D+00  0.0000000000000D+00  0.0000000000000D+00
422  4.2100000000000D+00  0.0000000000000D+00  0.0000000000000D+00
423  4.2200000000000D+00  0.0000000000000D+00  0.0000000000000D+00
424  4.2300000000000D+00  0.0000000000000D+00  0.0000000000000D+00
425  4.2400000000000D+00  0.0000000000000D+00  0.0000000000000D+00
426  4.2500000000000D+00  0.0000000000000D+00  0.0000000000000D+00
427  4.2600000000000D+00  0.0000000000000D+00  0.0000000000000D+00
428  4.2700000000000D+00  0.0000000000000D+00  0.0000000000000D+00
429  4.2800000000000D+00  0.0000000000000D+00  0.0000000000000D+00
430  4.2900000000000D+00  0.0000000000000D+00  0.0000000000000D+00
431  4.3000000000000D+00  0.0000000000000D+00  0.0000000000000D+00
432  4.3100000000000D+00  0.0000000000000D+00  0.0000000000000D+00
433  4.3200000000000D+00  0.0000000000000D+00  0.0000000000000D+00
434  4.3300000000000D+00  0.0000000000000D+00  0.0000000000000D+00
435  4.3400000000000D+00  0.0000000000000D+00  0.0000000000000D+00
436  4.3500000000000D+00  0.0000000000000D+00  0.0000000000000D+00
437  4.3600000000000D+00  0.0000000000000D+00  0.0000000000000D+00
438  4.3700000000000D+00  0.0000000000000D+00  0.0000000000000D+00
439  4.3800000000000D+00  0.0000000000000D+00  0.0000000000000D+00
440  4.3900000000000D+00  0.0000000000000D+00  0.0000000000000D+00
441  4.4000000000000D+00  0.0000000000000D+00  0.0000000000000D+00
442  4.4100000000000D+00  0.0000000000000D+00  0.0000000000000D+00
443  4.4200000000000D+00  0.0000000000000D+00  0.0000000000000D+00
444  4.4300000000000D+00  0.0000000000000D+00  0.0000000000000D+00