Fe    ONCVPSP  r_core=  1.31  1.36  1.66
26.0000     16.0000      150122    zatom,zion,pspd
8      11   2     4   600     0    pspcod,pspxc,lmax,lloc,mmax,r2well
5.99000000  0.05000000  0.00000000    rchrg fchrg qchrg
2     2     2     0     0    nproj
0                 extension_switch
0                         1.1281415671971D+01  1.8269990253199D+00
1  0.0000000000000D+00  0.0000000000000D+00 -0.0000000000000D+00
2  1.0000000000000D-02  9.2234217020174D-02 -1.1272000261269D-02
3  2.0000000000000D-02  1.8423382631429D-01 -2.2472093312404D-02
4  3.0000000000000D-02  2.7576434265456D-01 -3.3527503880961D-02
5  4.0000000000000D-02  3.6659153439166D-01 -4.4363740448588D-02
6  5.0000000000000D-02  4.5648157156330D-01 -5.4903786557452D-02
7  6.0000000000000D-02  5.4520119920746D-01 -6.5067350686979D-02
8  7.0000000000000D-02  6.3251794365661D-01 -7.4770192988434D-02
9  8.0000000000000D-02  7.1820035906056D-01 -8.3923546129127D-02
10  9.0000000000000D-02  8.0201832073954D-01 -9.2433646212427D-02
11  1.0000000000000D-01  8.8374337120794D-01 -1.0020138823994D-01
12  1.1000000000000D-01  9.6314912384007D-01 -1.0712211887046D-01
13  1.2000000000000D-01  1.0400117281995D+00 -1.1308557731886D-01
14  1.3000000000000D-01  1.1141104000092D+00 -1.1797599318142D-01
15  1.4000000000000D-01  1.1852280175887D+00 -1.2167234774237D-01
16  1.5000000000000D-01  1.2531517855399D+00 -1.2404880300605D-01
17  1.6000000000000D-01  1.3176739649916D+00 -1.2497530019784D-01
18  1.7000000000000D-01  1.3785926688698D+00 -1.2431832712945D-01
19  1.8000000000000D-01  1.4357127188349D+00 -1.2194185097997D-01
20  1.9000000000000D-01  1.4888465603387D+00 -1.1770841136678D-01
21  2.0000000000000D-01  1.5378152284818D+00 -1.1148036357671D-01
22  2.1000000000000D-01  1.5824493614942D+00 -1.0312126497988D-01
23  2.2000000000000D-01  1.6225902491929D+00 -9.2497386257920D-02
24  2.3000000000000D-01  1.6580909119758D+00 -7.9479337128614D-02
25  2.4000000000000D-01  1.6888171961021D+00 -6.3943783674001D-02
26  2.5000000000000D-01  1.7146488814598D+00 -4.5775247598735D-02
27  2.6000000000000D-01  1.7354807772610D+00 -2.4867947797683D-02
28  2.7000000000000D-01  1.7512238124113D+00 -1.1276893522678D-03
29  2.8000000000000D-01  1.7618060856374D+00  2.5526256823148D-02
30  2.9000000000000D-01  1.7671738804531D+00  5.5159281068077D-02
31  3.0000000000000D-01  1.7672926223271D+00  8.7819608085261D-02
32  3.1000000000000D-01  1.7621477662059D+00  1.2353653960122D-01
33  3.2000000000000D-01  1.7517455965325D+00  1.6231880081968D-01
34  3.3000000000000D-01  1.7361139413788D+00  2.0415298998014D-01
35  3.4000000000000D-01  1.7153027717970D+00  2.4900218361189D-01
36  3.5000000000000D-01  1.6893846648081D+00  2.9680474374048D-01
37  3.6000000000000D-01  1.6584551701974D+00  3.4747324739169D-01
38  3.7000000000000D-01  1.6226329945483D+00  4.0089370959042D-01
39  3.8000000000000D-01  1.5820600452233D+00  4.5692502150415D-01
40  3.9000000000000D-01  1.5369013380523D+00  5.1539858299891D-01
41  4.0000000000000D-01  1.4873446961393D+00  5.7611829734770D-01
42  4.1000000000000D-01  1.4336003007117D+00  6.3886079183585D-01
43  4.2000000000000D-01  1.3759000594747D+00  7.0337594138546D-01
44  4.3000000000000D-01  1.3144967951125D+00  7.6938769210656D-01
45  4.4000000000000D-01  1.2496632542428D+00  8.3659518690671D-01
46  4.5000000000000D-01  1.1816909384614D+00  9.0467419302057D-01
47  4.6000000000000D-01  1.1108887610822D+00  9.7327882782164D-01
48  4.7000000000000D-01  1.0375815356514D+00  1.0420435750005D+00
49  4.8000000000000D-01  9.6210833248161D-01  1.1105855476088D+00
50  4.9000000000000D-01  8.8482059716513D-01  1.1785071053939D+00
51  5.0000000000000D-01  8.0608020935598D-01  1.2453986475880D+00
52  5.1000000000000D-01  7.2625743452753D-01  1.3108415890148D+00
53  5.2000000000000D-01  6.4572872051883D-01  1.3744115831940D+00
54  5.3000000000000D-01  5.6487422187282D-01  1.4356821637983D+00
55  5.4000000000000D-01  4.8407578027429D-01  1.4942278190196D+00
56  5.5000000000000D-01  4.0371405450076D-01  1.5496282243598D+00
57  5.6000000000000D-01  3.2416641985209D-01  1.6014714701767D+00
58  5.7000000000000D-01  2.4580421309801D-01  1.6493581836951D+00
59  5.8000000000000D-01  1.6899043392737D-01  1.6929050330568D+00
60  5.9000000000000D-01  9.4077013834956D-02  1.7317488300956D+00
61  6.0000000000000D-01  2.1402925858007D-02  1.7655494278396D+00
62  6.1000000000000D-01 -4.8709076210111D-02  1.7939945616690D+00
63  6.2000000000000D-01 -1.1595348009956D-01  1.8168014455135D+00
64  6.3000000000000D-01 -1.8004534768611D-01  1.8337216664609D+00
65  6.4000000000000D-01 -2.4072173669436D-01  1.8445432793902D+00
66  6.5000000000000D-01 -2.9774308891493D-01  1.8490928064261D+00
67  6.6000000000000D-01 -3.5089598563694D-01  1.8472391602789D+00
68  6.7000000000000D-01 -3.9999395604633D-01  1.8388946903482D+00
69  6.8000000000000D-01 -4.4487865949372D-01  1.8240167104365D+00
70  6.9000000000000D-01 -4.8542072438871D-01  1.8026084771006D+00
71  7.0000000000000D-01 -5.2152172693965D-01  1.7747216796601D+00
72  7.1000000000000D-01 -5.5311355666471D-01  1.7404551586553D+00
73  7.2000000000000D-01 -5.8015909652408D-01  1.6999554040953D+00
74  7.3000000000000D-01 -6.0265228597195D-01  1.6534160924450D+00
75  7.4000000000000D-01 -6.2061777416679D-01  1.6010769870082D+00
76  7.5000000000000D-01 -6.3411087688768D-01  1.5432230910739D+00
77  7.6000000000000D-01 -6.4321654558851D-01  1.4801824066142D+00
78  7.7000000000000D-01 -6.4804833217698D-01  1.4123236100921D+00
79  7.8000000000000D-01 -6.4874725003409D-01  1.3400534745294D+00
80  7.9000000000000D-01 -6.4548032205321D-01  1.2638137935554D+00
81  8.0000000000000D-01 -6.3843890740800D-01  1.1840779327130D+00
82  8.1000000000000D-01 -6.2783682266813D-01  1.1013470383682D+00
83  8.2000000000000D-01 -6.1390827500256D-01  1.0161459385036D+00
84  8.3000000000000D-01 -5.9690562712002D-01  9.2901877319996D-01
85  8.4000000000000D-01 -5.7709701528139D-01  8.4052439571277D-01
86  8.5000000000000D-01 -5.5476384317500D-01  7.5123158771235D-01
87  8.6000000000000D-01 -5.3019817566897D-01  6.6171413446502D-01
88  8.7000000000000D-01 -5.0370005744559D-01  5.7254580749376D-01
89  8.8000000000000D-01 -4.7557478227900D-01  4.8429530355495D-01
90  8.9000000000000D-01 -4.4613013923651D-01  3.9752118959619D-01
91  9.0000000000000D-01 -4.1567366235450D-01  3.1276690369381D-01
92  9.1000000000000D-01 -3.8450991034616D-01  2.3055586176971D-01
93  9.2000000000000D-01 -3.5293780261257D-01  1.5138671909941D-01
94  9.3000000000000D-01 -3.2124803721401D-01  7.5728834173451D-02
95  9.4000000000000D-01 -2.8972061547116D-01  4.0179802731638D-03
96  9.5000000000000D-01 -2.5862249645449D-01 -6.3347652925803D-02
97  9.6000000000000D-01 -2.2820605951961D-01 -1.2600985315723D-01
98  9.7000000000000D-01 -1.9870548607930D-01 -1.8365684002572D-01
99  9.8000000000000D-01 -1.7033572373982D-01 -2.3602453669396D-01
100  9.9000000000000D-01 -1.4329114393663D-01 -2.8289851427693D-01
101  1.0000000000000D+00 -1.1774386177780D-01 -3.2411655780285D-01
102  1.0100000000000D+00 -9.3842529400394D-02 -3.5957028799074D-01
103  1.0200000000000D+00 -7.1711403329311D-02 -3.8920624541973D-01
104  1.0300000000000D+00 -5.1451133880637D-02 -4.1302389835026D-01
105  1.0400000000000D+00 -3.3133022302144D-02 -4.3108523026654D-01
106  1.0500000000000D+00 -1.6803824759920D-02 -4.4350530155768D-01
107  1.0600000000000D+00 -2.4841368413976D-03 -4.5045445463272D-01
108  1.0700000000000D+00  9.8314534129652D-03 -4.5215727366374D-01
109  1.0800000000000D+00  2.0172203857335D-02 -4.4888833897345D-01
110  1.0900000000000D+00  2.8596883844498D-02 -4.4098046931669D-01
111  1.1000000000000D+00  3.5187006428797D-02 -4.2881260996673D-01
112  1.1100000000000D+00  4.0047536656594D-02 -4.1281000227331D-01
113  1.1200000000000D+00  4.3304324187523D-02 -3.9343885075277D-01
114  1.1300000000000D+00  4.5101374429687D-02 -3.7119442348867D-01
115  1.1400000000000D+00  4.5591108595483D-02 -3.4657863210418D-01
116  1.1500000000000D+00  4.4932691378451D-02 -3.2009805695094D-01
117  1.1600000000000D+00  4.3290945133225D-02 -2.9226275119066D-01
118  1.1700000000000D+00  4.0832077977137D-02 -2.6357150055366D-01
119  1.1800000000000D+00  3.7721599336020D-02 -2.3451237547450D-01
120  1.1900000000000D+00  3.4123522180956D-02 -2.0556162085683D-01
121  1.2000000000000D+00  3.0198377576052D-02 -1.7717845267516D-01
122  1.2100000000000D+00  2.6095943972171D-02 -1.4978640701530D-01
123  1.2200000000000D+00  2.1958612922471D-02 -1.2378595809163D-01
124  1.2300000000000D+00  1.7922690008629D-02 -9.9557887563547D-02
125  1.2400000000000D+00  1.4103266310623D-02 -7.7423661552260D-02
126  1.2500000000000D+00  1.0604481142653D-02 -5.7675251778597D-02
127  1.2600000000000D+00  7.5205419411240D-03 -4.0577273498299D-02
128  1.2700000000000D+00  4.9192484549123D-03 -2.6325427947984D-02
129  1.2800000000000D+00  2.8535506514712D-03 -1.5077384167515D-02
130  1.2900000000000D+00  1.3651900311888D-03 -6.9616361165729D-03
131  1.3000000000000D+00  5.0260126917299D-04 -2.2211588688131D-03
132  1.3100000000000D+00  1.5552025554482D-04 -3.2592618099809D-04
133  1.3200000000000D+00  1.6580337297329D-05  1.1208107633838D-04
134  1.3300000000000D+00 -8.2437212490635D-06  1.6003637102994D-05
135  1.3400000000000D+00 -3.3135150500591D-06  6.4325673799896D-06
136  1.3500000000000D+00  0.0000000000000D+00  0.0000000000000D+00
137  1.3600000000000D+00  0.0000000000000D+00  0.0000000000000D+00
138  1.3700000000000D+00  0.0000000000000D+00  0.0000000000000D+00
139  1.3800000000000D+00  0.0000000000000D+00  0.0000000000000D+00
140  1.3900000000000D+00  0.0000000000000D+00  0.0000000000000D+00
141  1.4000000000000D+00  0.0000000000000D+00  0.0000000000000D+00
142  1.4100000000000D+00  0.0000000000000D+00  0.0000000000000D+00
143  1.4200000000000D+00  0.0000000000000D+00  0.0000000000000D+00
144  1.4300000000000D+00  0.0000000000000D+00  0.0000000000000D+00
145  1.4400000000000D+00  0.0000000000000D+00  0.0000000000000D+00
146  1.4500000000000D+00  0.0000000000000D+00  0.0000000000000D+00
147  1.4600000000000D+00  0.0000000000000D+00  0.0000000000000D+00
148  1.4700000000000D+00  0.0000000000000D+00  0.0000000000000D+00
149  1.4800000000000D+00  0.0000000000000D+00  0.0000000000000D+00
150  1.4900000000000D+00  0.0000000000000D+00  0.0000000000000D+00
151  1.5000000000000D+00  0.0000000000000D+00  0.0000000000000D+00
152  1.5100000000000D+00  0.0000000000000D+00  0.0000000000000D+00
153  1.5200000000000D+00  0.0000000000000D+00  0.0000000000000D+00
154  1.5300000000000D+00  0.0000000000000D+00  0.0000000000000D+00
155  1.5400000000000D+00  0.0000000000000D+00  0.0000000000000D+00
156  1.5500000000000D+00  0.0000000000000D+00  0.0000000000000D+00
157  1.5600000000000D+00  0.0000000000000D+00  0.0000000000000D+00
158  1.5700000000000D+00  0.0000000000000D+00  0.0000000000000D+00
159  1.5800000000000D+00  0.0000000000000D+00  0.0000000000000D+00
160  1.5900000000000D+00  0.0000000000000D+00  0.0000000000000D+00
161  1.6000000000000D+00  0.0000000000000D+00  0.0000000000000D+00
162  1.6100000000000D+00  0.0000000000000D+00  0.0000000000000D+00
163  1.6200000000000D+00  0.0000000000000D+00  0.0000000000000D+00
164  1.6300000000000D+00  0.0000000000000D+00  0.0000000000000D+00
165  1.6400000000000D+00  0.0000000000000D+00  0.0000000000000D+00
166  1.6500000000000D+00  0.0000000000000D+00  0.0000000000000D+00
167  1.6600000000000D+00  0.0000000000000D+00  0.0000000000000D+00
168  1.6700000000000D+00  0.0000000000000D+00  0.0000000000000D+00
169  1.6800000000000D+00  0.0000000000000D+00  0.0000000000000D+00
170  1.6900000000000D+00  0.0000000000000D+00  0.0000000000000D+00
171  1.7000000000000D+00  0.0000000000000D+00  0.0000000000000D+00
172  1.7100000000000D+00  0.0000000000000D+00  0.0000000000000D+00
173  1.7200000000000D+00  0.0000000000000D+00  0.0000000000000D+00
174  1.7300000000000D+00  0.0000000000000D+00  0.0000000000000D+00
175  1.7400000000000D+00  0.0000000000000D+00  0.0000000000000D+00
176  1.7500000000000D+00  0.0000000000000D+00  0.0000000000000D+00
177  1.7600000000000D+00  0.0000000000000D+00  0.0000000000000D+00
178  1.7700000000000D+00  0.0000000000000D+00  0.0000000000000D+00
179  1.7800000000000D+00  0.0000000000000D+00  0.0000000000000D+00
180  1.7900000000000D+00  0.0000000000000D+00  0.0000000000000D+00
181  1.8000000000000D+00  0.0000000000000D+00  0.0000000000000D+00
182  1.8100000000000D+00  0.0000000000000D+00  0.0000000000000D+00
183  1.8200000000000D+00  0.0000000000000D+00  0.0000000000000D+00
184  1.8300000000000D+00  0.0000000000000D+00  0.0000000000000D+00
185  1.8400000000000D+00  0.0000000000000D+00  0.0000000000000D+00
186  1.8500000000000D+00  0.0000000000000D+00  0.0000000000000D+00
187  1.8600000000000D+00  0.0000000000000D+00  0.0000000000000D+00
188  1.8700000000000D+00  0.0000000000000D+00  0.0000000000000D+00
189  1.8800000000000D+00  0.0000000000000D+00  0.0000000000000D+00
190  1.8900000000000D+00  0.0000000000000D+00  0.0000000000000D+00
191  1.9000000000000D+00  0.0000000000000D+00  0.0000000000000D+00
192  1.9100000000000D+00  0.0000000000000D+00  0.0000000000000D+00
193  1.9200000000000D+00  0.0000000000000D+00  0.0000000000000D+00
194  1.9300000000000D+00  0.0000000000000D+00  0.0000000000000D+00
195  1.9400000000000D+00  0.0000000000000D+00  0.0000000000000D+00
196  1.9500000000000D+00  0.0000000000000D+00  0.0000000000000D+00
197  1.9600000000000D+00  0.0000000000000D+00  0.0000000000000D+00
198  1.9700000000000D+00  0.0000000000000D+00  0.0000000000000D+00
199  1.9800000000000D+00  0.0000000000000D+00  0.0000000000000D+00
200  1.9900000000000D+00  0.0000000000000D+00  0.0000000000000D+00
201  2.0000000000000D+00  0.0000000000000D+00  0.0000000000000D+00
202  2.0100000000000D+00  0.0000000000000D+00  0.0000000000000D+00
203  2.0200000000000D+00  0.0000000000000D+00  0.0000000000000D+00
204  2.0300000000000D+00  0.0000000000000D+00  0.0000000000000D+00
205  2.0400000000000D+00  0.0000000000000D+00  0.0000000000000D+00
206  2.0500000000000D+00  0.0000000000000D+00  0.0000000000000D+00
207  2.0600000000000D+00  0.0000000000000D+00  0.0000000000000D+00
208  2.0700000000000D+00  0.0000000000000D+00  0.0000000000000D+00
209  2.0800000000000D+00  0.0000000000000D+00  0.0000000000000D+00
210  2.0900000000000D+00  0.0000000000000D+00  0.0000000000000D+00
211  2.1000000000000D+00  0.0000000000000D+00  0.0000000000000D+00
212  2.1100000000000D+00  0.0000000000000D+00  0.0000000000000D+00
213  2.1200000000000D+00  0.0000000000000D+00  0.0000000000000D+00
214  2.1300000000000D+00  0.0000000000000D+00  0.0000000000000D+00
215  2.1400000000000D+00  0.0000000000000D+00  0.0000000000000D+00
216  2.1500000000000D+00  0.0000000000000D+00  0.0000000000000D+00
217  2.1600000000000D+00  0.0000000000000D+00  0.0000000000000D+00
218  2.1700000000000D+00  0.0000000000000D+00  0.0000000000000D+00
219  2.1800000000000D+00  0.0000000000000D+00  0.0000000000000D+00
220  2.1900000000000D+00  0.0000000000000D+00  0.0000000000000D+00
221  2.2000000000000D+00  0.0000000000000D+00  0.0000000000000D+00
222  2.2100000000000D+00  0.0000000000000D+00  0.0000000000000D+00
223  2.2200000000000D+00  0.0000000000000D+00  0.0000000000000D+00
224  2.2300000000000D+00  0.0000000000000D+00  0.0000000000000D+00
225  2.2400000000000D+00  0.0000000000000D+00  0.0000000000000D+00
226  2.2500000000000D+00  0.0000000000000D+00  0.0000000000000D+00
227  2.2600000000000D+00  0.0000000000000D+00  0.0000000000000D+00
228  2.2700000000000D+00  0.0000000000000D+00  0.0000000000000D+00
229  2.2800000000000D+00  0.0000000000000D+00  0.0000000000000D+00
230  2.2900000000000D+00  0.0000000000000D+00  0.0000000000000D+00
231  2.3000000000000D+00  0.0000000000000D+00  0.0000000000000D+00
232  2.3100000000000D+00  0.0000000000000D+00  0.0000000000000D+00
233  2.3200000000000D+00  0.0000000000000D+00  0.0000000000000D+00
234  2.3300000000000D+00  0.0000000000000D+00  0.0000000000000D+00
235  2.3400000000000D+00  0.0000000000000D+00  0.0000000000000D+00
236  2.3500000000000D+00  0.0000000000000D+00  0.0000000000000D+00
237  2.3600000000000D+00  0.0000000000000D+00  0.0000000000000D+00
238  2.3700000000000D+00  0.0000000000000D+00  0.0000000000000D+00
239  2.3800000000000D+00  0.0000000000000D+00  0.0000000000000D+00
240  2.3900000000000D+00  0.0000000000000D+00  0.0000000000000D+00
241  2.4000000000000D+00  0.0000000000000D+00  0.0000000000000D+00
242  2.4100000000000D+00  0.0000000000000D+00  0.0000000000000D+00
243  2.4200000000000D+00  0.0000000000000D+00  0.0000000000000D+00
244  2.4300000000000D+00  0.0000000000000D+00  0.0000000000000D+00
245  2.4400000000000D+00  0.0000000000000D+00  0.0000000000000D+00
246  2.4500000000000D+00  0.0000000000000D+00  0.0000000000000D+00
247  2.4600000000000D+00  0.0000000000000D+00  0.0000000000000D+00
248  2.4700000000000D+00  0.0000000000000D+00  0.0000000000000D+00
249  2.4800000000000D+00  0.0000000000000D+00  0.0000000000000D+00
250  2.4900000000000D+00  0.0000000000000D+00  0.0000000000000D+00
251  2.5000000000000D+00  0.0000000000000D+00  0.0000000000000D+00
252  2.5100000000000D+00  0.0000000000000D+00  0.0000000000000D+00
253  2.5200000000000D+00  0.0000000000000D+00  0.0000000000000D+00
254  2.5300000000000D+00  0.0000000000000D+00  0.0000000000000D+00
255  2.5400000000000D+00  0.0000000000000D+00  0.0000000000000D+00
256  2.5500000000000D+00  0.0000000000000D+00  0.0000000000000D+00
257  2.5600000000000D+00  0.0000000000000D+00  0.0000000000000D+00
258  2.5700000000000D+00  0.0000000000000D+00  0.0000000000000D+00
259  2.5800000000000D+00  0.0000000000000D+00  0.0000000000000D+00
260  2.5900000000000D+00  0.0000000000000D+00  0.0000000000000D+00
261  2.6000000000000D+00  0.0000000000000D+00  0.0000000000000D+00
262  2.6100000000000D+00  0.0000000000000D+00  0.0000000000000D+00
263  2.6200000000000D+00  0.0000000000000D+00  0.0000000000000D+00
264  2.6300000000000D+00  0.0000000000000D+00  0.0000000000000D+00
265  2.6400000000000D+00  0.0000000000000D+00  0.0000000000000D+00
266  2.6500000000000D+00  0.0000000000000D+00  0.0000000000000D+00
267  2.6600000000000D+00  0.0000000000000D+00  0.0000000000000D+00
268  2.6700000000000D+00  0.0000000000000D+00  0.0000000000000D+00
269  2.6800000000000D+00  0.0000000000000D+00  0.0000000000000D+00
270  2.6900000000000D+00  0.0000000000000D+00  0.0000000000000D+00
271  2.7000000000000D+00  0.0000000000000D+00  0.0000000000000D+00
272  2.7100000000000D+00  0.0000000000000D+00  0.0000000000000D+00
273  2.7200000000000D+00  0.0000000000000D+00  0.0000000000000D+00
274  2.7300000000000D+00  0.0000000000000D+00  0.0000000000000D+00
275  2.7400000000000D+00  0.0000000000000D+00  0.0000000000000D+00
276  2.7500000000000D+00  0.0000000000000D+00  0.0000000000000D+00
277  2.7600000000000D+00  0.0000000000000D+00  0.0000000000000D+00
278  2.7700000000000D+00  0.0000000000000D+00  0.0000000000000D+00
279  2.7800000000000D+00  0.0000000000000D+00  0.0000000000000D+00
280  2.7900000000000D+00  0.0000000000000D+00  0.0000000000000D+00
281  2.8000000000000D+00  0.0000000000000D+00  0.0000000000000D+00
282  2.8100000000000D+00  0.0000000000000D+00  0.0000000000000D+00
283  2.8200000000000D+00  0.0000000000000D+00  0.0000000000000D+00
284  2.8300000000000D+00  0.0000000000000D+00  0.0000000000000D+00
285  2.8400000000000D+00  0.0000000000000D+00  0.0000000000000D+00
286  2.8500000000000D+00  0.0000000000000D+00  0.0000000000000D+00
287  2.8600000000000D+00  0.0000000000000D+00  0.0000000000000D+00
288  2.8700000000000D+00  0.0000000000000D+00  0.0000000000000D+00
289  2.8800000000000D+00  0.0000000000000D+00  0.0000000000000D+00
290  2.8900000000000D+00  0.0000000000000D+00  0.0000000000000D+00
291  2.9000000000000D+00  0.0000000000000D+00  0.0000000000000D+00
292  2.9100000000000D+00  0.0000000000000D+00  0.0000000000000D+00
293  2.9200000000000D+00  0.0000000000000D+00  0.0000000000000D+00
294  2.9300000000000D+00  0.0000000000000D+00  0.0000000000000D+00
295  2.9400000000000D+00  0.0000000000000D+00  0.0000000000000D+00
296  2.9500000000000D+00  0.0000000000000D+00  0.0000000000000D+00
297  2.9600000000000D+00  0.0000000000000D+00  0.0000000000000D+00
298  2.9700000000000D+00  0.0000000000000D+00  0.0000000000000D+00
299  2.9800000000000D+00  0.0000000000000D+00  0.0000000000000D+00
300  2.9900000000000D+00  0.0000000000000D+00  0.0000000000000D+00
301  3.0000000000000D+00  0.0000000000000D+00  0.0000000000000D+00
302  3.0100000000000D+00  0.0000000000000D+00  0.0000000000000D+00
303  3.0200000000000D+00  0.0000000000000D+00  0.0000000000000D+00
304  3.0300000000000D+00  0.0000000000000D+00  0.0000000000000D+00
305  3.0400000000000D+00  0.0000000000000D+00  0.0000000000000D+00
306  3.0500000000000D+00  0.0000000000000D+00  0.0000000000000D+00
307  3.0600000000000D+00  0.0000000000000D+00  0.0000000000000D+00
308  3.0700000000000D+00  0.0000000000000D+00  0.0000000000000D+00
309  3.0800000000000D+00  0.0000000000000D+00  0.0000000000000D+00
310  3.0900000000000D+00  0.0000000000000D+00  0.0000000000000D+00
311  3.1000000000000D+00  0.0000000000000D+00  0.0000000000000D+00
312  3.1100000000000D+00  0.0000000000000D+00  0.0000000000000D+00
313  3.1200000000000D+00  0.0000000000000D+00  0.0000000000000D+00
314  3.1300000000000D+00  0.0000000000000D+00  0.0000000000000D+00
315  3.1400000000000D+00  0.0000000000000D+00  0.0000000000000D+00
316  3.1500000000000D+00  0.0000000000000D+00  0.0000000000000D+00
317  3.1600000000000D+00  0.0000000000000D+00  0.0000000000000D+00
318  3.1700000000000D+00  0.0000000000000D+00  0.0000000000000D+00
319  3.1800000000000D+00  0.0000000000000D+00  0.0000000000000D+00
320  3.1900000000000D+00  0.0000000000000D+00  0.0000000000000D+00
321  3.2000000000000D+00  0.0000000000000D+00  0.0000000000000D+00
322  3.2100000000000D+00  0.0000000000000D+00  0.0000000000000D+00
323  3.2200000000000D+00  0.0000000000000D+00  0.0000000000000D+00
324  3.2300000000000D+00  0.0000000000000D+00  0.0000000000000D+00
325  3.2400000000000D+00  0.0000000000000D+00  0.0000000000000D+00
326  3.2500000000000D+00  0.0000000000000D+00  0.0000000000000D+00
327  3.2600000000000D+00  0.0000000000000D+00  0.0000000000000D+00
328  3.2700000000000D+00  0.0000000000000D+00  0.0000000000000D+00
329  3.2800000000000D+00  0.0000000000000D+00  0.0000000000000D+00
330  3.2900000000000D+00  0.0000000000000D+00  0.0000000000000D+00
331  3.3000000000000D+00  0.0000000000000D+00  0.0000000000000D+00
332  3.3100000000000D+00  0.0000000000000D+00  0.0000000000000D+00
333  3.3200000000000D+00  0.0000000000000D+00  0.0000000000000D+00
334  3.3300000000000D+00  0.0000000000000D+00  0.0000000000000D+00
335  3.3400000000000D+00  0.0000000000000D+00  0.0000000000000D+00
336  3.3500000000000D+00  0.0000000000000D+00  0.0000000000000D+00
337  3.3600000000000D+00  0.0000000000000D+00  0.0000000000000D+00
338  3.3700000000000D+00  0.0000000000000D+00  0.0000000000000D+00
339  3.3800000000000D+00  0.0000000000000D+00  0.0000000000000D+00
340  3.3900000000000D+00  0.0000000000000D+00  0.0000000000000D+00
341  3.4000000000000D+00  0.0000000000000D+00  0.0000000000000D+00
342  3.4100000000000D+00  0.0000000000000D+00  0.0000000000000D+00
343  3.4200000000000D+00  0.0000000000000D+00  0.0000000000000D+00
344  3.4300000000000D+00  0.0000000000000D+00  0.0000000000000D+00
345  3.4400000000000D+00  0.0000000000000D+00  0.0000000000000D+00
346  3.4500000000000D+00  0.0000000000000D+00  0.0000000000000D+00
347  3.4600000000000D+00  0.0000000000000D+00  0.0000000000000D+00
348  3.4700000000000D+00  0.0000000000000D+00  0.0000000000000D+00
349  3.4800000000000D+00  0.0000000000000D+00  0.0000000000000D+00
350  3.4900000000000D+00  0.0000000000000D+00  0.0000000000000D+00
351  3.5000000000000D+00  0.0000000000000D+00  0.0000000000000D+00
352  3.5100000000000D+00  0.0000000000000D+00  0.0000000000000D+00
353  3.5200000000000D+00  0.0000000000000D+00  0.0000000000000D+00
354  3.5300000000000D+00  0.0000000000000D+00  0.0000000000000D+00
355  3.5400000000000D+00  0.0000000000000D+00  0.0000000000000D+00
356  3.5500000000000D+00  0.0000000000000D+00  0.0000000000000D+00
357  3.5600000000000D+00  0.0000000000000D+00  0.0000000000000D+00
358  3.5700000000000D+00  0.0000000000000D+00  0.0000000000000D+00
359  3.5800000000000D+00  0.0000000000000D+00  0.0000000000000D+00
360  3.5900000000000D+00  0.0000000000000D+00  0.0000000000000D+00
361  3.6000000000000D+00  0.0000000000000D+00  0.0000000000000D+00
362  3.6100000000000D+00  0.0000000000000D+00  0.0000000000000D+00
363  3.6200000000000D+00  0.0000000000000D+00  0.0000000000000D+00
364  3.6300000000000D+00  0.0000000000000D+00  0.0000000000000D+00
365  3.6400000000000D+00  0.0000000000000D+00  0.0000000000000D+00
366  3.6500000000000D+00  0.0000000000000D+00  0.0000000000000D+00
367  3.6600000000000D+00  0.0000000000000D+00  0.0000000000000D+00
368  3.6700000000000D+00  0.0000000000000D+00  0.0000000000000D+00
369  3.6800000000000D+00  0.0000000000000D+00  0.0000000000000D+00
370  3.6900000000000D+00  0.0000000000000D+00  0.0000000000000D+00
371  3.7000000000000D+00  0.0000000000000D+00  0.0000000000000D+00
372  3.7100000000000D+00  0.0000000000000D+00  0.0000000000000D+00
373  3.7200000000000D+00  0.0000000000000D+00  0.0000000000000D+00
374  3.7300000000000D+00  0.0000000000000D+00  0.0000000000000D+00
375  3.7400000000000D+00  0.0000000000000D+00  0.0000000000000D+00
376  3.7500000000000D+00  0.0000000000000D+00  0.0000000000000D+00
377  3.7600000000000D+00  0.0000000000000D+00  0.0000000000000D+00
378  3.7700000000000D+00  0.0000000000000D+00  0.0000000000000D+00
379  3.7800000000000D+00  0.0000000000000D+00  0.0000000000000D+00
380  3.7900000000000D+00  0.0000000000000D+00  0.0000000000000D+00
381  3.8000000000000D+00  0.0000000000000D+00  0.0000000000000D+00
382  3.8100000000000D+00  0.0000000000000D+00  0.0000000000000D+00
383  3.8200000000000D+00  0.0000000000000D+00  0.0000000000000D+00
384  3.8300000000000D+00  0.0000000000000D+00  0.0000000000000D+00
385  3.8400000000000D+00  0.0000000000000D+00  0.0000000000000D+00
386  3.8500000000000D+00  0.0000000000000D+00  0.0000000000000D+00
387  3.8600000000000D+00  0.0000000000000D+00  0.0000000000000D+00
388  3.8700000000000D+00  0.0000000000000D+00  0.0000000000000D+00
389  3.8800000000000D+00  0.0000000000000D+00  0.0000000000000D+00
390  3.8900000000000D+00  0.0000000000000D+00  0.0000000000000D+00
391  3.9000000000000D+00  0.0000000000000D+00  0.0000000000000D+00
392  3.9100000000000D+00  0.0000000000000D+00  0.0000000000000D+00
393  3.9200000000000D+00  0.0000000000000D+00  0.0000000000000D+00
394  3.9300000000000D+00  0.0000000000000D+00  0.0000000000000D+00
395  3.9400000000000D+00  0.0000000000000D+00  0.0000000000000D+00
396  3.9500000000000D+00  0.0000000000000D+00  0.0000000000000D+00
397  3.9600000000000D+00  0.0000000000000D+00  0.0000000000000D+00
398  3.9700000000000D+00  0.0000000000000D+00  0.0000000000000D+00
399  3.9800000000000D+00  0.0000000000000D+00  0.0000000000000D+00
400  3.9900000000000D+00  0.0000000000000D+00  0.0000000000000D+00
401  4.0000000000000D+00  0.0000000000000D+00  0.0000000000000D+00
402  4.0100000000000D+00  0.0000000000000D+00  0.0000000000000D+00
403  4.0200000000000D+00  0.0000000000000D+00  0.0000000000000D+00
404  4.0300000000000D+00  0.0000000000000D+00  0.0000000000000D+00
405  4.0400000000000D+00  0.0000000000000D+00  0.0000000000000D+00
406  4.0500000000000D+00  0.0000000000000D+00  0.0000000000000D+00
407  4.0600000000000D+00  0.0000000000000D+00  0.0000000000000D+00
408  4.0700000000000D+00  0.0000000000000D+00  0.0000000000000D+00
409  4.0800000000000D+00  0.0000000000000D+00  0.0000000000000D+00
410  4.0900000000000D+00  0.0000000000000D+00  0.0000000000000D+00
411  4.1000000000000D+00  0.0000000000000D+00  0.0000000000000D+00
412  4.1100000000000D+00  0.0000000000000D+00  0.0000000000000D+00
413  4.1200000000000D+00  0.0000000000000D+00  0.0000000000000D+00
414  4.1300000000000D+00  0.0000000000000D+00  0.0000000000000D+00
415  4.1400000000000D+00  0.0000000000000D+00  0.0000000000000D+00
416  4.1500000000000D+00  0.0000000000000D+00  0.0000000000000D+00
417  4.1600000000000D+00  0.0000000000000D+00  0.0000000000000D+00
418  4.1700000000000D+00  0.0000000000000D+00  0.0000000000000D+00
419  4.1800000000000D+00  0.0000000000000D+00  0.0000000000000D+00
420  4.1900000000000D+00  0.0000000000000D+00  0.0000000000000D+00
421  4.2000000000000D+00  0.0000000000000D+00  0.0000000000000D+00
422  4.2100000000000D+00  0.0000000000000D+00  0.0000000000000D+00
423  4.2200000000000D+00  0.0000000000000D+00  0.0000000000000D+00
424  4.2300000000000D+00  0.0000000000000D+00  0.0000000000000D+00
425  4.2400000000000D+00  0.0000000000000D+00  0.0000000000000D+00
426  4.2500000000000D+00  0.0000000000000D+00  0.0000000000000D+00
427  4.2600000000000D+00  0.0000000000000D+00  0.0000000000000D+00
428  4.2700000000000D+00  0.0000000000000D+00  0.0000000000000D+00
429  4.2800000000000D+00  0.0000000000000D+00  0.0000000000000D+00
430  4.2900000000000D+00  0.0000000000000D+00  0.0000000000000D+00
431  4.3000000000000D+00  0.0000000000000D+00  0.0000000000000D+00
432  4.3100000000000D+00  0.0000000000000D+00  0.0000000000000D+00
433  4.3200000000000D+00  0.0000000000000D+00  0.0000000000000D+00
434  4.3300000000000D+00  0.0000000000000D+00  0.0000000000000D+00
435  4.3400000000000D+00  0.0000000000000D+00  0.0000000000000D+00
436  4.3500000000000D+00  0.0000000000000D+00  0.0000000000000D+00
437  4.3600000000000D+00  0.0000000000000D+00  0.0000000000000D+00
438  4.3700000000000D+00  0.0000000000000D+00  0.0000000000000D+00
439  4.3800000000000D+00  0.0000000000000D+00  0.0000000000000D+00
440  4.3900000000000D+00  0.0000000000000D+00  0.0000000000000D+00
441  4.4000000000000D+00  0.0000000000000D+00  0.0000000000000D+00
442  4.4100000000000D+00  0.0000000000000D+00  0.0000000000000D+00
443  4.4200000000000D+00  0.0000000000000D+00  0.0000000000000D+00
444  4.4300000000000D+00  0.0000000000000D+00  0.0000000000000D+00