Fe    ONCVPSP  r_core=  1.36  1.51  1.81
26.0000     16.0000      140907    zatom,zion,pspd
8    11     2     4   601     0    pspcod,pspxc,lmax,lloc,mmax,r2well
6.00000000  0.07000000  0.00000000    rchrg fchrg qchrg
2     2     2     0     0    nproj
0                 extension_switch
0                         6.0145903371243D+00 -2.4679643187437D-01
1  0.0000000000000D+00 -0.0000000000000D+00  0.0000000000000D+00
2  1.0000000000000D-02 -9.3408643927316D-02  3.3300906265195D-02
3  2.0000000000000D-02 -1.8654088365691D-01  6.6498903241856D-02
4  3.0000000000000D-02 -2.7912118153015D-01  9.9490778658373D-02
5  4.0000000000000D-02 -3.7087573156949D-01  1.3217272737069D-01
6  5.0000000000000D-02 -4.6153332180651D-01  1.6444008745896D-01
7  6.0000000000000D-02 -5.5082619233872D-01  1.9618711480255D-01
8  7.0000000000000D-02 -6.3849088760236D-01  2.2730680803054D-01
9  8.0000000000000D-02 -7.2426910126650D-01  2.5769079496513D-01
10  9.0000000000000D-02 -8.0790851206881D-01  2.8722929071508D-01
11  1.0000000000000D-01 -8.8916360880253D-01  3.1581113645357D-01
12  1.1000000000000D-01 -9.6779650253732D-01  3.4332392663694D-01
13  1.2000000000000D-01 -1.0435777240493D+00  3.6965423100966D-01
14  1.3000000000000D-01 -1.1162870042856D+00  3.9468791621394D-01
15  1.4000000000000D-01 -1.1857140354958D+00  4.1831057016468D-01
16  1.5000000000000D-01 -1.2516592107052D+00  4.4040803071759D-01
17  1.6000000000000D-01 -1.3139343386997D+00  4.6086701822246D-01
18  1.7000000000000D-01 -1.3723633320890D+00  4.7957587002353D-01
19  1.8000000000000D-01 -1.4267828652044D+00  4.9642537272118D-01
20  1.9000000000000D-01 -1.4770429995220D+00  5.1130968711721D-01
21  2.0000000000000D-01 -1.5230077720437D+00  5.2412735664699D-01
22  2.1000000000000D-01 -1.5645557462340D+00  5.3478239347774D-01
23  2.2000000000000D-01 -1.6015805186480D+00  5.4318542678924D-01
24  2.3000000000000D-01 -1.6339911813062D+00  5.4925490528384D-01
25  2.4000000000000D-01 -1.6617127338208D+00  5.5291833574537D-01
26  2.5000000000000D-01 -1.6846864457302D+00  5.5411355015956D-01
27  2.6000000000000D-01 -1.7028701595269D+00  5.5278997130026D-01
28  2.7000000000000D-01 -1.7162385401111D+00  5.4890988055696D-01
29  2.8000000000000D-01 -1.7247832580119D+00  5.4244964602796D-01
30  2.9000000000000D-01 -1.7285131113592D+00  5.3340091287756D-01
31  3.0000000000000D-01 -1.7274540799859D+00  5.2177172737312D-01
32  3.1000000000000D-01 -1.7216493100621D+00  5.0758757792227D-01
33  3.2000000000000D-01 -1.7111590267280D+00  4.9089232972602D-01
34  3.3000000000000D-01 -1.6960603753087D+00  4.7174905216481D-01
35  3.4000000000000D-01 -1.6764471854761D+00  4.5024070317762D-01
36  3.5000000000000D-01 -1.6524296610682D+00  4.2647064370330D-01
37  3.6000000000000D-01 -1.6241339921201D+00  4.0056302571497D-01
38  3.7000000000000D-01 -1.5917018908385D+00  3.7266295338910D-01
39  3.8000000000000D-01 -1.5552900553221D+00  3.4293646515971D-01
40  3.9000000000000D-01 -1.5150695446749D+00  3.1157033764499D-01
41  4.0000000000000D-01 -1.4712250945218D+00  2.7877163131174D-01
42  4.1000000000000D-01 -1.4239543521662D+00  2.4476704439291D-01
43  4.2000000000000D-01 -1.3734670421215D+00  2.0980203672072D-01
44  4.3000000000000D-01 -1.3199840641628D+00  1.7413972698714D-01
45  4.4000000000000D-01 -1.2637365271171D+00  1.3805956477913D-01
46  4.5000000000000D-01 -1.2049647222933D+00  1.0185578072942D-01
47  4.6000000000000D-01 -1.1439170411609D+00  6.5835620854396D-02
48  4.7000000000000D-01 -1.0808488428600D+00  3.0317374519236D-02
49  4.8000000000000D-01 -1.0160213054227D+00 -4.3717539756674D-03
50  4.9000000000000D-01 -9.4970014277226D-01 -3.7898073169194D-02
51  5.0000000000000D-01 -8.8215439170772D-01 -6.9923884697208D-02
52  5.1000000000000D-01 -8.1365517051376D-01 -1.0011008652891D-01
53  5.2000000000000D-01 -7.4447437426565D-01 -1.2811895935335D-01
54  5.3000000000000D-01 -6.7488324080634D-01 -1.5361727953722D-01
55  5.4000000000000D-01 -6.0515131488898D-01 -1.7627881699270D-01
56  5.5000000000000D-01 -5.3554482153795D-01 -1.9578790635253D-01
57  5.6000000000000D-01 -4.6632565167811D-01 -2.1184199585041D-01
58  5.7000000000000D-01 -3.9774990639927D-01 -2.2415500732702D-01
59  5.8000000000000D-01 -3.3006679056004D-01 -2.3246007787850D-01
60  5.9000000000000D-01 -2.6351723959935D-01 -2.3651281252852D-01
61  6.0000000000000D-01 -1.9833308745397D-01 -2.3609344840441D-01
62  6.1000000000000D-01 -1.3473541573793D-01 -2.3101066936029D-01
63  6.2000000000000D-01 -7.2934236062952D-02 -2.2110262624084D-01
64  6.3000000000000D-01 -1.3126825092339D-02 -2.0624072388155D-01
65  6.4000000000000D-01  4.4502835593681D-02 -1.8633102672771D-01
66  6.5000000000000D-01  9.9784630453943D-02 -1.6131559804391D-01
67  6.6000000000000D-01  1.5256363050267D-01 -1.3117536425244D-01
68  6.7000000000000D-01  2.0270035930225D-01 -9.5930619938493D-02
69  6.8000000000000D-01  2.5007128670548D-01 -5.5641915784193D-02
70  6.9000000000000D-01  2.9456915953183D-01 -1.0410499957619D-02
71  7.0000000000000D-01  3.3610393882491D-01  3.9620136992479D-02
72  7.1000000000000D-01  3.7460239351220D-01  9.4265645615803D-02
73  7.2000000000000D-01  4.1000840532955D-01  1.5330085794149D-01
74  7.3000000000000D-01  4.4228297415717D-01  2.1646060402013D-01
75  7.4000000000000D-01  4.7140403513932D-01  2.8344102743522D-01
76  7.5000000000000D-01  4.9736645751644D-01  3.5390081265235D-01
77  7.6000000000000D-01  5.2018156028792D-01  4.2746344216839D-01
78  7.7000000000000D-01  5.3987664911358D-01  5.0371954950061D-01
79  7.8000000000000D-01  5.5649452456608D-01  5.8222952164607D-01
80  7.9000000000000D-01  5.7009285228997D-01  6.6252650126568D-01
81  8.0000000000000D-01  5.8074344095711D-01  7.4411970011202D-01
82  8.1000000000000D-01  5.8853143418037D-01  8.2649799843340D-01
83  8.2000000000000D-01  5.9355442325064D-01  9.0913380178745D-01
84  8.3000000000000D-01  5.9592148820013D-01  9.9148712366176D-01
85  8.4000000000000D-01  5.9575217526770D-01  1.0730098595450D+00
86  8.5000000000000D-01  5.9317541934805D-01  1.1531502156289D+00
87  8.6000000000000D-01  5.8832842044951D-01  1.2313572531555D+00
88  8.7000000000000D-01  5.8135548356361D-01  1.3070855075577D+00
89  8.8000000000000D-01  5.7240683166726D-01  1.3797996399853D+00
90  8.9000000000000D-01  5.6163740183299D-01  1.4489790775744D+00
91  9.0000000000000D-01  5.4920563461196D-01  1.5141225979314D+00
92  9.1000000000000D-01  5.3527226697262D-01  1.5747528128038D+00
93  9.2000000000000D-01  5.1999913911341D-01  1.6304205058663D+00
94  9.3000000000000D-01  5.0354802540648D-01  1.6807087800334D+00
95  9.4000000000000D-01  4.8607949955018D-01  1.7252369708323D+00
96  9.5000000000000D-01  4.6775184368775D-01  1.7636642842491D+00
97  9.6000000000000D-01  4.4872029596886D-01  1.7956918965024D+00
98  9.7000000000000D-01  4.2913539102123D-01  1.8210689604386D+00
99  9.8000000000000D-01  4.0914238659582D-01  1.8395935932052D+00
100  9.9000000000000D-01  3.8888056272311D-01  1.8511145278061D+00
101  1.0000000000000D+00  3.6848236261923D-01  1.8555333366439D+00
102  1.0100000000000D+00  3.4807273015003D-01  1.8528057204797D+00
103  1.0200000000000D+00  3.2776856188788D-01  1.8429422501961D+00
104  1.0300000000000D+00  3.0767895724762D-01  1.8260062445768D+00
105  1.0400000000000D+00  2.8790241559994D-01  1.8021222297589D+00
106  1.0500000000000D+00  2.6852889798977D-01  1.7714666737370D+00
107  1.0600000000000D+00  2.4963894651885D-01  1.7342694879062D+00
108  1.0700000000000D+00  2.3130361437258D-01  1.6908124058592D+00
109  1.0800000000000D+00  2.1358540165568D-01  1.6414247064048D+00
110  1.0900000000000D+00  1.9653529930415D-01  1.5864889661155D+00
111  1.1000000000000D+00  1.8019598344461D-01  1.5264293181863D+00
112  1.1100000000000D+00  1.6460129925824D-01  1.4617106551913D+00
113  1.1200000000000D+00  1.4977718118049D-01  1.3928346426908D+00
114  1.1300000000000D+00  1.3574023957573D-01  1.3203387320525D+00
115  1.1400000000000D+00  1.2249950758396D-01  1.2447883142508D+00
116  1.1500000000000D+00  1.1005743766454D-01  1.1667723182129D+00
117  1.1600000000000D+00  9.8410591932657D-02  1.0869011798712D+00
118  1.1700000000000D+00  8.7548532728949D-02  1.0057987152070D+00
119  1.1800000000000D+00  7.7456366226398D-02  9.2409685189133D-01
120  1.1900000000000D+00  6.8115227022981D-02  8.4243366754321D-01
121  1.2000000000000D+00  5.9502449575936D-02  7.6144922662037D-01
122  1.2100000000000D+00  5.1592501889239D-02  6.8176955398536D-01
123  1.2200000000000D+00  4.4358280534835D-02  6.0401265593845D-01
124  1.2300000000000D+00  3.7770926964724D-02  5.2879154284921D-01
125  1.2400000000000D+00  3.1801678525768D-02  4.5667976066379D-01
126  1.2500000000000D+00  2.6422063059199D-02  3.8823274888876D-01
127  1.2600000000000D+00  2.1603488081504D-02  3.2399067101657D-01
128  1.2700000000000D+00  1.7320264374564D-02  2.6443844499419D-01
129  1.2800000000000D+00  1.3548566511629D-02  2.1003115152658D-01
130  1.2900000000000D+00  1.0265500067277D-02  1.6120375770054D-01
131  1.3000000000000D+00  7.4536189731948D-03  1.1831927625718D-01
132  1.3100000000000D+00  5.0979077820407D-03  8.1709124057917D-02
133  1.3200000000000D+00  3.1850093399116D-03  5.1681169405632D-02
134  1.3300000000000D+00  1.7103049326042D-03  2.8437214766899D-02
135  1.3400000000000D+00  6.7200361578491D-04  1.2142217053225D-02
136  1.3500000000000D+00  1.0790847321897D-04  3.4638318513287D-03
137  1.3600000000000D+00 -8.8479852220975D-05  1.8263194521394D-04
138  1.3700000000000D+00 -4.6335789353365D-05 -2.6508348275331D-04
139  1.3800000000000D+00  4.9497175366410D-06 -3.4130012554379D-05
140  1.3900000000000D+00  7.9000912210148D-07 -5.4473858469297D-06
141  1.4000000000000D+00  0.0000000000000D+00  0.0000000000000D+00
142  1.4100000000000D+00  0.0000000000000D+00  0.0000000000000D+00
143  1.4200000000000D+00  0.0000000000000D+00  0.0000000000000D+00
144  1.4300000000000D+00  0.0000000000000D+00  0.0000000000000D+00
145  1.4400000000000D+00  0.0000000000000D+00  0.0000000000000D+00
146  1.4500000000000D+00  0.0000000000000D+00  0.0000000000000D+00
147  1.4600000000000D+00  0.0000000000000D+00  0.0000000000000D+00
148  1.4700000000000D+00  0.0000000000000D+00  0.0000000000000D+00
149  1.4800000000000D+00  0.0000000000000D+00  0.0000000000000D+00
150  1.4900000000000D+00  0.0000000000000D+00  0.0000000000000D+00
151  1.5000000000000D+00  0.0000000000000D+00  0.0000000000000D+00
152  1.5100000000000D+00  0.0000000000000D+00  0.0000000000000D+00
153  1.5200000000000D+00  0.0000000000000D+00  0.0000000000000D+00
154  1.5300000000000D+00  0.0000000000000D+00  0.0000000000000D+00
155  1.5400000000000D+00  0.0000000000000D+00  0.0000000000000D+00
156  1.5500000000000D+00  0.0000000000000D+00  0.0000000000000D+00
157  1.5600000000000D+00  0.0000000000000D+00  0.0000000000000D+00
158  1.5700000000000D+00  0.0000000000000D+00  0.0000000000000D+00
159  1.5800000000000D+00  0.0000000000000D+00  0.0000000000000D+00
160  1.5900000000000D+00  0.0000000000000D+00  0.0000000000000D+00
161  1.6000000000000D+00  0.0000000000000D+00  0.0000000000000D+00
162  1.6100000000000D+00  0.0000000000000D+00  0.0000000000000D+00
163  1.6200000000000D+00  0.0000000000000D+00  0.0000000000000D+00
164  1.6300000000000D+00  0.0000000000000D+00  0.0000000000000D+00
165  1.6400000000000D+00  0.0000000000000D+00  0.0000000000000D+00
166  1.6500000000000D+00  0.0000000000000D+00  0.0000000000000D+00
167  1.6600000000000D+00  0.0000000000000D+00  0.0000000000000D+00
168  1.6700000000000D+00  0.0000000000000D+00  0.0000000000000D+00
169  1.6800000000000D+00  0.0000000000000D+00  0.0000000000000D+00
170  1.6900000000000D+00  0.0000000000000D+00  0.0000000000000D+00
171  1.7000000000000D+00  0.0000000000000D+00  0.0000000000000D+00
172  1.7100000000000D+00  0.0000000000000D+00  0.0000000000000D+00
173  1.7200000000000D+00  0.0000000000000D+00  0.0000000000000D+00
174  1.7300000000000D+00  0.0000000000000D+00  0.0000000000000D+00
175  1.7400000000000D+00  0.0000000000000D+00  0.0000000000000D+00
176  1.7500000000000D+00  0.0000000000000D+00  0.0000000000000D+00
177  1.7600000000000D+00  0.0000000000000D+00  0.0000000000000D+00
178  1.7700000000000D+00  0.0000000000000D+00  0.0000000000000D+00
179  1.7800000000000D+00  0.0000000000000D+00  0.0000000000000D+00
180  1.7900000000000D+00  0.0000000000000D+00  0.0000000000000D+00
181  1.8000000000000D+00  0.0000000000000D+00  0.0000000000000D+00
182  1.8100000000000D+00  0.0000000000000D+00  0.0000000000000D+00
183  1.8200000000000D+00  0.0000000000000D+00  0.0000000000000D+00
184  1.8300000000000D+00  0.0000000000000D+00  0.0000000000000D+00
185  1.8400000000000D+00  0.0000000000000D+00  0.0000000000000D+00
186  1.8500000000000D+00  0.0000000000000D+00  0.0000000000000D+00
187  1.8600000000000D+00  0.0000000000000D+00  0.0000000000000D+00
188  1.8700000000000D+00  0.0000000000000D+00  0.0000000000000D+00
189  1.8800000000000D+00  0.0000000000000D+00  0.0000000000000D+00
190  1.8900000000000D+00  0.0000000000000D+00  0.0000000000000D+00
191  1.9000000000000D+00  0.0000000000000D+00  0.0000000000000D+00
192  1.9100000000000D+00  0.0000000000000D+00  0.0000000000000D+00
193  1.9200000000000D+00  0.0000000000000D+00  0.0000000000000D+00
194  1.9300000000000D+00  0.0000000000000D+00  0.0000000000000D+00
195  1.9400000000000D+00  0.0000000000000D+00  0.0000000000000D+00
196  1.9500000000000D+00  0.0000000000000D+00  0.0000000000000D+00
197  1.9600000000000D+00  0.0000000000000D+00  0.0000000000000D+00
198  1.9700000000000D+00  0.0000000000000D+00  0.0000000000000D+00
199  1.9800000000000D+00  0.0000000000000D+00  0.0000000000000D+00
200  1.9900000000000D+00  0.0000000000000D+00  0.0000000000000D+00
201  2.0000000000000D+00  0.0000000000000D+00  0.0000000000000D+00
202  2.0100000000000D+00  0.0000000000000D+00  0.0000000000000D+00
203  2.0200000000000D+00  0.0000000000000D+00  0.0000000000000D+00
204  2.0300000000000D+00  0.0000000000000D+00  0.0000000000000D+00
205  2.0400000000000D+00  0.0000000000000D+00  0.0000000000000D+00
206  2.0500000000000D+00  0.0000000000000D+00  0.0000000000000D+00
207  2.0600000000000D+00  0.0000000000000D+00  0.0000000000000D+00
208  2.0700000000000D+00  0.0000000000000D+00  0.0000000000000D+00
209  2.0800000000000D+00  0.0000000000000D+00  0.0000000000000D+00
210  2.0900000000000D+00  0.0000000000000D+00  0.0000000000000D+00
211  2.1000000000000D+00  0.0000000000000D+00  0.0000000000000D+00
212  2.1100000000000D+00  0.0000000000000D+00  0.0000000000000D+00
213  2.1200000000000D+00  0.0000000000000D+00  0.0000000000000D+00
214  2.1300000000000D+00  0.0000000000000D+00  0.0000000000000D+00
215  2.1400000000000D+00  0.0000000000000D+00  0.0000000000000D+00
216  2.1500000000000D+00  0.0000000000000D+00  0.0000000000000D+00
217  2.1600000000000D+00  0.0000000000000D+00  0.0000000000000D+00
218  2.1700000000000D+00  0.0000000000000D+00  0.0000000000000D+00
219  2.1800000000000D+00  0.0000000000000D+00  0.0000000000000D+00
220  2.1900000000000D+00  0.0000000000000D+00  0.0000000000000D+00
221  2.2000000000000D+00  0.0000000000000D+00  0.0000000000000D+00
222  2.2100000000000D+00  0.0000000000000D+00  0.0000000000000D+00
223  2.2200000000000D+00  0.0000000000000D+00  0.0000000000000D+00
224  2.2300000000000D+00  0.0000000000000D+00  0.0000000000000D+00
225  2.2400000000000D+00  0.0000000000000D+00  0.0000000000000D+00
226  2.2500000000000D+00  0.0000000000000D+00  0.0000000000000D+00
227  2.2600000000000D+00  0.0000000000000D+00  0.0000000000000D+00
228  2.2700000000000D+00  0.0000000000000D+00  0.0000000000000D+00
229  2.2800000000000D+00  0.0000000000000D+00  0.0000000000000D+00
230  2.2900000000000D+00  0.0000000000000D+00  0.0000000000000D+00
231  2.3000000000000D+00  0.0000000000000D+00  0.0000000000000D+00
232  2.3100000000000D+00  0.0000000000000D+00  0.0000000000000D+00
233  2.3200000000000D+00  0.0000000000000D+00  0.0000000000000D+00
234  2.3300000000000D+00  0.0000000000000D+00  0.0000000000000D+00
235  2.3400000000000D+00  0.0000000000000D+00  0.0000000000000D+00
236  2.3500000000000D+00  0.0000000000000D+00  0.0000000000000D+00
237  2.3600000000000D+00  0.0000000000000D+00  0.0000000000000D+00
238  2.3700000000000D+00  0.0000000000000D+00  0.0000000000000D+00
239  2.3800000000000D+00  0.0000000000000D+00  0.0000000000000D+00
240  2.3900000000000D+00  0.0000000000000D+00  0.0000000000000D+00
241  2.4000000000000D+00  0.0000000000000D+00  0.0000000000000D+00
242  2.4100000000000D+00  0.0000000000000D+00  0.0000000000000D+00
243  2.4200000000000D+00  0.0000000000000D+00  0.0000000000000D+00
244  2.4300000000000D+00  0.0000000000000D+00  0.0000000000000D+00
245  2.4400000000000D+00  0.0000000000000D+00  0.0000000000000D+00
246  2.4500000000000D+00  0.0000000000000D+00  0.0000000000000D+00
247  2.4600000000000D+00  0.0000000000000D+00  0.0000000000000D+00
248  2.4700000000000D+00  0.0000000000000D+00  0.0000000000000D+00
249  2.4800000000000D+00  0.0000000000000D+00  0.0000000000000D+00
250  2.4900000000000D+00  0.0000000000000D+00  0.0000000000000D+00
251  2.5000000000000D+00  0.0000000000000D+00  0.0000000000000D+00
252  2.5100000000000D+00  0.0000000000000D+00  0.0000000000000D+00
253  2.5200000000000D+00  0.0000000000000D+00  0.0000000000000D+00
254  2.5300000000000D+00  0.0000000000000D+00  0.0000000000000D+00
255  2.5400000000000D+00  0.0000000000000D+00  0.0000000000000D+00
256  2.5500000000000D+00  0.0000000000000D+00  0.0000000000000D+00
257  2.5600000000000D+00  0.0000000000000D+00  0.0000000000000D+00
258  2.5700000000000D+00  0.0000000000000D+00  0.0000000000000D+00
259  2.5800000000000D+00  0.0000000000000D+00  0.0000000000000D+00
260  2.5900000000000D+00  0.0000000000000D+00  0.0000000000000D+00
261  2.6000000000000D+00  0.0000000000000D+00  0.0000000000000D+00
262  2.6100000000000D+00  0.0000000000000D+00  0.0000000000000D+00
263  2.6200000000000D+00  0.0000000000000D+00  0.0000000000000D+00
264  2.6300000000000D+00  0.0000000000000D+00  0.0000000000000D+00
265  2.6400000000000D+00  0.0000000000000D+00  0.0000000000000D+00
266  2.6500000000000D+00  0.0000000000000D+00  0.0000000000000D+00
267  2.6600000000000D+00  0.0000000000000D+00  0.0000000000000D+00
268  2.6700000000000D+00  0.0000000000000D+00  0.0000000000000D+00
269  2.6800000000000D+00  0.0000000000000D+00  0.0000000000000D+00
270  2.6900000000000D+00  0.0000000000000D+00  0.0000000000000D+00
271  2.7000000000000D+00  0.0000000000000D+00  0.0000000000000D+00
272  2.7100000000000D+00  0.0000000000000D+00  0.0000000000000D+00
273  2.7200000000000D+00  0.0000000000000D+00  0.0000000000000D+00
274  2.7300000000000D+00  0.0000000000000D+00  0.0000000000000D+00
275  2.7400000000000D+00  0.0000000000000D+00  0.0000000000000D+00
276  2.7500000000000D+00  0.0000000000000D+00  0.0000000000000D+00
277  2.7600000000000D+00  0.0000000000000D+00  0.0000000000000D+00
278  2.7700000000000D+00  0.0000000000000D+00  0.0000000000000D+00
279  2.7800000000000D+00  0.0000000000000D+00  0.0000000000000D+00
280  2.7900000000000D+00  0.0000000000000D+00  0.0000000000000D+00
281  2.8000000000000D+00  0.0000000000000D+00  0.0000000000000D+00
282  2.8100000000000D+00  0.0000000000000D+00  0.0000000000000D+00
283  2.8200000000000D+00  0.0000000000000D+00  0.0000000000000D+00
284  2.8300000000000D+00  0.0000000000000D+00  0.0000000000000D+00
285  2.8400000000000D+00  0.0000000000000D+00  0.0000000000000D+00
286  2.8500000000000D+00  0.0000000000000D+00  0.0000000000000D+00
287  2.8600000000000D+00  0.0000000000000D+00  0.0000000000000D+00
288  2.8700000000000D+00  0.0000000000000D+00  0.0000000000000D+00
289  2.8800000000000D+00  0.0000000000000D+00  0.0000000000000D+00
290  2.8900000000000D+00  0.0000000000000D+00  0.0000000000000D+00
291  2.9000000000000D+00  0.0000000000000D+00  0.0000000000000D+00
292  2.9100000000000D+00  0.0000000000000D+00  0.0000000000000D+00
293  2.9200000000000D+00  0.0000000000000D+00  0.0000000000000D+00
294  2.9300000000000D+00  0.0000000000000D+00  0.0000000000000D+00
295  2.9400000000000D+00  0.0000000000000D+00  0.0000000000000D+00
296  2.9500000000000D+00  0.0000000000000D+00  0.0000000000000D+00
297  2.9600000000000D+00  0.0000000000000D+00  0.0000000000000D+00
298  2.9700000000000D+00  0.0000000000000D+00  0.0000000000000D+00
299  2.9800000000000D+00  0.0000000000000D+00  0.0000000000000D+00
300  2.9900000000000D+00  0.0000000000000D+00  0.0000000000000D+00
301  3.0000000000000D+00  0.0000000000000D+00  0.0000000000000D+00
302  3.0100000000000D+00  0.0000000000000D+00  0.0000000000000D+00
303  3.0200000000000D+00  0.0000000000000D+00  0.0000000000000D+00
304  3.0300000000000D+00  0.0000000000000D+00  0.0000000000000D+00
305  3.0400000000000D+00  0.0000000000000D+00  0.0000000000000D+00
306  3.0500000000000D+00  0.0000000000000D+00  0.0000000000000D+00
307  3.0600000000000D+00  0.0000000000000D+00  0.0000000000000D+00
308  3.0700000000000D+00  0.0000000000000D+00  0.0000000000000D+00
309  3.0800000000000D+00  0.0000000000000D+00  0.0000000000000D+00
310  3.0900000000000D+00  0.0000000000000D+00  0.0000000000000D+00
311  3.1000000000000D+00  0.0000000000000D+00  0.0000000000000D+00
312  3.1100000000000D+00  0.0000000000000D+00  0.0000000000000D+00
313  3.1200000000000D+00  0.0000000000000D+00  0.0000000000000D+00
314  3.1300000000000D+00  0.0000000000000D+00  0.0000000000000D+00
315  3.1400000000000D+00  0.0000000000000D+00  0.0000000000000D+00
316  3.1500000000000D+00  0.0000000000000D+00  0.0000000000000D+00
317  3.1600000000000D+00  0.0000000000000D+00  0.0000000000000D+00
318  3.1700000000000D+00  0.0000000000000D+00  0.0000000000000D+00
319  3.1800000000000D+00  0.0000000000000D+00  0.0000000000000D+00
320  3.1900000000000D+00  0.0000000000000D+00  0.0000000000000D+00
321  3.2000000000000D+00  0.0000000000000D+00  0.0000000000000D+00
322  3.2100000000000D+00  0.0000000000000D+00  0.0000000000000D+00
323  3.2200000000000D+00  0.0000000000000D+00  0.0000000000000D+00
324  3.2300000000000D+00  0.0000000000000D+00  0.0000000000000D+00
325  3.2400000000000D+00  0.0000000000000D+00  0.0000000000000D+00
326  3.2500000000000D+00  0.0000000000000D+00  0.0000000000000D+00
327  3.2600000000000D+00  0.0000000000000D+00  0.0000000000000D+00
328  3.2700000000000D+00  0.0000000000000D+00  0.0000000000000D+00
329  3.2800000000000D+00  0.0000000000000D+00  0.0000000000000D+00
330  3.2900000000000D+00  0.0000000000000D+00  0.0000000000000D+00
331  3.3000000000000D+00  0.0000000000000D+00  0.0000000000000D+00
332  3.3100000000000D+00  0.0000000000000D+00  0.0000000000000D+00
333  3.3200000000000D+00  0.0000000000000D+00  0.0000000000000D+00
334  3.3300000000000D+00  0.0000000000000D+00  0.0000000000000D+00
335  3.3400000000000D+00  0.0000000000000D+00  0.0000000000000D+00
336  3.3500000000000D+00  0.0000000000000D+00  0.0000000000000D+00
337  3.3600000000000D+00  0.0000000000000D+00  0.0000000000000D+00
338  3.3700000000000D+00  0.0000000000000D+00  0.0000000000000D+00
339  3.3800000000000D+00  0.0000000000000D+00  0.0000000000000D+00
340  3.3900000000000D+00  0.0000000000000D+00  0.0000000000000D+00
341  3.4000000000000D+00  0.0000000000000D+00  0.0000000000000D+00
342  3.4100000000000D+00  0.0000000000000D+00  0.0000000000000D+00
343  3.4200000000000D+00  0.0000000000000D+00  0.0000000000000D+00
344  3.4300000000000D+00  0.0000000000000D+00  0.0000000000000D+00
345  3.4400000000000D+00  0.0000000000000D+00  0.0000000000000D+00
346  3.4500000000000D+00  0.0000000000000D+00  0.0000000000000D+00
347  3.4600000000000D+00  0.0000000000000D+00  0.0000000000000D+00
348  3.4700000000000D+00  0.0000000000000D+00  0.0000000000000D+00
349  3.4800000000000D+00  0.0000000000000D+00  0.0000000000000D+00
350  3.4900000000000D+00  0.0000000000000D+00  0.0000000000000D+00
351  3.5000000000000D+00  0.0000000000000D+00  0.0000000000000D+00
352  3.5100000000000D+00  0.0000000000000D+00  0.0000000000000D+00
353  3.5200000000000D+00  0.0000000000000D+00  0.0000000000000D+00
354  3.5300000000000D+00  0.0000000000000D+00  0.0000000000000D+00
355  3.5400000000000D+00  0.0000000000000D+00  0.0000000000000D+00
356  3.5500000000000D+00  0.0000000000000D+00  0.0000000000000D+00
357  3.5600000000000D+00  0.0000000000000D+00  0.0000000000000D+00
358  3.5700000000000D+00  0.0000000000000D+00  0.0000000000000D+00
359  3.5800000000000D+00  0.0000000000000D+00  0.0000000000000D+00
360  3.5900000000000D+00  0.0000000000000D+00  0.0000000000000D+00
361  3.6000000000000D+00  0.0000000000000D+00  0.0000000000000D+00
362  3.6100000000000D+00  0.0000000000000D+00  0.0000000000000D+00
363  3.6200000000000D+00  0.0000000000000D+00  0.0000000000000D+00
364  3.6300000000000D+00  0.0000000000000D+00  0.0000000000000D+00
365  3.6400000000000D+00  0.0000000000000D+00  0.0000000000000D+00
366  3.6500000000000D+00  0.0000000000000D+00  0.0000000000000D+00
367  3.6600000000000D+00  0.0000000000000D+00  0.0000000000000D+00
368  3.6700000000000D+00  0.0000000000000D+00  0.0000000000000D+00
369  3.6800000000000D+00  0.0000000000000D+00  0.0000000000000D+00
370  3.6900000000000D+00  0.0000000000000D+00  0.0000000000000D+00
371  3.7000000000000D+00  0.0000000000000D+00  0.0000000000000D+00
372  3.7100000000000D+00  0.0000000000000D+00  0.0000000000000D+00
373  3.7200000000000D+00  0.0000000000000D+00  0.0000000000000D+00
374  3.7300000000000D+00  0.0000000000000D+00  0.0000000000000D+00
375  3.7400000000000D+00  0.0000000000000D+00  0.0000000000000D+00
376  3.7500000000000D+00  0.0000000000000D+00  0.0000000000000D+00
377  3.7600000000000D+00  0.0000000000000D+00  0.0000000000000D+00
378  3.7700000000000D+00  0.0000000000000D+00  0.0000000000000D+00
379  3.7800000000000D+00  0.0000000000000D+00  0.0000000000000D+00
380  3.7900000000000D+00  0.0000000000000D+00  0.0000000000000D+00
381  3.8000000000000D+00  0.0000000000000D+00  0.0000000000000D+00
382  3.8100000000000D+00  0.0000000000000D+00  0.0000000000000D+00
383  3.8200000000000D+00  0.0000000000000D+00  0.0000000000000D+00
384  3.8300000000000D+00  0.0000000000000D+00  0.0000000000000D+00
385  3.8400000000000D+00  0.0000000000000D+00  0.0000000000000D+00
386  3.8500000000000D+00  0.0000000000000D+00  0.0000000000000D+00
387  3.8600000000000D+00  0.0000000000000D+00  0.0000000000000D+00
388  3.8700000000000D+00  0.0000000000000D+00  0.0000000000000D+00
389  3.8800000000000D+00  0.0000000000000D+00  0.0000000000000D+00
390  3.8900000000000D+00  0.0000000000000D+00  0.0000000000000D+00
391  3.9000000000000D+00  0.0000000000000D+00  0.0000000000000D+00
392  3.9100000000000D+00  0.0000000000000D+00  0.0000000000000D+00
393  3.9200000000000D+00  0.0000000000000D+00  0.0000000000000D+00
394  3.9300000000000D+00  0.0000000000000D+00  0.0000000000000D+00
395  3.9400000000000D+00  0.0000000000000D+00  0.0000000000000D+00
396  3.9500000000000D+00  0.0000000000000D+00  0.0000000000000D+00
397  3.9600000000000D+00  0.0000000000000D+00  0.0000000000000D+00
398  3.9700000000000D+00  0.0000000000000D+00  0.0000000000000D+00
399  3.9800000000000D+00  0.0000000000000D+00  0.0000000000000D+00
400  3.9900000000000D+00  0.0000000000000D+00  0.0000000000000D+00
401  4.0000000000000D+00  0.0000000000000D+00  0.0000000000000D+00
402  4.0100000000000D+00  0.0000000000000D+00  0.0000000000000D+00
403  4.0200000000000D+00  0.0000000000000D+00  0.0000000000000D+00
404  4.0300000000000D+00  0.0000000000000D+00  0.0000000000000D+00
405  4.0400000000000D+00  0.0000000000000D+00  0.0000000000000D+00
406  4.0500000000000D+00  0.0000000000000D+00  0.0000000000000D+00
407  4.0600000000000D+00  0.0000000000000D+00  0.0000000000000D+00
408  4.0700000000000D+00  0.0000000000000D+00  0.0000000000000D+00
409  4.0800000000000D+00  0.0000000000000D+00  0.0000000000000D+00
410  4.0900000000000D+00  0.0000000000000D+00  0.0000000000000D+00
411  4.1000000000000D+00  0.0000000000000D+00  0.0000000000000D+00
412  4.1100000000000D+00  0.0000000000000D+00  0.0000000000000D+00
413  4.1200000000000D+00  0.0000000000000D+00  0.0000000000000D+00
414  4.1300000000000D+00  0.0000000000000D+00  0.0000000000000D+00
415  4.1400000000000D+00  0.0000000000000D+00  0.0000000000000D+00
416  4.1500000000000D+00  0.0000000000000D+00  0.0000000000000D+00
417  4.1600000000000D+00  0.0000000000000D+00  0.0000000000000D+00
418  4.1700000000000D+00  0.0000000000000D+00  0.0000000000000D+00
419  4.1800000000000D+00  0.0000000000000D+00  0.0000000000000D+00
420  4.1900000000000D+00  0.0000000000000D+00  0.0000000000000D+00
421  4.2000000000000D+00  0.0000000000000D+00  0.0000000000000D+00
422  4.2100000000000D+00  0.0000000000000D+00  0.0000000000000D+00
423  4.2200000000000D+00  0.0000000000000D+00  0.0000000000000D+00
424  4.2300000000000D+00  0.0000000000000D+00  0.0000000000000D+00
425  4.2400000000000D+00  0.0000000000000D+00  0.0000000000000D+00
426  4.2500000000000D+00  0.0000000000000D+00  0.0000000000000D+00
427  4.2600000000000D+00  0.0000000000000D+00  0.0000000000000D+00
428  4.2700000000000D+00  0.0000000000000D+00  0.0000000000000D+00
429  4.2800000000000D+00  0.0000000000000D+00  0.0000000000000D+00
430  4.2900000000000D+00  0.0000000000000D+00  0.0000000000000D+00
431  4.3000000000000D+00  0.0000000000000D+00  0.0000000000000D+00
432  4.3100000000000D+00  0.0000000000000D+00  0.0000000000000D+00
433  4.3200000000000D+00  0.0000000000000D+00  0.0000000000000D+00
434  4.3300000000000D+00  0.0000000000000D+00  0.0000000000000D+00
435  4.3400000000000D+00  0.0000000000000D+00  0.0000000000000D+00
436  4.3500000000000D+00  0.0000000000000D+00  0.0000000000000D+00
437  4.3600000000000D+00  0.0000000000000D+00  0.0000000000000D+00
438  4.3700000000000D+00  0.0000000000000D+00  0.0000000000000D+00
439  4.3800000000000D+00  0.0000000000000D+00  0.0000000000000D+00
440  4.3900000000000D+00  0.0000000000000D+00  0.0000000000000D+00
441  4.4000000000000D+00  0.0000000000000D+00  0.0000000000000D+00
442  4.4100000000000D+00  0.0000000000000D+00  0.0000000000000D+00
443  4.4200000000000D+00  0.0000000000000D+00  0.0000000000000D+00
444  4.4300000000000D+00  0.0000000000000D+00  0.0000000000000D+00