Fe    ONCVPSP  r_core=  1.92  2.06  1.81
26.0000      8.0000      140820    zatom,zion,pspd
8    11     2     4   601     0    pspcod,pspxc,lmax,lloc,mmax,r2well
6.00000000  4.00000000  0.00000000    rchrg fchrg qchrg
2     2     2     0     0    nproj
0                 extension_switch
0                         7.9528772816563D+00  1.3215051952719D+00
1  0.0000000000000D+00 -0.0000000000000D+00 -0.0000000000000D+00
2  1.0000000000000D-02 -3.6482581930455D-02 -1.7621152149965D-02
3  2.0000000000000D-02 -7.2841376540607D-02 -3.5122536053007D-02
4  3.0000000000000D-02 -1.0895327935905D-01 -5.2385067854254D-02
5  4.0000000000000D-02 -1.4469654793232D-01 -6.9291028723964D-02
6  5.0000000000000D-02 -1.7995147365285D-01 -8.5724737992126D-02
7  6.0000000000000D-02 -2.1460104262145D-01 -1.0157321508315D-01
8  7.0000000000000D-02 -2.4853158197740D-01 -1.1672682660925D-01
9  8.0000000000000D-02 -2.8163338819870D-01 -1.3107991505321D-01
10  9.0000000000000D-02 -3.1380133397237D-01 -1.4453140557225D-01
11  1.0000000000000D-01 -3.4493545034000D-01 -1.5698538756439D-01
12  1.1000000000000D-01 -3.7494148094463D-01 -1.6835166776451D-01
13  1.2000000000000D-01 -4.0373140536269D-01 -1.7854629180022D-01
14  1.3000000000000D-01 -4.3122392865101D-01 -1.8749203129054D-01
15  1.4000000000000D-01 -4.5734493438049D-01 -1.9511883371824D-01
16  1.5000000000000D-01 -4.8202789873077D-01 -2.0136423261627D-01
17  1.6000000000000D-01 -5.0521426319369D-01 -2.0617371559119D-01
18  1.7000000000000D-01 -5.2685376396815D-01 -2.0950104824677D-01
19  1.8000000000000D-01 -5.4690471595823D-01 -2.1130855191205D-01
20  1.9000000000000D-01 -5.6533425006515D-01 -2.1156733385868D-01
21  2.0000000000000D-01 -5.8211850169385D-01 -2.1025746794868D-01
22  2.1000000000000D-01 -5.9724275052867D-01 -2.0736812575826D-01
23  2.2000000000000D-01 -6.1070150913531D-01 -2.0289765579610D-01
24  2.3000000000000D-01 -6.2249856111912D-01 -1.9685361154708D-01
25  2.4000000000000D-01 -6.3264694755721D-01 -1.8925272713825D-01
26  2.5000000000000D-01 -6.4116890244030D-01 -1.8012084135320D-01
27  2.6000000000000D-01 -6.4809573618178D-01 -1.6949276923253D-01
28  2.7000000000000D-01 -6.5346766883075D-01 -1.5741212278849D-01
29  2.8000000000000D-01 -6.5733361282127D-01 -1.4393108095654D-01
30  2.9000000000000D-01 -6.5975090675271D-01 -1.2911011018742D-01
31  3.0000000000000D-01 -6.6078500108207D-01 -1.1301763674221D-01
32  3.1000000000000D-01 -6.6050909731784D-01 -9.5729672364306D-02
33  3.2000000000000D-01 -6.5900374376741D-01 -7.7329396549258D-02
34  3.3000000000000D-01 -6.5635638640484D-01 -5.7906693900486D-02
35  3.4000000000000D-01 -6.5266087911164D-01 -3.7557651124476D-02
36  3.5000000000000D-01 -6.4801696355698D-01 -1.6384024266665D-02
37  3.6000000000000D-01 -6.4252969756331D-01  5.5073456987557D-03
38  3.7000000000000D-01 -6.3630886761120D-01  2.8005131910382D-02
39  3.8000000000000D-01 -6.2946837152199D-01  5.0994149871544D-02
40  3.9000000000000D-01 -6.2212555059970D-01  7.4356036011541D-02
41  4.0000000000000D-01 -6.1440053209880D-01  9.7969913993976D-02
42  4.1000000000000D-01 -6.0641553371886D-01  1.2171309840468D-01
43  4.2000000000000D-01 -5.9829415553127D-01  1.4546180963917D-01
44  4.3000000000000D-01 -5.9016066041567D-01  1.6909189886759D-01
45  4.4000000000000D-01 -5.8213924641068D-01  1.9247957955721D-01
46  4.5000000000000D-01 -5.7435331481636D-01  2.1550216159282D-01
47  4.6000000000000D-01 -5.6692473810599D-01  2.3803878381833D-01
48  4.7000000000000D-01 -5.5997313204443D-01  2.5997114048858D-01
49  4.8000000000000D-01 -5.5361515762307D-01  2.8118417581794D-01
50  4.9000000000000D-01 -5.4796375828103D-01  3.0156684168255D-01
51  5.0000000000000D-01 -5.4312749986583D-01  3.2101274965028D-01
52  5.1000000000000D-01 -5.3920991950357D-01  3.3942081227273D-01
53  5.2000000000000D-01 -5.3630886241616D-01  3.5669589436730D-01
54  5.3000000000000D-01 -5.3451577664707D-01  3.7274950336951D-01
55  5.4000000000000D-01 -5.3391529612731D-01  3.8750019001576D-01
56  5.5000000000000D-01 -5.3458447432739D-01  4.0087429446151D-01
57  5.6000000000000D-01 -5.3659243577002D-01  4.1280627396722D-01
58  5.7000000000000D-01 -5.3999977870870D-01  4.2323927529261D-01
59  5.8000000000000D-01 -5.4485821570143D-01  4.3212546826737D-01
60  5.9000000000000D-01 -5.5121008629643D-01  4.3942650271012D-01
61  6.0000000000000D-01 -5.5908817985750D-01  4.4511365784762D-01
62  6.1000000000000D-01 -5.6851516948878D-01  4.4916836800715D-01
63  6.2000000000000D-01 -5.7950371683502D-01  4.5158209213147D-01
64  6.3000000000000D-01 -5.9205596261368D-01  4.5235677503134D-01
65  6.4000000000000D-01 -6.0616355337209D-01  4.5150478570456D-01
66  6.5000000000000D-01 -6.2180765611562D-01  4.4904886702975D-01
67  6.6000000000000D-01 -6.3895870582558D-01  4.4502233215345D-01
68  6.7000000000000D-01 -6.5757659703316D-01  4.3946883544392D-01
69  6.8000000000000D-01 -6.7761079244648D-01  4.3244221934304D-01
70  6.9000000000000D-01 -6.9900049829072D-01  4.2400629657657D-01
71  7.0000000000000D-01 -7.2167470513926D-01  4.1423474037686D-01
72  7.1000000000000D-01 -7.4555265095846D-01  4.0321059245558D-01
73  7.2000000000000D-01 -7.7054408753926D-01  3.9102594135396D-01
74  7.3000000000000D-01 -7.9654966233738D-01  3.7778149084667D-01
75  7.4000000000000D-01 -8.2346135857276D-01  3.6358607504878D-01
76  7.5000000000000D-01 -8.5116296186646D-01  3.4855612976194D-01
77  7.6000000000000D-01 -8.7953062787821D-01  3.3281508335916D-01
78  7.7000000000000D-01 -9.0843346226589D-01  3.1649273178239D-01
79  7.8000000000000D-01 -9.3773414478797D-01  2.9972456532473D-01
80  7.9000000000000D-01 -9.6728959883475D-01  2.8265105378556D-01
81  8.0000000000000D-01 -9.9695169879567D-01  2.6541689555560D-01
82  8.1000000000000D-01 -1.0265680116782D+00  2.4817023451941D-01
83  8.2000000000000D-01 -1.0559825692070D+00  2.3106184884881D-01
84  8.3000000000000D-01 -1.0850366664639D+00  2.1424431592628D-01
85  8.4000000000000D-01 -1.1135696829815D+00  1.9787115778292D-01
86  8.5000000000000D-01 -1.1414199220695D+00  1.8209597156574D-01
87  8.6000000000000D-01 -1.1684254640289D+00  1.6707154966455D-01
88  8.7000000000000D-01 -1.1944250288042D+00  1.5294899423250D-01
89  8.8000000000000D-01 -1.2192588435179D+00  1.3987683092782D-01
90  8.9000000000000D-01 -1.2427695102440D+00  1.2800012678535D-01
91  9.0000000000000D-01 -1.2648028692909D+00  1.1745961719961D-01
92  9.1000000000000D-01 -1.2852088531973D+00  1.0839084705546D-01
93  9.2000000000000D-01 -1.3038423265896D+00  1.0092333107822D-01
94  9.3000000000000D-01 -1.3205639070213D+00  9.5179738481785D-02
95  9.4000000000000D-01 -1.3352407619235D+00  9.1275106957597D-02
96  9.5000000000000D-01 -1.3477473768524D+00  8.9316090955746D-02
97  9.6000000000000D-01 -1.3579660229178D+00  8.9400523806957D-02
98  9.7000000000000D-01 -1.3657881063729D+00  9.1616074116042D-02
99  9.8000000000000D-01 -1.3711144855186D+00  9.6039978944242D-02
100  9.9000000000000D-01 -1.3738559662617D+00  1.0273859019291D-01
101  1.0000000000000D+00 -1.3739339692203D+00  1.1176675026147D-01
102  1.0100000000000D+00 -1.3712810405971D+00  1.2316733316163D-01
103  1.0200000000000D+00 -1.3658412873496D+00  1.3697086684171D-01
104  1.0300000000000D+00 -1.3575701195498D+00  1.5319584399792D-01
105  1.0400000000000D+00 -1.3464367642884D+00  1.7184629484869D-01
106  1.0500000000000D+00 -1.3324224424238D+00  1.9291368248210D-01
107  1.0600000000000D+00 -1.3155212123814D+00  2.1637613819587D-01
108  1.0700000000000D+00 -1.2957401061616D+00  2.4219840999783D-01
109  1.0800000000000D+00 -1.2730983335060D+00  2.7033269468510D-01
110  1.0900000000000D+00 -1.2476301610281D+00  3.0071599398606D-01
111  1.1000000000000D+00 -1.2193821028285D+00  3.3327292063674D-01
112  1.1100000000000D+00 -1.1884135313935D+00  3.6791521178719D-01
113  1.1200000000000D+00 -1.1547959047962D+00  4.0454252923696D-01
114  1.1300000000000D+00 -1.1186143670907D+00  4.4304114561410D-01
115  1.1400000000000D+00 -1.0799662835437D+00  4.8328547816171D-01
116  1.1500000000000D+00 -1.0389603831099D+00  5.2513898450314D-01
117  1.1600000000000D+00 -9.9571611554751D-01  5.6845478324538D-01
118  1.1700000000000D+00 -9.5036523536971D-01  6.1307465039001D-01
119  1.1800000000000D+00 -9.0304923987170D-01  6.5883140252904D-01
120  1.1900000000000D+00 -8.5391888718900D-01  7.0554939438888D-01
121  1.2000000000000D+00 -8.0313417278333D-01  7.5304471597882D-01
122  1.2100000000000D+00 -7.5086375777930D-01  8.0112640253545D-01
123  1.2200000000000D+00 -6.9728319602985D-01  8.4959770358894D-01
124  1.2300000000000D+00 -6.4257510335294D-01  8.9825579000412D-01
125  1.2400000000000D+00 -5.8692769259655D-01  9.4689465414137D-01
126  1.2500000000000D+00 -5.3053373448258D-01  9.9530507254658D-01
127  1.2600000000000D+00 -4.7359110572941D-01  1.0432739716493D+00
128  1.2700000000000D+00 -4.1629932395567D-01  1.0905894766613D+00
129  1.2800000000000D+00 -3.5885989373137D-01  1.1370394839627D+00
130  1.2900000000000D+00 -3.0147772584266D-01  1.1824098598086D+00
131  1.3000000000000D+00 -2.4435444095961D-01  1.2264932303710D+00
132  1.3100000000000D+00 -1.8769169975329D-01  1.2690840036734D+00
133  1.3200000000000D+00 -1.3169248319056D-01  1.3099769415818D+00
134  1.3300000000000D+00 -7.6550917874894D-02  1.3489796860795D+00
135  1.3400000000000D+00 -2.2461195412871D-02  1.3859013265631D+00
136  1.3500000000000D+00  3.0386725585706D-02  1.4205578387575D+00
137  1.3600000000000D+00  8.1813975233805D-02  1.4527800047708D+00
138  1.3700000000000D+00  1.3164119028718D-01  1.4823994730802D+00
139  1.3800000000000D+00  1.7970277173602D-01  1.5092656717590D+00
140  1.3900000000000D+00  2.2584084821381D-01  1.5332383435140D+00
141  1.4000000000000D+00  2.6990040358146D-01  1.5541820155879D+00
142  1.4100000000000D+00  3.1174816543154D-01  1.5719876253440D+00
143  1.4200000000000D+00  3.5125012127470D-01  1.5865465243149D+00
144  1.4300000000000D+00  3.8829145623654D-01  1.5977733288053D+00
145  1.4400000000000D+00  4.2276825235198D-01  1.6055961565117D+00
146  1.4500000000000D+00  4.5458271328121D-01  1.6099513984104D+00
147  1.4600000000000D+00  4.8366307863329D-01  1.6108057647072D+00
148  1.4700000000000D+00  5.0993474457286D-01  1.6081240816225D+00
149  1.4800000000000D+00  5.3335314427791D-01  1.6019056750575D+00
150  1.4900000000000D+00  5.5387610878638D-01  1.5921536563454D+00
151  1.5000000000000D+00  5.7148092735444D-01  1.5788937592227D+00
152  1.5100000000000D+00  5.8616060793385D-01  1.5621698756679D+00
153  1.5200000000000D+00  5.9791514117841D-01  1.5420348323376D+00
154  1.5300000000000D+00  6.0677201299012D-01  1.5185719566012D+00
155  1.5400000000000D+00  6.1275490612200D-01  1.4918619764990D+00
156  1.5500000000000D+00  6.1592236583441D-01  1.4620234391310D+00
157  1.5600000000000D+00  6.1632709304413D-01  1.4291701581612D+00
158  1.5700000000000D+00  6.1405166439461D-01  1.3934480244118D+00
159  1.5800000000000D+00  6.0917874782669D-01  1.3550043087777D+00
160  1.5900000000000D+00  6.0181307167402D-01  1.3140098621917D+00
161  1.6000000000000D+00  5.9206472292161D-01  1.2706420428442D+00
162  1.6100000000000D+00  5.8005930360307D-01  1.2250948587666D+00
163  1.6200000000000D+00  5.6593074902364D-01  1.1775713053206D+00
164  1.6300000000000D+00  5.4982383687810D-01  1.1282862455668D+00
165  1.6400000000000D+00  5.3189228167533D-01  1.0774633517203D+00
166  1.6500000000000D+00  5.1229780688803D-01  1.0253354190475D+00
167  1.6600000000000D+00  4.9120955147359D-01  9.7214156646835D-01
168  1.6700000000000D+00  4.6880335327493D-01  9.1812890349543D-01
169  1.6800000000000D+00  4.4525933060627D-01  8.6354671633652D-01
170  1.6900000000000D+00  4.2076396368987D-01  8.0865207464535D-01
171  1.7000000000000D+00  3.9550400109048D-01  7.5369931412650D-01
172  1.7100000000000D+00  3.6967243410187D-01  6.9895035495403D-01
173  1.7200000000000D+00  3.4345857003625D-01  6.4465983195565D-01
174  1.7300000000000D+00  3.1705711848188D-01  5.9108864944348D-01
175  1.7400000000000D+00  2.9065632356919D-01  5.3848755248711D-01
176  1.7500000000000D+00  2.6444718070395D-01  4.8710983299623D-01
177  1.7600000000000D+00  2.3861384298374D-01  4.3719887947249D-01
178  1.7700000000000D+00  2.1333758613976D-01  3.8899312485689D-01
179  1.7800000000000D+00  1.8879612370594D-01  3.4272594544374D-01
180  1.7900000000000D+00  1.6515457555643D-01  2.9861317788846D-01
181  1.8000000000000D+00  1.4258253006929D-01  2.5687631209286D-01
182  1.8100000000000D+00  1.2122236217962D-01  2.1770073472006D-01
183  1.8200000000000D+00  1.0123430528155D-01  1.8129457502764D-01
184  1.8300000000000D+00  8.2732159637332D-02  1.4780682060039D-01
185  1.8400000000000D+00  6.5865230655727D-02  1.1743057009971D-01
186  1.8500000000000D+00  5.0718997593499D-02  9.0279711555359D-02
187  1.8600000000000D+00  3.7415973823382D-02  6.6513544513657D-02
188  1.8700000000000D+00  2.6025096981377D-02  4.6225317263339D-02
189  1.8800000000000D+00  1.6631632729693D-02  2.9528031751644D-02
190  1.8900000000000D+00  9.2902159280410D-03  1.6496996352614D-02
191  1.9000000000000D+00  4.1667518692145D-03  7.4134537422405D-03
192  1.9100000000000D+00  1.2756522087423D-03  2.2873579440481D-03
193  1.9200000000000D+00 -9.0735014301927D-05 -1.3551200305358D-04
194  1.9300000000000D+00 -3.9960967521821D-04 -6.9430894274068D-04
195  1.9400000000000D+00 -1.1179209667878D-04 -1.9566038488643D-04
196  1.9500000000000D+00  3.3211594894106D-06  4.2504556802661D-06
197  1.9600000000000D+00  2.1559390831157D-06  2.7591940559780D-06
198  1.9700000000000D+00  0.0000000000000D+00  0.0000000000000D+00
199  1.9800000000000D+00  0.0000000000000D+00  0.0000000000000D+00
200  1.9900000000000D+00  0.0000000000000D+00  0.0000000000000D+00
201  2.0000000000000D+00  0.0000000000000D+00  0.0000000000000D+00
202  2.0100000000000D+00  0.0000000000000D+00  0.0000000000000D+00
203  2.0200000000000D+00  0.0000000000000D+00  0.0000000000000D+00
204  2.0300000000000D+00  0.0000000000000D+00  0.0000000000000D+00
205  2.0400000000000D+00  0.0000000000000D+00  0.0000000000000D+00
206  2.0500000000000D+00  0.0000000000000D+00  0.0000000000000D+00
207  2.0600000000000D+00  0.0000000000000D+00  0.0000000000000D+00
208  2.0700000000000D+00  0.0000000000000D+00  0.0000000000000D+00
209  2.0800000000000D+00  0.0000000000000D+00  0.0000000000000D+00
210  2.0900000000000D+00  0.0000000000000D+00  0.0000000000000D+00
211  2.1000000000000D+00  0.0000000000000D+00  0.0000000000000D+00
212  2.1100000000000D+00  0.0000000000000D+00  0.0000000000000D+00
213  2.1200000000000D+00  0.0000000000000D+00  0.0000000000000D+00
214  2.1300000000000D+00  0.0000000000000D+00  0.0000000000000D+00
215  2.1400000000000D+00  0.0000000000000D+00  0.0000000000000D+00
216  2.1500000000000D+00  0.0000000000000D+00  0.0000000000000D+00
217  2.1600000000000D+00  0.0000000000000D+00  0.0000000000000D+00
218  2.1700000000000D+00  0.0000000000000D+00  0.0000000000000D+00
219  2.1800000000000D+00  0.0000000000000D+00  0.0000000000000D+00
220  2.1900000000000D+00  0.0000000000000D+00  0.0000000000000D+00
221  2.2000000000000D+00  0.0000000000000D+00  0.0000000000000D+00
222  2.2100000000000D+00  0.0000000000000D+00  0.0000000000000D+00
223  2.2200000000000D+00  0.0000000000000D+00  0.0000000000000D+00
224  2.2300000000000D+00  0.0000000000000D+00  0.0000000000000D+00
225  2.2400000000000D+00  0.0000000000000D+00  0.0000000000000D+00
226  2.2500000000000D+00  0.0000000000000D+00  0.0000000000000D+00
227  2.2600000000000D+00  0.0000000000000D+00  0.0000000000000D+00
228  2.2700000000000D+00  0.0000000000000D+00  0.0000000000000D+00
229  2.2800000000000D+00  0.0000000000000D+00  0.0000000000000D+00
230  2.2900000000000D+00  0.0000000000000D+00  0.0000000000000D+00
231  2.3000000000000D+00  0.0000000000000D+00  0.0000000000000D+00
232  2.3100000000000D+00  0.0000000000000D+00  0.0000000000000D+00
233  2.3200000000000D+00  0.0000000000000D+00  0.0000000000000D+00
234  2.3300000000000D+00  0.0000000000000D+00  0.0000000000000D+00
235  2.3400000000000D+00  0.0000000000000D+00  0.0000000000000D+00
236  2.3500000000000D+00  0.0000000000000D+00  0.0000000000000D+00
237  2.3600000000000D+00  0.0000000000000D+00  0.0000000000000D+00
238  2.3700000000000D+00  0.0000000000000D+00  0.0000000000000D+00
239  2.3800000000000D+00  0.0000000000000D+00  0.0000000000000D+00
240  2.3900000000000D+00  0.0000000000000D+00  0.0000000000000D+00
241  2.4000000000000D+00  0.0000000000000D+00  0.0000000000000D+00
242  2.4100000000000D+00  0.0000000000000D+00  0.0000000000000D+00
243  2.4200000000000D+00  0.0000000000000D+00  0.0000000000000D+00
244  2.4300000000000D+00  0.0000000000000D+00  0.0000000000000D+00
245  2.4400000000000D+00  0.0000000000000D+00  0.0000000000000D+00
246  2.4500000000000D+00  0.0000000000000D+00  0.0000000000000D+00
247  2.4600000000000D+00  0.0000000000000D+00  0.0000000000000D+00
248  2.4700000000000D+00  0.0000000000000D+00  0.0000000000000D+00
249  2.4800000000000D+00  0.0000000000000D+00  0.0000000000000D+00
250  2.4900000000000D+00  0.0000000000000D+00  0.0000000000000D+00
251  2.5000000000000D+00  0.0000000000000D+00  0.0000000000000D+00
252  2.5100000000000D+00  0.0000000000000D+00  0.0000000000000D+00
253  2.5200000000000D+00  0.0000000000000D+00  0.0000000000000D+00
254  2.5300000000000D+00  0.0000000000000D+00  0.0000000000000D+00
255  2.5400000000000D+00  0.0000000000000D+00  0.0000000000000D+00
256  2.5500000000000D+00  0.0000000000000D+00  0.0000000000000D+00
257  2.5600000000000D+00  0.0000000000000D+00  0.0000000000000D+00
258  2.5700000000000D+00  0.0000000000000D+00  0.0000000000000D+00
259  2.5800000000000D+00  0.0000000000000D+00  0.0000000000000D+00
260  2.5900000000000D+00  0.0000000000000D+00  0.0000000000000D+00
261  2.6000000000000D+00  0.0000000000000D+00  0.0000000000000D+00
262  2.6100000000000D+00  0.0000000000000D+00  0.0000000000000D+00
263  2.6200000000000D+00  0.0000000000000D+00  0.0000000000000D+00
264  2.6300000000000D+00  0.0000000000000D+00  0.0000000000000D+00
265  2.6400000000000D+00  0.0000000000000D+00  0.0000000000000D+00
266  2.6500000000000D+00  0.0000000000000D+00  0.0000000000000D+00
267  2.6600000000000D+00  0.0000000000000D+00  0.0000000000000D+00
268  2.6700000000000D+00  0.0000000000000D+00  0.0000000000000D+00
269  2.6800000000000D+00  0.0000000000000D+00  0.0000000000000D+00
270  2.6900000000000D+00  0.0000000000000D+00  0.0000000000000D+00
271  2.7000000000000D+00  0.0000000000000D+00  0.0000000000000D+00
272  2.7100000000000D+00  0.0000000000000D+00  0.0000000000000D+00
273  2.7200000000000D+00  0.0000000000000D+00  0.0000000000000D+00
274  2.7300000000000D+00  0.0000000000000D+00  0.0000000000000D+00
275  2.7400000000000D+00  0.0000000000000D+00  0.0000000000000D+00
276  2.7500000000000D+00  0.0000000000000D+00  0.0000000000000D+00
277  2.7600000000000D+00  0.0000000000000D+00  0.0000000000000D+00
278  2.7700000000000D+00  0.0000000000000D+00  0.0000000000000D+00
279  2.7800000000000D+00  0.0000000000000D+00  0.0000000000000D+00
280  2.7900000000000D+00  0.0000000000000D+00  0.0000000000000D+00
281  2.8000000000000D+00  0.0000000000000D+00  0.0000000000000D+00
282  2.8100000000000D+00  0.0000000000000D+00  0.0000000000000D+00
283  2.8200000000000D+00  0.0000000000000D+00  0.0000000000000D+00
284  2.8300000000000D+00  0.0000000000000D+00  0.0000000000000D+00
285  2.8400000000000D+00  0.0000000000000D+00  0.0000000000000D+00
286  2.8500000000000D+00  0.0000000000000D+00  0.0000000000000D+00
287  2.8600000000000D+00  0.0000000000000D+00  0.0000000000000D+00
288  2.8700000000000D+00  0.0000000000000D+00  0.0000000000000D+00
289  2.8800000000000D+00  0.0000000000000D+00  0.0000000000000D+00
290  2.8900000000000D+00  0.0000000000000D+00  0.0000000000000D+00
291  2.9000000000000D+00  0.0000000000000D+00  0.0000000000000D+00
292  2.9100000000000D+00  0.0000000000000D+00  0.0000000000000D+00
293  2.9200000000000D+00  0.0000000000000D+00  0.0000000000000D+00
294  2.9300000000000D+00  0.0000000000000D+00  0.0000000000000D+00
295  2.9400000000000D+00  0.0000000000000D+00  0.0000000000000D+00
296  2.9500000000000D+00  0.0000000000000D+00  0.0000000000000D+00
297  2.9600000000000D+00  0.0000000000000D+00  0.0000000000000D+00
298  2.9700000000000D+00  0.0000000000000D+00  0.0000000000000D+00
299  2.9800000000000D+00  0.0000000000000D+00  0.0000000000000D+00
300  2.9900000000000D+00  0.0000000000000D+00  0.0000000000000D+00
301  3.0000000000000D+00  0.0000000000000D+00  0.0000000000000D+00
302  3.0100000000000D+00  0.0000000000000D+00  0.0000000000000D+00
303  3.0200000000000D+00  0.0000000000000D+00  0.0000000000000D+00
304  3.0300000000000D+00  0.0000000000000D+00  0.0000000000000D+00
305  3.0400000000000D+00  0.0000000000000D+00  0.0000000000000D+00
306  3.0500000000000D+00  0.0000000000000D+00  0.0000000000000D+00
307  3.0600000000000D+00  0.0000000000000D+00  0.0000000000000D+00
308  3.0700000000000D+00  0.0000000000000D+00  0.0000000000000D+00
309  3.0800000000000D+00  0.0000000000000D+00  0.0000000000000D+00
310  3.0900000000000D+00  0.0000000000000D+00  0.0000000000000D+00
311  3.1000000000000D+00  0.0000000000000D+00  0.0000000000000D+00
312  3.1100000000000D+00  0.0000000000000D+00  0.0000000000000D+00
313  3.1200000000000D+00  0.0000000000000D+00  0.0000000000000D+00
314  3.1300000000000D+00  0.0000000000000D+00  0.0000000000000D+00
315  3.1400000000000D+00  0.0000000000000D+00  0.0000000000000D+00
316  3.1500000000000D+00  0.0000000000000D+00  0.0000000000000D+00
317  3.1600000000000D+00  0.0000000000000D+00  0.0000000000000D+00
318  3.1700000000000D+00  0.0000000000000D+00  0.0000000000000D+00
319  3.1800000000000D+00  0.0000000000000D+00  0.0000000000000D+00
320  3.1900000000000D+00  0.0000000000000D+00  0.0000000000000D+00
321  3.2000000000000D+00  0.0000000000000D+00  0.0000000000000D+00
322  3.2100000000000D+00  0.0000000000000D+00  0.0000000000000D+00
323  3.2200000000000D+00  0.0000000000000D+00  0.0000000000000D+00
324  3.2300000000000D+00  0.0000000000000D+00  0.0000000000000D+00
325  3.2400000000000D+00  0.0000000000000D+00  0.0000000000000D+00
326  3.2500000000000D+00  0.0000000000000D+00  0.0000000000000D+00
327  3.2600000000000D+00  0.0000000000000D+00  0.0000000000000D+00
328  3.2700000000000D+00  0.0000000000000D+00  0.0000000000000D+00
329  3.2800000000000D+00  0.0000000000000D+00  0.0000000000000D+00
330  3.2900000000000D+00  0.0000000000000D+00  0.0000000000000D+00
331  3.3000000000000D+00  0.0000000000000D+00  0.0000000000000D+00
332  3.3100000000000D+00  0.0000000000000D+00  0.0000000000000D+00
333  3.3200000000000D+00  0.0000000000000D+00  0.0000000000000D+00
334  3.3300000000000D+00  0.0000000000000D+00  0.0000000000000D+00
335  3.3400000000000D+00  0.0000000000000D+00  0.0000000000000D+00
336  3.3500000000000D+00  0.0000000000000D+00  0.0000000000000D+00
337  3.3600000000000D+00  0.0000000000000D+00  0.0000000000000D+00
338  3.3700000000000D+00  0.0000000000000D+00  0.0000000000000D+00
339  3.3800000000000D+00  0.0000000000000D+00  0.0000000000000D+00
340  3.3900000000000D+00  0.0000000000000D+00  0.0000000000000D+00
341  3.4000000000000D+00  0.0000000000000D+00  0.0000000000000D+00
342  3.4100000000000D+00  0.0000000000000D+00  0.0000000000000D+00
343  3.4200000000000D+00  0.0000000000000D+00  0.0000000000000D+00
344  3.4300000000000D+00  0.0000000000000D+00  0.0000000000000D+00
345  3.4400000000000D+00  0.0000000000000D+00  0.0000000000000D+00
346  3.4500000000000D+00  0.0000000000000D+00  0.0000000000000D+00
347  3.4600000000000D+00  0.0000000000000D+00  0.0000000000000D+00
348  3.4700000000000D+00  0.0000000000000D+00  0.0000000000000D+00
349  3.4800000000000D+00  0.0000000000000D+00  0.0000000000000D+00
350  3.4900000000000D+00  0.0000000000000D+00  0.0000000000000D+00
351  3.5000000000000D+00  0.0000000000000D+00  0.0000000000000D+00
352  3.5100000000000D+00  0.0000000000000D+00  0.0000000000000D+00
353  3.5200000000000D+00  0.0000000000000D+00  0.0000000000000D+00
354  3.5300000000000D+00  0.0000000000000D+00  0.0000000000000D+00
355  3.5400000000000D+00  0.0000000000000D+00  0.0000000000000D+00
356  3.5500000000000D+00  0.0000000000000D+00  0.0000000000000D+00
357  3.5600000000000D+00  0.0000000000000D+00  0.0000000000000D+00
358  3.5700000000000D+00  0.0000000000000D+00  0.0000000000000D+00
359  3.5800000000000D+00  0.0000000000000D+00  0.0000000000000D+00
360  3.5900000000000D+00  0.0000000000000D+00  0.0000000000000D+00
361  3.6000000000000D+00  0.0000000000000D+00  0.0000000000000D+00
362  3.6100000000000D+00  0.0000000000000D+00  0.0000000000000D+00
363  3.6200000000000D+00  0.0000000000000D+00  0.0000000000000D+00
364  3.6300000000000D+00  0.0000000000000D+00  0.0000000000000D+00
365  3.6400000000000D+00  0.0000000000000D+00  0.0000000000000D+00
366  3.6500000000000D+00  0.0000000000000D+00  0.0000000000000D+00
367  3.6600000000000D+00  0.0000000000000D+00  0.0000000000000D+00
368  3.6700000000000D+00  0.0000000000000D+00  0.0000000000000D+00
369  3.6800000000000D+00  0.0000000000000D+00  0.0000000000000D+00
370  3.6900000000000D+00  0.0000000000000D+00  0.0000000000000D+00
371  3.7000000000000D+00  0.0000000000000D+00  0.0000000000000D+00
372  3.7100000000000D+00  0.0000000000000D+00  0.0000000000000D+00
373  3.7200000000000D+00  0.0000000000000D+00  0.0000000000000D+00
374  3.7300000000000D+00  0.0000000000000D+00  0.0000000000000D+00
375  3.7400000000000D+00  0.0000000000000D+00  0.0000000000000D+00
376  3.7500000000000D+00  0.0000000000000D+00  0.0000000000000D+00
377  3.7600000000000D+00  0.0000000000000D+00  0.0000000000000D+00
378  3.7700000000000D+00  0.0000000000000D+00  0.0000000000000D+00
379  3.7800000000000D+00  0.0000000000000D+00  0.0000000000000D+00
380  3.7900000000000D+00  0.0000000000000D+00  0.0000000000000D+00
381  3.8000000000000D+00  0.0000000000000D+00  0.0000000000000D+00
382  3.8100000000000D+00  0.0000000000000D+00  0.0000000000000D+00
383  3.8200000000000D+00  0.0000000000000D+00  0.0000000000000D+00
384  3.8300000000000D+00  0.0000000000000D+00  0.0000000000000D+00
385  3.8400000000000D+00  0.0000000000000D+00  0.0000000000000D+00
386  3.8500000000000D+00  0.0000000000000D+00  0.0000000000000D+00
387  3.8600000000000D+00  0.0000000000000D+00  0.0000000000000D+00
388  3.8700000000000D+00  0.0000000000000D+00  0.0000000000000D+00
389  3.8800000000000D+00  0.0000000000000D+00  0.0000000000000D+00
390  3.8900000000000D+00  0.0000000000000D+00  0.0000000000000D+00
391  3.9000000000000D+00  0.0000000000000D+00  0.0000000000000D+00
392  3.9100000000000D+00  0.0000000000000D+00  0.0000000000000D+00
393  3.9200000000000D+00  0.0000000000000D+00  0.0000000000000D+00
394  3.9300000000000D+00  0.0000000000000D+00  0.0000000000000D+00
395  3.9400000000000D+00  0.0000000000000D+00  0.0000000000000D+00
396  3.9500000000000D+00  0.0000000000000D+00  0.0000000000000D+00
397  3.9600000000000D+00  0.0000000000000D+00  0.0000000000000D+00
398  3.9700000000000D+00  0.0000000000000D+00  0.0000000000000D+00
399  3.9800000000000D+00  0.0000000000000D+00  0.0000000000000D+00
400  3.9900000000000D+00  0.0000000000000D+00  0.0000000000000D+00
401  4.0000000000000D+00  0.0000000000000D+00  0.0000000000000D+00
402  4.0100000000000D+00  0.0000000000000D+00  0.0000000000000D+00
403  4.0200000000000D+00  0.0000000000000D+00  0.0000000000000D+00
404  4.0300000000000D+00  0.0000000000000D+00  0.0000000000000D+00
405  4.0400000000000D+00  0.0000000000000D+00  0.0000000000000D+00
406  4.0500000000000D+00  0.0000000000000D+00  0.0000000000000D+00
407  4.0600000000000D+00  0.0000000000000D+00  0.0000000000000D+00
408  4.0700000000000D+00  0.0000000000000D+00  0.0000000000000D+00
409  4.0800000000000D+00  0.0000000000000D+00  0.0000000000000D+00
410  4.0900000000000D+00  0.0000000000000D+00  0.0000000000000D+00
411  4.1000000000000D+00  0.0000000000000D+00  0.0000000000000D+00
412  4.1100000000000D+00  0.0000000000000D+00  0.0000000000000D+00
413  4.1200000000000D+00  0.0000000000000D+00  0.0000000000000D+00
414  4.1300000000000D+00  0.0000000000000D+00  0.0000000000000D+00
415  4.1400000000000D+00  0.0000000000000D+00  0.0000000000000D+00
416  4.1500000000000D+00  0.0000000000000D+00  0.0000000000000D+00
417  4.1600000000000D+00  0.0000000000000D+00  0.0000000000000D+00
418  4.1700000000000D+00  0.0000000000000D+00  0.0000000000000D+00
419  4.1800000000000D+00  0.0000000000000D+00  0.0000000000000D+00
420  4.1900000000000D+00  0.0000000000000D+00  0.0000000000000D+00
421  4.2000000000000D+00  0.0000000000000D+00  0.0000000000000D+00
422  4.2100000000000D+00  0.0000000000000D+00  0.0000000000000D+00
423  4.2200000000000D+00  0.0000000000000D+00  0.0000000000000D+00
424  4.2300000000000D+00  0.0000000000000D+00  0.0000000000000D+00
425  4.2400000000000D+00  0.0000000000000D+00  0.0000000000000D+00
426  4.2500000000000D+00  0.0000000000000D+00  0.0000000000000D+00
427  4.2600000000000D+00  0.0000000000000D+00  0.0000000000000D+00
428  4.2700000000000D+00  0.0000000000000D+00  0.0000000000000D+00
429  4.2800000000000D+00  0.0000000000000D+00  0.0000000000000D+00
430  4.2900000000000D+00  0.0000000000000D+00  0.0000000000000D+00
431  4.3000000000000D+00  0.0000000000000D+00  0.0000000000000D+00
432  4.3100000000000D+00  0.0000000000000D+00  0.0000000000000D+00
433  4.3200000000000D+00  0.0000000000000D+00  0.0000000000000D+00
434  4.3300000000000D+00  0.0000000000000D+00  0.0000000000000D+00
435  4.3400000000000D+00  0.0000000000000D+00  0.0000000000000D+00
436  4.3500000000000D+00  0.0000000000000D+00  0.0000000000000D+00
437  4.3600000000000D+00  0.0000000000000D+00  0.0000000000000D+00
438  4.3700000000000D+00  0.0000000000000D+00  0.0000000000000D+00
439  4.3800000000000D+00  0.0000000000000D+00  0.0000000000000D+00
440  4.3900000000000D+00  0.0000000000000D+00  0.0000000000000D+00
441  4.4000000000000D+00  0.0000000000000D+00  0.0000000000000D+00
442  4.4100000000000D+00  0.0000000000000D+00  0.0000000000000D+00
443  4.4200000000000D+00  0.0000000000000D+00  0.0000000000000D+00
444  4.4300000000000D+00  0.0000000000000D+00  0.0000000000000D+00