Ge    ONCVPSP-3.3.0  r_core=   1.82122   1.71577   2.20419
32.0000      4.0000      180112    zatom,zion,pspd
8 -116133   2     4   600     0    pspcod,pspxc,lmax,lloc,mmax,r2well
5.99000000  0.50000000  0.00000000    rchrg fchrg qchrg
2     2     2     0     0    nproj
1     1           extension_switch
0                         6.5041729337603D+00  6.4594831223530D-01
1  0.0000000000000D+00  1.3870349313549D-11 -2.9203806040101D-11
2  1.0000000000000D-02  2.7929902920774D-02 -1.1864497281077D-02
3  2.0000000000000D-02  5.5863464456744D-02 -2.3745005930327D-02
4  3.0000000000000D-02  8.3804221821231D-02 -3.5657298179495D-02
5  4.0000000000000D-02  1.1175547012248D-01 -4.7616669431579D-02
6  5.0000000000000D-02  1.3972014305424D-01 -5.9637703449311D-02
7  6.0000000000000D-02  1.6770069566840D-01 -7.1734041846443D-02
8  7.0000000000000D-02  1.9569898990712D-01 -8.3918159281794D-02
9  8.0000000000000D-02  2.2371618355855D-01 -9.6201145726825D-02
10  9.0000000000000D-02  2.5175262328248D-01 -1.0859249714128D-01
11  1.0000000000000D-01  2.7980774233208D-01 -1.2109991584827D-01
12  1.1000000000000D-01  3.0787996357412D-01 -1.3372912185037D-01
13  1.2000000000000D-01  3.3596660838327D-01 -1.4648367627210D-01
14  1.3000000000000D-01  3.6406381195656D-01 -1.5936481805153D-01
15  1.4000000000000D-01  3.9216644556132D-01 -1.7237131493556D-01
16  1.5000000000000D-01  4.2026804619508D-01 -1.8549932975931D-01
17  1.6000000000000D-01  4.4836075409823D-01 -1.9874230291103D-01
18  1.7000000000000D-01  4.7643525852001D-01 -2.1209085179942D-01
19  1.8000000000000D-01  5.0448075209689D-01 -2.2553268805228D-01
20  1.9000000000000D-01  5.3248489415797D-01 -2.3905255308229D-01
21  2.0000000000000D-01  5.6043378322660D-01 -2.5263217255954D-01
22  2.1000000000000D-01  5.8831193894024D-01 -2.6625023023111D-01
23  2.2000000000000D-01  6.1610229356201D-01 -2.7988236142571D-01
24  2.3000000000000D-01  6.4378619320818D-01 -2.9350116647714D-01
25  2.4000000000000D-01  6.7134340886529D-01 -3.0707624419399D-01
26  2.5000000000000D-01  6.9875215722003D-01 -3.2057424539641D-01
27  2.6000000000000D-01  7.2598913127389D-01 -3.3395894643180D-01
28  2.7000000000000D-01  7.5302954066329D-01 -3.4719134247437D-01
29  2.8000000000000D-01  7.7984716155519D-01 -3.6022976030509D-01
30  2.9000000000000D-01  8.0641439593757D-01 -3.7302999016213D-01
31  3.0000000000000D-01  8.3270234007447D-01 -3.8554543614669D-01
32  3.1000000000000D-01  8.5868086184663D-01 -3.9772728456593D-01
33  3.2000000000000D-01  8.8431868665085D-01 -4.0952468949403D-01
34  3.3000000000000D-01  9.0958349148572D-01 -4.2088497473477D-01
35  3.4000000000000D-01  9.3444200680623D-01 -4.3175385127520D-01
36  3.5000000000000D-01  9.5886012568814D-01 -4.4207564923005D-01
37  3.6000000000000D-01  9.8280301980187D-01 -4.5179356319097D-01
38  3.7000000000000D-01  1.0062352616587D+00 -4.6084990981482D-01
39  3.8000000000000D-01  1.0291209525556D+00 -4.6918639641000D-01
40  3.9000000000000D-01  1.0514238556140D+00 -4.7674439921119D-01
41  4.0000000000000D-01  1.0731075332769D+00 -4.8346524997016D-01
42  4.1000000000000D-01  1.0941354886020D+00 -4.8929052943441D-01
43  4.2000000000000D-01  1.1144713096682D+00 -4.9416236623623D-01
44  4.3000000000000D-01  1.1340788163889D+00 -4.9802373967381D-01
45  4.4000000000000D-01  1.1529222090129D+00 -5.0081878483113D-01
46  4.5000000000000D-01  1.1709662175790D+00 -5.0249309845784D-01
47  4.6000000000000D-01  1.1881762515828D+00 -5.0299404401168D-01
48  4.7000000000000D-01  1.2045185491089D+00 -5.0227105425650D-01
49  4.8000000000000D-01  1.2199603246800D+00 -5.0027592980669D-01
50  4.9000000000000D-01  1.2344699150780D+00 -4.9696313201569D-01
51  5.0000000000000D-01  1.2480169223983D+00 -4.9229006862160D-01
52  5.1000000000000D-01  1.2605723536098D+00 -4.8621737058583D-01
53  5.2000000000000D-01  1.2721087559055D+00 -4.7870915859315D-01
54  5.3000000000000D-01  1.2826003471498D+00 -4.6973329772092D-01
55  5.4000000000000D-01  1.2920231407478D+00 -4.5926163883377D-01
56  5.5000000000000D-01  1.3003550642884D+00 -4.4727024531640D-01
57  5.6000000000000D-01  1.3075760713431D+00 -4.3373960382001D-01
58  5.7000000000000D-01  1.3136682458327D+00 -4.1865481776969D-01
59  5.8000000000000D-01  1.3186158984106D+00 -4.0200578245825D-01
60  5.9000000000000D-01  1.3224056543523D+00 -3.8378734063665D-01
61  6.0000000000000D-01  1.3250265324771D+00 -3.6399941760252D-01
62  6.1000000000000D-01  1.3264700146779D+00 -3.4264713488559D-01
63  6.2000000000000D-01  1.3267301056777D+00 -3.1974090173118D-01
64  6.3000000000000D-01  1.3258033826815D+00 -2.9529648369026D-01
65  6.4000000000000D-01  1.3236890346433D+00 -2.6933504773696D-01
66  6.5000000000000D-01  1.3203888909194D+00 -2.4188318344914D-01
67  6.6000000000000D-01  1.3159074391336D+00 -2.1297289990722D-01
68  6.7000000000000D-01  1.3102518321349D+00 -1.8264159808708D-01
69  6.8000000000000D-01  1.3034318839831D+00 -1.5093201864739D-01
70  6.9000000000000D-01  1.2954600549543D+00 -1.1789216513440D-01
71  7.0000000000000D-01  1.2863514256148D+00 -8.3575202754509D-02
72  7.1000000000000D-01  1.2761236600683D+00 -4.8039332988464D-02
73  7.2000000000000D-01  1.2647969585353D+00 -1.1347644446562D-02
74  7.3000000000000D-01  1.2523939994816D+00  2.6432059513479D-02
75  7.4000000000000D-01  1.2389398715638D+00  6.5227455763335D-02
76  7.5000000000000D-01  1.2244619957140D+00  1.0496191821396D-01
77  7.6000000000000D-01  1.2089900377358D+00  1.4555475558394D-01
78  7.7000000000000D-01  1.1925558118344D+00  1.8692146913911D-01
79  7.8000000000000D-01  1.1751931755474D+00  2.2897402931200D-01
80  7.9000000000000D-01  1.1569379165897D+00  2.7162117000815D-01
81  8.0000000000000D-01  1.1378276321656D+00  3.1476869931185D-01
82  8.1000000000000D-01  1.1179016013417D+00  3.5831982521594D-01
83  8.2000000000000D-01  1.0972006511052D+00  4.0217549491870D-01
84  8.3000000000000D-01  1.0757670167704D+00  4.4623474615692D-01
85  8.4000000000000D-01  1.0536441974164D+00  4.9039506897872D-01
86  8.5000000000000D-01  1.0308768070708D+00  5.3455277630153D-01
87  8.6000000000000D-01  1.0075104223688D+00  5.7860338155165D-01
88  8.7000000000000D-01  9.8359142743698D-01  6.2244198164199D-01
89  8.8000000000000D-01  9.5916685676026D-01  6.6596364351253D-01
90  8.9000000000000D-01  9.3428423680166D-01  7.0906379243802D-01
91  9.0000000000000D-01  9.0899142714462D-01  7.5163860029284D-01
92  9.1000000000000D-01  8.8333646192903D-01  7.9358537196297D-01
93  9.2000000000000D-01  8.5736739234641D-01  8.3480292809975D-01
94  9.3000000000000D-01  8.3113213095024D-01  8.7519198242728D-01
95  9.4000000000000D-01  8.0467829852376D-01  9.1465551184215D-01
96  9.5000000000000D-01  7.7805307423024D-01  9.5309911757761D-01
97  9.6000000000000D-01  7.5130304974853D-01  9.9043137575032D-01
98  9.7000000000000D-01  7.2447408807124D-01  1.0265641756603D+00
99  9.8000000000000D-01  6.9761118761364D-01  1.0614130442757D+00
100  9.9000000000000D-01  6.7075835224837D-01  1.0948974554058D+00
101  1.0000000000000D+00  6.4395846784428D-01  1.1269411221416D+00
102  1.0100000000000D+00  6.1725318584961D-01  1.1574722712279D+00
103  1.0200000000000D+00  5.9068281441634D-01  1.1864238981252D+00
104  1.0300000000000D+00  5.6428621751804D-01  1.2137340016134D+00
105  1.0400000000000D+00  5.3810072246663D-01  1.2393457968974D+00
106  1.0500000000000D+00  5.1216203618448D-01  1.2632079062788D+00
107  1.0600000000000D+00  4.8650417053533D-01  1.2852745265766D+00
108  1.0700000000000D+00  4.6115937697049D-01  1.3055055725864D+00
109  1.0800000000000D+00  4.3615809068740D-01  1.3238667959977D+00
110  1.0900000000000D+00  4.1152888444744D-01  1.3403298793036D+00
111  1.1000000000000D+00  3.8729843214455D-01  1.3548725043633D+00
112  1.1100000000000D+00  3.6349148215973D-01  1.3674783954051D+00
113  1.1200000000000D+00  3.4013084049045D-01  1.3781373363628D+00
114  1.1300000000000D+00  3.1723736357892D-01  1.3868451625908D+00
115  1.1400000000000D+00  2.9482996072040D-01  1.3936037270987D+00
116  1.1500000000000D+00  2.7292560587361D-01  1.3984208415891D+00
117  1.1600000000000D+00  2.5153935866035D-01  1.4013101926597D+00
118  1.1700000000000D+00  2.3068439427549D-01  1.4022912336925D+00
119  1.1800000000000D+00  2.1037204199549D-01  1.4013890530272D+00
120  1.1900000000000D+00  1.9061183192871D-01  1.3986342191306D+00
121  1.2000000000000D+00  1.7141154961459D-01  1.3940626035579D+00
122  1.2100000000000D+00  1.5277729803318D-01  1.3877151826192D+00
123  1.2200000000000D+00  1.3471356655808D-01  1.3796378187346D+00
124  1.2300000000000D+00  1.1722330636637D-01  1.3698810225175D+00
125  1.2400000000000D+00  1.0030801177397D-01  1.3584996967363D+00
126  1.2500000000000D+00  8.3967806954903D-02  1.3455528633474D+00
127  1.2600000000000D+00  6.8201537487172D-02  1.3311033748277D+00
128  1.2700000000000D+00  5.3006866143852D-02  1.3152176111117D+00
129  1.2800000000000D+00  3.8380372344640D-02  1.2979651634635D+00
130  1.2900000000000D+00  2.4317654678472D-02  1.2794185066240D+00
131  1.3000000000000D+00  1.0813435898198D-02  1.2596526606248D+00
132  1.3100000000000D+00 -2.1383301970765D-03  1.2387448436407D+00
133  1.3200000000000D+00 -1.4544350582391D-02  1.2167741172719D+00
134  1.3300000000000D+00 -2.6411884106889D-02  1.1938210256408D+00
135  1.3400000000000D+00 -3.7748632416601D-02  1.1699672296413D+00
136  1.3500000000000D+00 -4.8562631269511D-02  1.1452951377162D+00
137  1.3600000000000D+00 -5.8862142741213D-02  1.1198875344415D+00
138  1.3700000000000D+00 -6.8655548813977D-02  1.0938272081729D+00
139  1.3800000000000D+00 -7.7951246848796D-02  1.0671965790333D+00
140  1.3900000000000D+00 -8.6757547325851D-02  1.0400773283186D+00
141  1.4000000000000D+00 -9.5082574300352D-02  1.0125500305058D+00
142  1.4100000000000D+00 -1.0293416892766D-01  9.8469378888645D-01
143  1.4200000000000D+00 -1.1031979634674D-01  9.5658587571861D-01
144  1.4300000000000D+00 -1.1724645629682D-01  9.2830137796038D-01
145  1.4400000000000D+00 -1.2372059760706D-01  8.9991284919761D-01
146  1.4500000000000D+00 -1.2974803685344D-01  8.7148996867314D-01
147  1.4600000000000D+00 -1.3533388130247D-01  8.4309920799207D-01
148  1.4700000000000D+00 -1.4048245623510D-01  8.1480350601685D-01
149  1.4800000000000D+00 -1.4519723681840D-01  7.8666195262277D-01
150  1.4900000000000D+00 -1.4948078440830D-01  7.5872948140707D-01
151  1.5000000000000D+00 -1.5333468744668D-01  7.3105657201500D-01
152  1.5100000000000D+00 -1.5675950673810D-01  7.0368896197577D-01
153  1.5200000000000D+00 -1.5975472513187D-01  6.7666736843001D-01
154  1.5300000000000D+00 -1.6231870142113D-01  6.5002721969566D-01
155  1.5400000000000D+00 -1.6444862829047D-01  6.2379839664636D-01
156  1.5500000000000D+00 -1.6614049416948D-01  5.9800498394842D-01
157  1.5600000000000D+00 -1.6738904860938D-01  5.7266503041588D-01
158  1.5700000000000D+00 -1.6818777059653D-01  5.4779031523232D-01
159  1.5800000000000D+00 -1.6852884243785D-01  5.2338614249051D-01
160  1.5900000000000D+00 -1.6840311917265D-01  4.9945108981341D-01
161  1.6000000000000D+00 -1.6780013461647D-01  4.7597700594570D-01
162  1.6100000000000D+00 -1.6670801292276D-01  4.5294834768890D-01
163  1.6200000000000D+00 -1.6511347137304D-01  4.3034211877252D-01
164  1.6300000000000D+00 -1.6300202962943D-01  4.0812937296068D-01
165  1.6400000000000D+00 -1.6035819042914D-01  3.8627634657462D-01
166  1.6500000000000D+00 -1.5716572990082D-01  3.6474611528919D-01
167  1.6600000000000D+00 -1.5340789901219D-01  3.4349961129019D-01
168  1.6700000000000D+00 -1.4906744943620D-01  3.2249527087679D-01
169  1.6800000000000D+00 -1.4412672995595D-01  3.0168920603307D-01
170  1.6900000000000D+00 -1.3856779471706D-01  2.8103551112764D-01
171  1.7000000000000D+00 -1.3237248791363D-01  2.6048638121879D-01
172  1.7100000000000D+00 -1.2552253408401D-01  2.3999229509528D-01
173  1.7200000000000D+00 -1.1799962140865D-01  2.1950216478431D-01
174  1.7300000000000D+00 -1.0978548108161D-01  1.9896347959166D-01
175  1.7400000000000D+00 -1.0086196174404D-01  1.7832243953436D-01
176  1.7500000000000D+00 -9.1211098363897D-02  1.5752407737842D-01
177  1.7600000000000D+00 -8.0786191606335D-02  1.3646952744026D-01
178  1.7700000000000D+00 -6.9581274150564D-02  1.1511872018263D-01
179  1.7800000000000D+00 -5.7855407034594D-02  9.3823263758857D-02
180  1.7900000000000D+00 -4.5616030636098D-02  7.2561916005840D-02
181  1.8000000000000D+00 -3.1326670252282D-02  4.9012737779573D-02
182  1.8100000000000D+00 -1.4414940170614D-02  2.2272755112995D-02
183  1.8200000000000D+00 -1.0792663529025D-03  1.5707849044402D-03
184  1.8300000000000D+00  2.8476689053451D-03 -4.4553157461317D-03
185  1.8400000000000D+00  9.4962759214599D-04 -1.4750503213792D-03
186  1.8500000000000D+00 -6.2463329897060D-04  9.7934022223172D-04
187  1.8600000000000D+00 -4.2484238077622D-04  6.6495547871194D-04
188  1.8700000000000D+00  6.3359753190306D-05 -1.0086853695468D-04
189  1.8800000000000D+00  7.7537872729042D-05 -1.2333413411988D-04
190  1.8900000000000D+00 -6.6752019804544D-08  2.0071900146801D-07
191  1.9000000000000D+00 -1.7022651708990D-07  5.1186011500040D-07
192  1.9100000000000D+00 -5.0188094235521D-09  1.5091234976909D-08
193  1.9200000000000D+00  0.0000000000000D+00  0.0000000000000D+00
194  1.9300000000000D+00  0.0000000000000D+00  0.0000000000000D+00
195  1.9400000000000D+00  0.0000000000000D+00  0.0000000000000D+00
196  1.9500000000000D+00  0.0000000000000D+00  0.0000000000000D+00
197  1.9600000000000D+00  0.0000000000000D+00  0.0000000000000D+00
198  1.9700000000000D+00  0.0000000000000D+00  0.0000000000000D+00
199  1.9800000000000D+00  0.0000000000000D+00  0.0000000000000D+00
200  1.9900000000000D+00  0.0000000000000D+00  0.0000000000000D+00
201  2.0000000000000D+00  0.0000000000000D+00  0.0000000000000D+00
202  2.0100000000000D+00  0.0000000000000D+00  0.0000000000000D+00
203  2.0200000000000D+00  0.0000000000000D+00  0.0000000000000D+00
204  2.0300000000000D+00  0.0000000000000D+00  0.0000000000000D+00
205  2.0400000000000D+00  0.0000000000000D+00  0.0000000000000D+00
206  2.0500000000000D+00  0.0000000000000D+00  0.0000000000000D+00
207  2.0600000000000D+00  0.0000000000000D+00  0.0000000000000D+00
208  2.0700000000000D+00  0.0000000000000D+00  0.0000000000000D+00
209  2.0800000000000D+00  0.0000000000000D+00  0.0000000000000D+00
210  2.0900000000000D+00  0.0000000000000D+00  0.0000000000000D+00
211  2.1000000000000D+00  0.0000000000000D+00  0.0000000000000D+00
212  2.1100000000000D+00  0.0000000000000D+00  0.0000000000000D+00
213  2.1200000000000D+00  0.0000000000000D+00  0.0000000000000D+00
214  2.1300000000000D+00  0.0000000000000D+00  0.0000000000000D+00
215  2.1400000000000D+00  0.0000000000000D+00  0.0000000000000D+00
216  2.1500000000000D+00  0.0000000000000D+00  0.0000000000000D+00
217  2.1600000000000D+00  0.0000000000000D+00  0.0000000000000D+00
218  2.1700000000000D+00  0.0000000000000D+00  0.0000000000000D+00
219  2.1800000000000D+00  0.0000000000000D+00  0.0000000000000D+00
220  2.1900000000000D+00  0.0000000000000D+00  0.0000000000000D+00
221  2.2000000000000D+00  0.0000000000000D+00  0.0000000000000D+00
222  2.2100000000000D+00  0.0000000000000D+00  0.0000000000000D+00
223  2.2200000000000D+00  0.0000000000000D+00  0.0000000000000D+00
224  2.2300000000000D+00  0.0000000000000D+00  0.0000000000000D+00
225  2.2400000000000D+00  0.0000000000000D+00  0.0000000000000D+00
226  2.2500000000000D+00  0.0000000000000D+00  0.0000000000000D+00
227  2.2600000000000D+00  0.0000000000000D+00  0.0000000000000D+00
228  2.2700000000000D+00  0.0000000000000D+00  0.0000000000000D+00
229  2.2800000000000D+00  0.0000000000000D+00  0.0000000000000D+00
230  2.2900000000000D+00  0.0000000000000D+00  0.0000000000000D+00
231  2.3000000000000D+00  0.0000000000000D+00  0.0000000000000D+00
232  2.3100000000000D+00  0.0000000000000D+00  0.0000000000000D+00
233  2.3200000000000D+00  0.0000000000000D+00  0.0000000000000D+00
234  2.3300000000000D+00  0.0000000000000D+00  0.0000000000000D+00
235  2.3400000000000D+00  0.0000000000000D+00  0.0000000000000D+00
236  2.3500000000000D+00  0.0000000000000D+00  0.0000000000000D+00
237  2.3600000000000D+00  0.0000000000000D+00  0.0000000000000D+00
238  2.3700000000000D+00  0.0000000000000D+00  0.0000000000000D+00
239  2.3800000000000D+00  0.0000000000000D+00  0.0000000000000D+00
240  2.3900000000000D+00  0.0000000000000D+00  0.0000000000000D+00
241  2.4000000000000D+00  0.0000000000000D+00  0.0000000000000D+00
242  2.4100000000000D+00  0.0000000000000D+00  0.0000000000000D+00
243  2.4200000000000D+00  0.0000000000000D+00  0.0000000000000D+00
244  2.4300000000000D+00  0.0000000000000D+00  0.0000000000000D+00
245  2.4400000000000D+00  0.0000000000000D+00  0.0000000000000D+00
246  2.4500000000000D+00  0.0000000000000D+00  0.0000000000000D+00
247  2.4600000000000D+00  0.0000000000000D+00  0.0000000000000D+00
248  2.4700000000000D+00  0.0000000000000D+00  0.0000000000000D+00
249  2.4800000000000D+00  0.0000000000000D+00  0.0000000000000D+00
250  2.4900000000000D+00  0.0000000000000D+00  0.0000000000000D+00
251  2.5000000000000D+00  0.0000000000000D+00  0.0000000000000D+00
252  2.5100000000000D+00  0.0000000000000D+00  0.0000000000000D+00
253  2.5200000000000D+00  0.0000000000000D+00  0.0000000000000D+00
254  2.5300000000000D+00  0.0000000000000D+00  0.0000000000000D+00
255  2.5400000000000D+00  0.0000000000000D+00  0.0000000000000D+00
256  2.5500000000000D+00  0.0000000000000D+00  0.0000000000000D+00
257  2.5600000000000D+00  0.0000000000000D+00  0.0000000000000D+00
258  2.5700000000000D+00  0.0000000000000D+00  0.0000000000000D+00
259  2.5800000000000D+00  0.0000000000000D+00  0.0000000000000D+00
260  2.5900000000000D+00  0.0000000000000D+00  0.0000000000000D+00
261  2.6000000000000D+00  0.0000000000000D+00  0.0000000000000D+00
262  2.6100000000000D+00  0.0000000000000D+00  0.0000000000000D+00
263  2.6200000000000D+00  0.0000000000000D+00  0.0000000000000D+00
264  2.6300000000000D+00  0.0000000000000D+00  0.0000000000000D+00
265  2.6400000000000D+00  0.0000000000000D+00  0.0000000000000D+00
266  2.6500000000000D+00  0.0000000000000D+00  0.0000000000000D+00
267  2.6600000000000D+00  0.0000000000000D+00  0.0000000000000D+00
268  2.6700000000000D+00  0.0000000000000D+00  0.0000000000000D+00
269  2.6800000000000D+00  0.0000000000000D+00  0.0000000000000D+00
270  2.6900000000000D+00  0.0000000000000D+00  0.0000000000000D+00
271  2.7000000000000D+00  0.0000000000000D+00  0.0000000000000D+00
272  2.7100000000000D+00  0.0000000000000D+00  0.0000000000000D+00
273  2.7200000000000D+00  0.0000000000000D+00  0.0000000000000D+00
274  2.7300000000000D+00  0.0000000000000D+00  0.0000000000000D+00
275  2.7400000000000D+00  0.0000000000000D+00  0.0000000000000D+00
276  2.7500000000000D+00  0.0000000000000D+00  0.0000000000000D+00
277  2.7600000000000D+00  0.0000000000000D+00  0.0000000000000D+00
278  2.7700000000000D+00  0.0000000000000D+00  0.0000000000000D+00
279  2.7800000000000D+00  0.0000000000000D+00  0.0000000000000D+00
280  2.7900000000000D+00  0.0000000000000D+00  0.0000000000000D+00
281  2.8000000000000D+00  0.0000000000000D+00  0.0000000000000D+00
282  2.8100000000000D+00  0.0000000000000D+00  0.0000000000000D+00
283  2.8200000000000D+00  0.0000000000000D+00  0.0000000000000D+00
284  2.8300000000000D+00  0.0000000000000D+00  0.0000000000000D+00
285  2.8400000000000D+00  0.0000000000000D+00  0.0000000000000D+00
286  2.8500000000000D+00  0.0000000000000D+00  0.0000000000000D+00
287  2.8600000000000D+00  0.0000000000000D+00  0.0000000000000D+00
288  2.8700000000000D+00  0.0000000000000D+00  0.0000000000000D+00
289  2.8800000000000D+00  0.0000000000000D+00  0.0000000000000D+00
290  2.8900000000000D+00  0.0000000000000D+00  0.0000000000000D+00
291  2.9000000000000D+00  0.0000000000000D+00  0.0000000000000D+00
292  2.9100000000000D+00  0.0000000000000D+00  0.0000000000000D+00
293  2.9200000000000D+00  0.0000000000000D+00  0.0000000000000D+00
294  2.9300000000000D+00  0.0000000000000D+00  0.0000000000000D+00
295  2.9400000000000D+00  0.0000000000000D+00  0.0000000000000D+00
296  2.9500000000000D+00  0.0000000000000D+00  0.0000000000000D+00
297  2.9600000000000D+00  0.0000000000000D+00  0.0000000000000D+00
298  2.9700000000000D+00  0.0000000000000D+00  0.0000000000000D+00
299  2.9800000000000D+00  0.0000000000000D+00  0.0000000000000D+00
300  2.9900000000000D+00  0.0000000000000D+00  0.0000000000000D+00
301  3.0000000000000D+00  0.0000000000000D+00  0.0000000000000D+00
302  3.0100000000000D+00  0.0000000000000D+00  0.0000000000000D+00
303  3.0200000000000D+00  0.0000000000000D+00  0.0000000000000D+00
304  3.0300000000000D+00  0.0000000000000D+00  0.0000000000000D+00
305  3.0400000000000D+00  0.0000000000000D+00  0.0000000000000D+00
306  3.0500000000000D+00  0.0000000000000D+00  0.0000000000000D+00
307  3.0600000000000D+00  0.0000000000000D+00  0.0000000000000D+00
308  3.0700000000000D+00  0.0000000000000D+00  0.0000000000000D+00
309  3.0800000000000D+00  0.0000000000000D+00  0.0000000000000D+00
310  3.0900000000000D+00  0.0000000000000D+00  0.0000000000000D+00
311  3.1000000000000D+00  0.0000000000000D+00  0.0000000000000D+00
312  3.1100000000000D+00  0.0000000000000D+00  0.0000000000000D+00
313  3.1200000000000D+00  0.0000000000000D+00  0.0000000000000D+00
314  3.1300000000000D+00  0.0000000000000D+00  0.0000000000000D+00
315  3.1400000000000D+00  0.0000000000000D+00  0.0000000000000D+00
316  3.1500000000000D+00  0.0000000000000D+00  0.0000000000000D+00
317  3.1600000000000D+00  0.0000000000000D+00  0.0000000000000D+00
318  3.1700000000000D+00  0.0000000000000D+00  0.0000000000000D+00
319  3.1800000000000D+00  0.0000000000000D+00  0.0000000000000D+00
320  3.1900000000000D+00  0.0000000000000D+00  0.0000000000000D+00
321  3.2000000000000D+00  0.0000000000000D+00  0.0000000000000D+00
322  3.2100000000000D+00  0.0000000000000D+00  0.0000000000000D+00
323  3.2200000000000D+00  0.0000000000000D+00  0.0000000000000D+00
324  3.2300000000000D+00  0.0000000000000D+00  0.0000000000000D+00
325  3.2400000000000D+00  0.0000000000000D+00  0.0000000000000D+00
326  3.2500000000000D+00  0.0000000000000D+00  0.0000000000000D+00
327  3.2600000000000D+00  0.0000000000000D+00  0.0000000000000D+00
328  3.2700000000000D+00  0.0000000000000D+00  0.0000000000000D+00
329  3.2800000000000D+00  0.0000000000000D+00  0.0000000000000D+00
330  3.2900000000000D+00  0.0000000000000D+00  0.0000000000000D+00
331  3.3000000000000D+00  0.0000000000000D+00  0.0000000000000D+00
332  3.3100000000000D+00  0.0000000000000D+00  0.0000000000000D+00
333  3.3200000000000D+00  0.0000000000000D+00  0.0000000000000D+00
334  3.3300000000000D+00  0.0000000000000D+00  0.0000000000000D+00
335  3.3400000000000D+00  0.0000000000000D+00  0.0000000000000D+00
336  3.3500000000000D+00  0.0000000000000D+00  0.0000000000000D+00
337  3.3600000000000D+00  0.0000000000000D+00  0.0000000000000D+00
338  3.3700000000000D+00  0.0000000000000D+00  0.0000000000000D+00
339  3.3800000000000D+00  0.0000000000000D+00  0.0000000000000D+00
340  3.3900000000000D+00  0.0000000000000D+00  0.0000000000000D+00
341  3.4000000000000D+00  0.0000000000000D+00  0.0000000000000D+00
342  3.4100000000000D+00  0.0000000000000D+00  0.0000000000000D+00
343  3.4200000000000D+00  0.0000000000000D+00  0.0000000000000D+00
344  3.4300000000000D+00  0.0000000000000D+00  0.0000000000000D+00
345  3.4400000000000D+00  0.0000000000000D+00  0.0000000000000D+00
346  3.4500000000000D+00  0.0000000000000D+00  0.0000000000000D+00
347  3.4600000000000D+00  0.0000000000000D+00  0.0000000000000D+00
348  3.4700000000000D+00  0.0000000000000D+00  0.0000000000000D+00
349  3.4800000000000D+00  0.0000000000000D+00  0.0000000000000D+00
350  3.4900000000000D+00  0.0000000000000D+00  0.0000000000000D+00
351  3.5000000000000D+00  0.0000000000000D+00  0.0000000000000D+00
352  3.5100000000000D+00  0.0000000000000D+00  0.0000000000000D+00
353  3.5200000000000D+00  0.0000000000000D+00  0.0000000000000D+00
354  3.5300000000000D+00  0.0000000000000D+00  0.0000000000000D+00
355  3.5400000000000D+00  0.0000000000000D+00  0.0000000000000D+00
356  3.5500000000000D+00  0.0000000000000D+00  0.0000000000000D+00
357  3.5600000000000D+00  0.0000000000000D+00  0.0000000000000D+00
358  3.5700000000000D+00  0.0000000000000D+00  0.0000000000000D+00
359  3.5800000000000D+00  0.0000000000000D+00  0.0000000000000D+00
360  3.5900000000000D+00  0.0000000000000D+00  0.0000000000000D+00
361  3.6000000000000D+00  0.0000000000000D+00  0.0000000000000D+00
362  3.6100000000000D+00  0.0000000000000D+00  0.0000000000000D+00
363  3.6200000000000D+00  0.0000000000000D+00  0.0000000000000D+00
364  3.6300000000000D+00  0.0000000000000D+00  0.0000000000000D+00
365  3.6400000000000D+00  0.0000000000000D+00  0.0000000000000D+00
366  3.6500000000000D+00  0.0000000000000D+00  0.0000000000000D+00
367  3.6600000000000D+00  0.0000000000000D+00  0.0000000000000D+00
368  3.6700000000000D+00  0.0000000000000D+00  0.0000000000000D+00
369  3.6800000000000D+00  0.0000000000000D+00  0.0000000000000D+00
370  3.6900000000000D+00  0.0000000000000D+00  0.0000000000000D+00
371  3.7000000000000D+00  0.0000000000000D+00  0.0000000000000D+00
372  3.7100000000000D+00  0.0000000000000D+00  0.0000000000000D+00
373  3.7200000000000D+00  0.0000000000000D+00  0.0000000000000D+00
374  3.7300000000000D+00  0.0000000000000D+00  0.0000000000000D+00
375  3.7400000000000D+00  0.0000000000000D+00  0.0000000000000D+00
376  3.7500000000000D+00  0.0000000000000D+00  0.0000000000000D+00
377  3.7600000000000D+00  0.0000000000000D+00  0.0000000000000D+00
378  3.7700000000000D+00  0.0000000000000D+00  0.0000000000000D+00
379  3.7800000000000D+00  0.0000000000000D+00  0.0000000000000D+00
380  3.7900000000000D+00  0.0000000000000D+00  0.0000000000000D+00
381  3.8000000000000D+00  0.0000000000000D+00  0.0000000000000D+00
382  3.8100000000000D+00  0.0000000000000D+00  0.0000000000000D+00
383  3.8200000000000D+00  0.0000000000000D+00  0.0000000000000D+00
384  3.8300000000000D+00  0.0000000000000D+00  0.0000000000000D+00
385  3.8400000000000D+00  0.0000000000000D+00  0.0000000000000D+00
386  3.8500000000000D+00  0.0000000000000D+00  0.0000000000000D+00
387  3.8600000000000D+00  0.0000000000000D+00  0.0000000000000D+00
388  3.8700000000000D+00  0.0000000000000D+00  0.0000000000000D+00
389  3.8800000000000D+00  0.0000000000000D+00  0.0000000000000D+00
390  3.8900000000000D+00  0.0000000000000D+00  0.0000000000000D+00
391  3.9000000000000D+00  0.0000000000000D+00  0.0000000000000D+00
392  3.9100000000000D+00  0.0000000000000D+00  0.0000000000000D+00
393  3.9200000000000D+00  0.0000000000000D+00  0.0000000000000D+00
394  3.9300000000000D+00  0.0000000000000D+00  0.0000000000000D+00
395  3.9400000000000D+00  0.0000000000000D+00  0.0000000000000D+00
396  3.9500000000000D+00  0.0000000000000D+00  0.0000000000000D+00
397  3.9600000000000D+00  0.0000000000000D+00  0.0000000000000D+00
398  3.9700000000000D+00  0.0000000000000D+00  0.0000000000000D+00
399  3.9800000000000D+00  0.0000000000000D+00  0.0000000000000D+00
400  3.9900000000000D+00  0.0000000000000D+00  0.0000000000000D+00
401  4.0000000000000D+00  0.0000000000000D+00  0.0000000000000D+00
402  4.0100000000000D+00  0.0000000000000D+00  0.0000000000000D+00
403  4.0200000000000D+00  0.0000000000000D+00  0.0000000000000D+00
404  4.0300000000000D+00  0.0000000000000D+00  0.0000000000000D+00
405  4.0400000000000D+00  0.0000000000000D+00  0.0000000000000D+00
406  4.0500000000000D+00  0.0000000000000D+00  0.0000000000000D+00
407  4.0600000000000D+00  0.0000000000000D+00  0.0000000000000D+00
408  4.0700000000000D+00  0.0000000000000D+00  0.0000000000000D+00
409  4.0800000000000D+00  0.0000000000000D+00  0.0000000000000D+00
410  4.0900000000000D+00  0.0000000000000D+00  0.0000000000000D+00
411  4.1000000000000D+00  0.0000000000000D+00  0.0000000000000D+00
412  4.1100000000000D+00  0.0000000000000D+00  0.0000000000000D+00
413  4.1200000000000D+00  0.0000000000000D+00  0.0000000000000D+00
414  4.1300000000000D+00  0.0000000000000D+00  0.0000000000000D+00
415  4.1400000000000D+00  0.0000000000000D+00  0.0000000000000D+00
416  4.1500000000000D+00  0.0000000000000D+00  0.0000000000000D+00
417  4.1600000000000D+00  0.0000000000000D+00  0.0000000000000D+00
418  4.1700000000000D+00  0.0000000000000D+00  0.0000000000000D+00
419  4.1800000000000D+00  0.0000000000000D+00  0.0000000000000D+00
420  4.1900000000000D+00  0.0000000000000D+00  0.0000000000000D+00
421  4.2000000000000D+00  0.0000000000000D+00  0.0000000000000D+00
422  4.2100000000000D+00  0.0000000000000D+00  0.0000000000000D+00
423  4.2200000000000D+00  0.0000000000000D+00  0.0000000000000D+00
424  4.2300000000000D+00  0.0000000000000D+00  0.0000000000000D+00
425  4.2400000000000D+00  0.0000000000000D+00  0.0000000000000D+00
426  4.2500000000000D+00  0.0000000000000D+00  0.0000000000000D+00
427  4.2600000000000D+00  0.0000000000000D+00  0.0000000000000D+00
428  4.2700000000000D+00  0.0000000000000D+00  0.0000000000000D+00
429  4.2800000000000D+00  0.0000000000000D+00  0.0000000000000D+00
430  4.2900000000000D+00  0.0000000000000D+00  0.0000000000000D+00
431  4.3000000000000D+00  0.0000000000000D+00  0.0000000000000D+00
432  4.3100000000000D+00  0.0000000000000D+00  0.0000000000000D+00
433  4.3200000000000D+00  0.0000000000000D+00  0.0000000000000D+00
434  4.3300000000000D+00  0.0000000000000D+00  0.0000000000000D+00
435  4.3400000000000D+00  0.0000000000000D+00  0.0000000000000D+00
436  4.3500000000000D+00  0.0000000000000D+00  0.0000000000000D+00
437  4.3600000000000D+00  0.0000000000000D+00  0.0000000000000D+00
438  4.3700000000000D+00  0.0000000000000D+00  0.0000000000000D+00
439  4.3800000000000D+00  0.0000000000000D+00  0.0000000000000D+00
440  4.3900000000000D+00  0.0000000000000D+00  0.0000000000000D+00
441  4.4000000000000D+00  0.0000000000000D+00  0.0000000000000D+00
442  4.4100000000000D+00  0.0000000000000D+00  0.0000000000000D+00
443  4.4200000000000D+00  0.0000000000000D+00  0.0000000000000D+00