Se    ONCVPSP-3.3.0  r_core=   1.81943   1.50330   1.90835
34.0000     16.0000      180112    zatom,zion,pspd
8 -116133   2     4   600     0    pspcod,pspxc,lmax,lloc,mmax,r2well
5.99000000  5.00000000  0.00000000    rchrg fchrg qchrg
2     2     2     0     0    nproj
1     1           extension_switch
0                         8.9738043900458D+00  1.0195501558905D+00
1  0.0000000000000D+00  3.6844138850967D-11 -1.0498768521217D-11
2  1.0000000000000D-02  3.6315771273957D-02 -1.8334529488245D-02
3  2.0000000000000D-02  7.2624634155647D-02 -3.6651602081761D-02
4  3.0000000000000D-02  1.0891951003770D-01 -5.4933638379907D-02
5  4.0000000000000D-02  1.4519298124513D-01 -7.3162814840306D-02
6  5.0000000000000D-02  1.8143712489857D-01 -9.1320943880650D-02
7  6.0000000000000D-02  2.1764335082777D-01 -1.0938935658039D-01
8  7.0000000000000D-02  2.5380224484215D-01 -1.2734878883681D-01
9  8.0000000000000D-02  2.8990341862791D-01 -1.4517927181933D-01
10  9.0000000000000D-02  3.2593536749618D-01 -1.6286002755285D-01
11  1.0000000000000D-01  3.6188533715218D-01 -1.8036937044455D-01
12  1.1000000000000D-01  3.9773920059349D-01 -1.9768461554996D-01
13  1.2000000000000D-01  4.3348134617569D-01 -2.1478199435199D-01
14  1.3000000000000D-01  4.6909457780665D-01 -2.3163657880185D-01
15  1.4000000000000D-01  5.0456002814738D-01 -2.4822221434258D-01
16  1.5000000000000D-01  5.3985708560728D-01 -2.6451146260463D-01
17  1.6000000000000D-01  5.7496333582702D-01 -2.8047555442861D-01
18  1.7000000000000D-01  6.0985451824159D-01 -2.9608435383186D-01
19  1.8000000000000D-01  6.4450449821277D-01 -3.1130633349468D-01
20  1.9000000000000D-01  6.7888525511188D-01 -3.2610856229638D-01
21  2.0000000000000D-01  7.1296688662403D-01 -3.4045670538354D-01
22  2.1000000000000D-01  7.4671762943238D-01 -3.5431503720024D-01
23  2.2000000000000D-01  7.8010389632789D-01 -3.6764646785446D-01
24  2.3000000000000D-01  8.1309032967580D-01 -3.8041258313573D-01
25  2.4000000000000D-01  8.4563987105706D-01 -3.9257369843621D-01
26  2.5000000000000D-01  8.7771384679003D-01 -4.0408892676091D-01
27  2.6000000000000D-01  9.0927206892791D-01 -4.1491626094374D-01
28  2.7000000000000D-01  9.4027295121911D-01 -4.2501267011257D-01
29  2.8000000000000D-01  9.7067363941379D-01 -4.3433421037131D-01
30  2.9000000000000D-01  1.0004301551992D+00 -4.4283614958794D-01
31  3.0000000000000D-01  1.0294975529513D+00 -4.5047310609653D-01
32  3.1000000000000D-01  1.0578300883998D+00 -4.5719920103777D-01
33  3.2000000000000D-01  1.0853813982209D+00 -4.6296822397707D-01
34  3.3000000000000D-01  1.1121046894921D+00 -4.6773381135263D-01
35  3.4000000000000D-01  1.1379529378779D+00 -4.7144963721755D-01
36  3.5000000000000D-01  1.1628790933474D+00 -4.7406961565157D-01
37  3.6000000000000D-01  1.1868362921753D+00 -4.7554811412881D-01
38  3.7000000000000D-01  1.2097780739283D+00 -4.7584017703954D-01
39  3.8000000000000D-01  1.2316586021049D+00 -4.7490175847595D-01
40  3.9000000000000D-01  1.2524328870649D+00 -4.7268996330561D-01
41  4.0000000000000D-01  1.2720570098700D+00 -4.6916329547226D-01
42  4.1000000000000D-01  1.2904883456448D+00 -4.6428191238141D-01
43  4.2000000000000D-01  1.3076857850664D+00 -4.5800788415041D-01
44  4.3000000000000D-01  1.3236099526038D+00 -4.5030545642790D-01
45  4.4000000000000D-01  1.3382234201425D+00 -4.4114131541792D-01
46  4.5000000000000D-01  1.3514909146598D+00 -4.3048485367954D-01
47  4.6000000000000D-01  1.3633795186521D+00 -4.1830843521395D-01
48  4.7000000000000D-01  1.3738588620596D+00 -4.0458765829951D-01
49  4.8000000000000D-01  1.3829013044898D+00 -3.8930161449003D-01
50  4.9000000000000D-01  1.3904821065994D+00 -3.7243314215472D-01
51  5.0000000000000D-01  1.3965795895651D+00 -3.5396907290990D-01
52  5.1000000000000D-01  1.4011752816484D+00 -3.3390046927258D-01
53  5.2000000000000D-01  1.4042540509429D+00 -3.1222285185642D-01
54  5.3000000000000D-01  1.4058042234790D+00 -2.8893641442962D-01
55  5.4000000000000D-01  1.4058176859544D+00 -2.6404622516531D-01
56  5.5000000000000D-01  1.4042899724575D+00 -2.3756241243486D-01
57  5.6000000000000D-01  1.4012203346499D+00 -2.0950033352703D-01
58  5.7000000000000D-01  1.3966117949812D+00 -1.7988072471833D-01
59  5.8000000000000D-01  1.3904711826133D+00 -1.4872983117452D-01
60  5.9000000000000D-01  1.3828091518406D+00 -1.1607951522847D-01
61  6.0000000000000D-01  1.3736401829023D+00 -8.1967341657075D-02
62  6.1000000000000D-01  1.3629825651903D+00 -4.6436638667856D-02
63  6.2000000000000D-01  1.3508583629640D+00 -9.5365334054941D-03
64  6.3000000000000D-01  1.3372933637919D+00  2.8678039101413D-02
65  6.4000000000000D-01  1.3223170100409D+00  6.8146354512076D-02
66  6.5000000000000D-01  1.3059623138374D+00  1.0880194609194D-01
67  6.6000000000000D-01  1.2882657560202D+00  1.5057268066586D-01
68  6.7000000000000D-01  1.2692671696996D+00  1.9338086414493D-01
69  6.8000000000000D-01  1.2490096091223D+00  2.3714337700825D-01
70  6.9000000000000D-01  1.2275392046261D+00  2.8177183995755D-01
71  7.0000000000000D-01  1.2049050045436D+00  3.2717280979021D-01
72  7.1000000000000D-01  1.1811588049819D+00  3.7324800536064D-01
73  7.2000000000000D-01  1.1563549684705D+00  4.1989456331840D-01
74  7.3000000000000D-01  1.1305502325207D+00  4.6700532312764D-01
75  7.4000000000000D-01  1.1038035091899D+00  5.1446914068519D-01
76  7.5000000000000D-01  1.0761756767805D+00  5.6217122966717D-01
77  7.6000000000000D-01  1.0477293648361D+00  6.0999352954630D-01
78  7.7000000000000D-01  1.0185287336177D+00  6.5781509903618D-01
79  7.8000000000000D-01  9.8863924925894D-01  7.0551253353525D-01
80  7.9000000000000D-01  9.5812745580337D-01  7.5296040496390D-01
81  8.0000000000000D-01  9.2706074532485D-01  8.0003172221421D-01
82  8.1000000000000D-01  8.9550712732184D-01  8.4659841026494D-01
83  8.2000000000000D-01  8.6353499855705D-01  8.9253180585466D-01
84  8.3000000000000D-01  8.3121291448825D-01  9.3770316745654D-01
85  8.4000000000000D-01  7.9860936340269D-01  9.8198419715840D-01
86  8.5000000000000D-01  7.6579254432682D-01  1.0252475719248D+00
87  8.6000000000000D-01  7.3283014973693D-01  1.0673674816024D+00
88  8.7000000000000D-01  6.9978915404304D-01  1.1082201709300D+00
89  8.8000000000000D-01  6.6673560876085D-01  1.1476844827274D+00
90  8.9000000000000D-01  6.3373444522323D-01  1.1856423993701D+00
91  9.0000000000000D-01  6.0084928561591D-01  1.2219795796005D+00
92  9.1000000000000D-01  5.6814226305113D-01  1.2565858876923D+00
93  9.2000000000000D-01  5.3567385131910D-01  1.2893559119687D+00
94  9.3000000000000D-01  5.0350270488188D-01  1.3201894696721D+00
95  9.4000000000000D-01  4.7168550959568D-01  1.3489920952069D+00
96  9.5000000000000D-01  4.4027684456962D-01  1.3756755088134D+00
97  9.6000000000000D-01  4.0932905549000D-01  1.4001580627909D+00
98  9.7000000000000D-01  3.7889213966052D-01  1.4223651624646D+00
99  9.8000000000000D-01  3.4901364293169D-01  1.4422296591879D+00
100  9.9000000000000D-01  3.1973856861633D-01  1.4596922127881D+00
101  1.0000000000000D+00  2.9110929841516D-01  1.4747016209959D+00
102  1.0100000000000D+00  2.6316552530407D-01  1.4872151135547D+00
103  1.0200000000000D+00  2.3594419827046D-01  1.4971986088649D+00
104  1.0300000000000D+00  2.0947947871791D-01  1.5046269312155D+00
105  1.0400000000000D+00  1.8380270830207D-01  1.5094839868474D+00
106  1.0500000000000D+00  1.5894238790467D-01  1.5117628973068D+00
107  1.0600000000000D+00  1.3492416740184D-01  1.5114660887811D+00
108  1.0700000000000D+00  1.1177084583970D-01  1.5086053363397D+00
109  1.0800000000000D+00  8.9502381589869D-02  1.5032017622483D+00
110  1.0900000000000D+00  6.8135912022525D-02  1.4952857877966D+00
111  1.1000000000000D+00  4.7685782208449D-02  1.4848970383250D+00
112  1.1100000000000D+00  2.8163582137373D-02  1.4720842014301D+00
113  1.1200000000000D+00  9.5781919250170D-03  1.4569048385560D+00
114  1.1300000000000D+00 -8.0641655327406D-03  1.4394251505006D+00
115  1.1400000000000D+00 -2.4759865004128D-02  1.4197196976098D+00
116  1.1500000000000D+00 -4.0507813009666D-02  1.3978710757332D+00
117  1.1600000000000D+00 -5.5309376097355D-02  1.3739695492235D+00
118  1.1700000000000D+00 -6.9168303837850D-02  1.3481126425879D+00
119  1.1800000000000D+00 -8.2090647058843D-02  1.3204046926202D+00
120  1.1900000000000D+00 -9.4084671816692D-02  1.2909563631168D+00
121  1.2000000000000D+00 -1.0516076959358D-01  1.2598841244260D+00
122  1.2100000000000D+00 -1.1533136417048D-01  1.2273097004242D+00
123  1.2200000000000D+00 -1.2461081560371D-01  1.1933594856496D+00
124  1.2300000000000D+00 -1.3301532171090D-01  1.1581639354841D+00
125  1.2400000000000D+00 -1.4056281743426D-01  1.1218569325090D+00
126  1.2500000000000D+00 -1.4727287241245D-01  1.0845751323023D+00
127  1.2600000000000D+00 -1.5316658707088D-01  1.0464572920344D+00
128  1.2700000000000D+00 -1.5826648750614D-01  1.0076435853704D+00
129  1.2800000000000D+00 -1.6259641939181D-01  9.6827490729098D-01
130  1.2900000000000D+00 -1.6618144112168D-01  9.2849217246232D-01
131  1.3000000000000D+00 -1.6904771637182D-01  8.8843561087919D-01
132  1.3100000000000D+00 -1.7122240621525D-01  8.4824406450793D-01
133  1.3200000000000D+00 -1.7273356092570D-01  8.0805428863829D-01
134  1.3300000000000D+00 -1.7361001156561D-01  7.6800026169214D-01
135  1.3400000000000D+00 -1.7388126142568D-01  7.2821250707055D-01
136  1.3500000000000D+00 -1.7357737739190D-01  6.8881743069198D-01
137  1.3600000000000D+00 -1.7272888127152D-01  6.4993667771323D-01
138  1.3700000000000D+00 -1.7136664111746D-01  6.1168651166849D-01
139  1.3800000000000D+00 -1.6952176258012D-01  5.7417721952318D-01
140  1.3900000000000D+00 -1.6722548030466D-01  5.3751254545865D-01
141  1.4000000000000D+00 -1.6450904940743D-01  5.0178915640423D-01
142  1.4100000000000D+00 -1.6140363704399D-01  4.6709614216639D-01
143  1.4200000000000D+00 -1.5794021413410D-01  4.3351455224422D-01
144  1.4300000000000D+00 -1.5414944725634D-01  4.0111697218199D-01
145  1.4400000000000D+00 -1.5006159080949D-01  3.6996714096562D-01
146  1.4500000000000D+00 -1.4570637951346D-01  3.4011961150214D-01
147  1.4600000000000D+00 -1.4111292056387D-01  3.1161945193624D-01
148  1.4700000000000D+00 -1.3630958902922D-01  2.8450200639498D-01
149  1.4800000000000D+00 -1.3132391959059D-01  2.5879267905185D-01
150  1.4900000000000D+00 -1.2618252875837D-01  2.3450691661669D-01
151  1.5000000000000D+00 -1.2091091600160D-01  2.1164962010967D-01
152  1.5100000000000D+00 -1.1553346720739D-01  1.9021561820755D-01
153  1.5200000000000D+00 -1.1007366431872D-01  1.7019127266113D-01
154  1.5300000000000D+00 -1.0455426303863D-01  1.5155578327428D-01
155  1.5400000000000D+00 -9.8997571221672D-02  1.3428296014479D-01
156  1.5500000000000D+00 -9.3425418037820D-02  1.1834143299922D-01
157  1.5600000000000D+00 -8.7859083941374D-02  1.0369464608190D-01
158  1.5700000000000D+00 -8.2319323076744D-02  9.0301425523221D-02
159  1.5800000000000D+00 -7.6826333042485D-02  7.8116286524136D-02
160  1.5900000000000D+00 -7.1399741663767D-02  6.7089869387564D-02
161  1.6000000000000D+00 -6.6058587055193D-02  5.7169369278949D-02
162  1.6100000000000D+00 -6.0821297351683D-02  4.8298991052332D-02
163  1.6200000000000D+00 -5.5705669229058D-02  4.0420419739882D-02
164  1.6300000000000D+00 -5.0728845250202D-02  3.3473303064405D-02
165  1.6400000000000D+00 -4.5907290110253D-02  2.7395741736055D-02
166  1.6500000000000D+00 -4.1256765896936D-02  2.2124783862125D-02
167  1.6600000000000D+00 -3.6792306461820D-02  1.7596919245614D-02
168  1.6700000000000D+00 -3.2528191094558D-02  1.3748570185444D-02
169  1.6800000000000D+00 -2.8477917630960D-02  1.0516574501451D-02
170  1.6900000000000D+00 -2.4654175229252D-02  7.8386578665290D-03
171  1.7000000000000D+00 -2.1068816998446D-02  5.6538911379898D-03
172  1.7100000000000D+00 -1.7732832713034D-02  3.9031303122981D-03
173  1.7200000000000D+00 -1.4656321860192D-02  2.5294348828835D-03
174  1.7300000000000D+00 -1.1848467220866D-02  1.4784627196181D-03
175  1.7400000000000D+00 -9.3175092808881D-03  6.9883757153570D-04
176  1.7500000000000D+00 -7.0707216325453D-03  1.4248761808393D-04
177  1.7600000000000D+00 -5.1148962914252D-03 -2.3601984120873D-04
178  1.7700000000000D+00 -3.4545500222368D-03 -4.7582075787737D-04
179  1.7800000000000D+00 -2.0917120699246D-03 -6.0536060753824D-04
180  1.7900000000000D+00 -1.0322122004317D-03 -6.6518625063707D-04
181  1.8000000000000D+00 -2.8351689477810D-04 -7.2272863988394D-04
182  1.8100000000000D+00  1.5800176014759D-04 -7.8484916446071D-04
183  1.8200000000000D+00  3.0168223862296D-04 -7.0417076552074D-04
184  1.8300000000000D+00  1.9303713804376D-04 -3.7587527305824D-04
185  1.8400000000000D+00  1.8630549099216D-05 -3.3866767695652D-05
186  1.8500000000000D+00 -4.3149178043933D-05  7.6148276851909D-05
187  1.8600000000000D+00 -1.6499236007491D-05  2.8369632035757D-05
188  1.8700000000000D+00  8.0638459425210D-06 -1.5050956634081D-05
189  1.8800000000000D+00  6.1891485656542D-06 -1.1409662652173D-05
190  1.8900000000000D+00 -5.3285061017243D-07  1.2659921158189D-06
191  1.9000000000000D+00 -7.5979090708235D-07  1.8051763095963D-06
192  1.9100000000000D+00  0.0000000000000D+00  0.0000000000000D+00
193  1.9200000000000D+00  0.0000000000000D+00  0.0000000000000D+00
194  1.9300000000000D+00  0.0000000000000D+00  0.0000000000000D+00
195  1.9400000000000D+00  0.0000000000000D+00  0.0000000000000D+00
196  1.9500000000000D+00  0.0000000000000D+00  0.0000000000000D+00
197  1.9600000000000D+00  0.0000000000000D+00  0.0000000000000D+00
198  1.9700000000000D+00  0.0000000000000D+00  0.0000000000000D+00
199  1.9800000000000D+00  0.0000000000000D+00  0.0000000000000D+00
200  1.9900000000000D+00  0.0000000000000D+00  0.0000000000000D+00
201  2.0000000000000D+00  0.0000000000000D+00  0.0000000000000D+00
202  2.0100000000000D+00  0.0000000000000D+00  0.0000000000000D+00
203  2.0200000000000D+00  0.0000000000000D+00  0.0000000000000D+00
204  2.0300000000000D+00  0.0000000000000D+00  0.0000000000000D+00
205  2.0400000000000D+00  0.0000000000000D+00  0.0000000000000D+00
206  2.0500000000000D+00  0.0000000000000D+00  0.0000000000000D+00
207  2.0600000000000D+00  0.0000000000000D+00  0.0000000000000D+00
208  2.0700000000000D+00  0.0000000000000D+00  0.0000000000000D+00
209  2.0800000000000D+00  0.0000000000000D+00  0.0000000000000D+00
210  2.0900000000000D+00  0.0000000000000D+00  0.0000000000000D+00
211  2.1000000000000D+00  0.0000000000000D+00  0.0000000000000D+00
212  2.1100000000000D+00  0.0000000000000D+00  0.0000000000000D+00
213  2.1200000000000D+00  0.0000000000000D+00  0.0000000000000D+00
214  2.1300000000000D+00  0.0000000000000D+00  0.0000000000000D+00
215  2.1400000000000D+00  0.0000000000000D+00  0.0000000000000D+00
216  2.1500000000000D+00  0.0000000000000D+00  0.0000000000000D+00
217  2.1600000000000D+00  0.0000000000000D+00  0.0000000000000D+00
218  2.1700000000000D+00  0.0000000000000D+00  0.0000000000000D+00
219  2.1800000000000D+00  0.0000000000000D+00  0.0000000000000D+00
220  2.1900000000000D+00  0.0000000000000D+00  0.0000000000000D+00
221  2.2000000000000D+00  0.0000000000000D+00  0.0000000000000D+00
222  2.2100000000000D+00  0.0000000000000D+00  0.0000000000000D+00
223  2.2200000000000D+00  0.0000000000000D+00  0.0000000000000D+00
224  2.2300000000000D+00  0.0000000000000D+00  0.0000000000000D+00
225  2.2400000000000D+00  0.0000000000000D+00  0.0000000000000D+00
226  2.2500000000000D+00  0.0000000000000D+00  0.0000000000000D+00
227  2.2600000000000D+00  0.0000000000000D+00  0.0000000000000D+00
228  2.2700000000000D+00  0.0000000000000D+00  0.0000000000000D+00
229  2.2800000000000D+00  0.0000000000000D+00  0.0000000000000D+00
230  2.2900000000000D+00  0.0000000000000D+00  0.0000000000000D+00
231  2.3000000000000D+00  0.0000000000000D+00  0.0000000000000D+00
232  2.3100000000000D+00  0.0000000000000D+00  0.0000000000000D+00
233  2.3200000000000D+00  0.0000000000000D+00  0.0000000000000D+00
234  2.3300000000000D+00  0.0000000000000D+00  0.0000000000000D+00
235  2.3400000000000D+00  0.0000000000000D+00  0.0000000000000D+00
236  2.3500000000000D+00  0.0000000000000D+00  0.0000000000000D+00
237  2.3600000000000D+00  0.0000000000000D+00  0.0000000000000D+00
238  2.3700000000000D+00  0.0000000000000D+00  0.0000000000000D+00
239  2.3800000000000D+00  0.0000000000000D+00  0.0000000000000D+00
240  2.3900000000000D+00  0.0000000000000D+00  0.0000000000000D+00
241  2.4000000000000D+00  0.0000000000000D+00  0.0000000000000D+00
242  2.4100000000000D+00  0.0000000000000D+00  0.0000000000000D+00
243  2.4200000000000D+00  0.0000000000000D+00  0.0000000000000D+00
244  2.4300000000000D+00  0.0000000000000D+00  0.0000000000000D+00
245  2.4400000000000D+00  0.0000000000000D+00  0.0000000000000D+00
246  2.4500000000000D+00  0.0000000000000D+00  0.0000000000000D+00
247  2.4600000000000D+00  0.0000000000000D+00  0.0000000000000D+00
248  2.4700000000000D+00  0.0000000000000D+00  0.0000000000000D+00
249  2.4800000000000D+00  0.0000000000000D+00  0.0000000000000D+00
250  2.4900000000000D+00  0.0000000000000D+00  0.0000000000000D+00
251  2.5000000000000D+00  0.0000000000000D+00  0.0000000000000D+00
252  2.5100000000000D+00  0.0000000000000D+00  0.0000000000000D+00
253  2.5200000000000D+00  0.0000000000000D+00  0.0000000000000D+00
254  2.5300000000000D+00  0.0000000000000D+00  0.0000000000000D+00
255  2.5400000000000D+00  0.0000000000000D+00  0.0000000000000D+00
256  2.5500000000000D+00  0.0000000000000D+00  0.0000000000000D+00
257  2.5600000000000D+00  0.0000000000000D+00  0.0000000000000D+00
258  2.5700000000000D+00  0.0000000000000D+00  0.0000000000000D+00
259  2.5800000000000D+00  0.0000000000000D+00  0.0000000000000D+00
260  2.5900000000000D+00  0.0000000000000D+00  0.0000000000000D+00
261  2.6000000000000D+00  0.0000000000000D+00  0.0000000000000D+00
262  2.6100000000000D+00  0.0000000000000D+00  0.0000000000000D+00
263  2.6200000000000D+00  0.0000000000000D+00  0.0000000000000D+00
264  2.6300000000000D+00  0.0000000000000D+00  0.0000000000000D+00
265  2.6400000000000D+00  0.0000000000000D+00  0.0000000000000D+00
266  2.6500000000000D+00  0.0000000000000D+00  0.0000000000000D+00
267  2.6600000000000D+00  0.0000000000000D+00  0.0000000000000D+00
268  2.6700000000000D+00  0.0000000000000D+00  0.0000000000000D+00
269  2.6800000000000D+00  0.0000000000000D+00  0.0000000000000D+00
270  2.6900000000000D+00  0.0000000000000D+00  0.0000000000000D+00
271  2.7000000000000D+00  0.0000000000000D+00  0.0000000000000D+00
272  2.7100000000000D+00  0.0000000000000D+00  0.0000000000000D+00
273  2.7200000000000D+00  0.0000000000000D+00  0.0000000000000D+00
274  2.7300000000000D+00  0.0000000000000D+00  0.0000000000000D+00
275  2.7400000000000D+00  0.0000000000000D+00  0.0000000000000D+00
276  2.7500000000000D+00  0.0000000000000D+00  0.0000000000000D+00
277  2.7600000000000D+00  0.0000000000000D+00  0.0000000000000D+00
278  2.7700000000000D+00  0.0000000000000D+00  0.0000000000000D+00
279  2.7800000000000D+00  0.0000000000000D+00  0.0000000000000D+00
280  2.7900000000000D+00  0.0000000000000D+00  0.0000000000000D+00
281  2.8000000000000D+00  0.0000000000000D+00  0.0000000000000D+00
282  2.8100000000000D+00  0.0000000000000D+00  0.0000000000000D+00
283  2.8200000000000D+00  0.0000000000000D+00  0.0000000000000D+00
284  2.8300000000000D+00  0.0000000000000D+00  0.0000000000000D+00
285  2.8400000000000D+00  0.0000000000000D+00  0.0000000000000D+00
286  2.8500000000000D+00  0.0000000000000D+00  0.0000000000000D+00
287  2.8600000000000D+00  0.0000000000000D+00  0.0000000000000D+00
288  2.8700000000000D+00  0.0000000000000D+00  0.0000000000000D+00
289  2.8800000000000D+00  0.0000000000000D+00  0.0000000000000D+00
290  2.8900000000000D+00  0.0000000000000D+00  0.0000000000000D+00
291  2.9000000000000D+00  0.0000000000000D+00  0.0000000000000D+00
292  2.9100000000000D+00  0.0000000000000D+00  0.0000000000000D+00
293  2.9200000000000D+00  0.0000000000000D+00  0.0000000000000D+00
294  2.9300000000000D+00  0.0000000000000D+00  0.0000000000000D+00
295  2.9400000000000D+00  0.0000000000000D+00  0.0000000000000D+00
296  2.9500000000000D+00  0.0000000000000D+00  0.0000000000000D+00
297  2.9600000000000D+00  0.0000000000000D+00  0.0000000000000D+00
298  2.9700000000000D+00  0.0000000000000D+00  0.0000000000000D+00
299  2.9800000000000D+00  0.0000000000000D+00  0.0000000000000D+00
300  2.9900000000000D+00  0.0000000000000D+00  0.0000000000000D+00
301  3.0000000000000D+00  0.0000000000000D+00  0.0000000000000D+00
302  3.0100000000000D+00  0.0000000000000D+00  0.0000000000000D+00
303  3.0200000000000D+00  0.0000000000000D+00  0.0000000000000D+00
304  3.0300000000000D+00  0.0000000000000D+00  0.0000000000000D+00
305  3.0400000000000D+00  0.0000000000000D+00  0.0000000000000D+00
306  3.0500000000000D+00  0.0000000000000D+00  0.0000000000000D+00
307  3.0600000000000D+00  0.0000000000000D+00  0.0000000000000D+00
308  3.0700000000000D+00  0.0000000000000D+00  0.0000000000000D+00
309  3.0800000000000D+00  0.0000000000000D+00  0.0000000000000D+00
310  3.0900000000000D+00  0.0000000000000D+00  0.0000000000000D+00
311  3.1000000000000D+00  0.0000000000000D+00  0.0000000000000D+00
312  3.1100000000000D+00  0.0000000000000D+00  0.0000000000000D+00
313  3.1200000000000D+00  0.0000000000000D+00  0.0000000000000D+00
314  3.1300000000000D+00  0.0000000000000D+00  0.0000000000000D+00
315  3.1400000000000D+00  0.0000000000000D+00  0.0000000000000D+00
316  3.1500000000000D+00  0.0000000000000D+00  0.0000000000000D+00
317  3.1600000000000D+00  0.0000000000000D+00  0.0000000000000D+00
318  3.1700000000000D+00  0.0000000000000D+00  0.0000000000000D+00
319  3.1800000000000D+00  0.0000000000000D+00  0.0000000000000D+00
320  3.1900000000000D+00  0.0000000000000D+00  0.0000000000000D+00
321  3.2000000000000D+00  0.0000000000000D+00  0.0000000000000D+00
322  3.2100000000000D+00  0.0000000000000D+00  0.0000000000000D+00
323  3.2200000000000D+00  0.0000000000000D+00  0.0000000000000D+00
324  3.2300000000000D+00  0.0000000000000D+00  0.0000000000000D+00
325  3.2400000000000D+00  0.0000000000000D+00  0.0000000000000D+00
326  3.2500000000000D+00  0.0000000000000D+00  0.0000000000000D+00
327  3.2600000000000D+00  0.0000000000000D+00  0.0000000000000D+00
328  3.2700000000000D+00  0.0000000000000D+00  0.0000000000000D+00
329  3.2800000000000D+00  0.0000000000000D+00  0.0000000000000D+00
330  3.2900000000000D+00  0.0000000000000D+00  0.0000000000000D+00
331  3.3000000000000D+00  0.0000000000000D+00  0.0000000000000D+00
332  3.3100000000000D+00  0.0000000000000D+00  0.0000000000000D+00
333  3.3200000000000D+00  0.0000000000000D+00  0.0000000000000D+00
334  3.3300000000000D+00  0.0000000000000D+00  0.0000000000000D+00
335  3.3400000000000D+00  0.0000000000000D+00  0.0000000000000D+00
336  3.3500000000000D+00  0.0000000000000D+00  0.0000000000000D+00
337  3.3600000000000D+00  0.0000000000000D+00  0.0000000000000D+00
338  3.3700000000000D+00  0.0000000000000D+00  0.0000000000000D+00
339  3.3800000000000D+00  0.0000000000000D+00  0.0000000000000D+00
340  3.3900000000000D+00  0.0000000000000D+00  0.0000000000000D+00
341  3.4000000000000D+00  0.0000000000000D+00  0.0000000000000D+00
342  3.4100000000000D+00  0.0000000000000D+00  0.0000000000000D+00
343  3.4200000000000D+00  0.0000000000000D+00  0.0000000000000D+00
344  3.4300000000000D+00  0.0000000000000D+00  0.0000000000000D+00
345  3.4400000000000D+00  0.0000000000000D+00  0.0000000000000D+00
346  3.4500000000000D+00  0.0000000000000D+00  0.0000000000000D+00
347  3.4600000000000D+00  0.0000000000000D+00  0.0000000000000D+00
348  3.4700000000000D+00  0.0000000000000D+00  0.0000000000000D+00
349  3.4800000000000D+00  0.0000000000000D+00  0.0000000000000D+00
350  3.4900000000000D+00  0.0000000000000D+00  0.0000000000000D+00
351  3.5000000000000D+00  0.0000000000000D+00  0.0000000000000D+00
352  3.5100000000000D+00  0.0000000000000D+00  0.0000000000000D+00
353  3.5200000000000D+00  0.0000000000000D+00  0.0000000000000D+00
354  3.5300000000000D+00  0.0000000000000D+00  0.0000000000000D+00
355  3.5400000000000D+00  0.0000000000000D+00  0.0000000000000D+00
356  3.5500000000000D+00  0.0000000000000D+00  0.0000000000000D+00
357  3.5600000000000D+00  0.0000000000000D+00  0.0000000000000D+00
358  3.5700000000000D+00  0.0000000000000D+00  0.0000000000000D+00
359  3.5800000000000D+00  0.0000000000000D+00  0.0000000000000D+00
360  3.5900000000000D+00  0.0000000000000D+00  0.0000000000000D+00
361  3.6000000000000D+00  0.0000000000000D+00  0.0000000000000D+00
362  3.6100000000000D+00  0.0000000000000D+00  0.0000000000000D+00
363  3.6200000000000D+00  0.0000000000000D+00  0.0000000000000D+00
364  3.6300000000000D+00  0.0000000000000D+00  0.0000000000000D+00
365  3.6400000000000D+00  0.0000000000000D+00  0.0000000000000D+00
366  3.6500000000000D+00  0.0000000000000D+00  0.0000000000000D+00
367  3.6600000000000D+00  0.0000000000000D+00  0.0000000000000D+00
368  3.6700000000000D+00  0.0000000000000D+00  0.0000000000000D+00
369  3.6800000000000D+00  0.0000000000000D+00  0.0000000000000D+00
370  3.6900000000000D+00  0.0000000000000D+00  0.0000000000000D+00
371  3.7000000000000D+00  0.0000000000000D+00  0.0000000000000D+00
372  3.7100000000000D+00  0.0000000000000D+00  0.0000000000000D+00
373  3.7200000000000D+00  0.0000000000000D+00  0.0000000000000D+00
374  3.7300000000000D+00  0.0000000000000D+00  0.0000000000000D+00
375  3.7400000000000D+00  0.0000000000000D+00  0.0000000000000D+00
376  3.7500000000000D+00  0.0000000000000D+00  0.0000000000000D+00
377  3.7600000000000D+00  0.0000000000000D+00  0.0000000000000D+00
378  3.7700000000000D+00  0.0000000000000D+00  0.0000000000000D+00
379  3.7800000000000D+00  0.0000000000000D+00  0.0000000000000D+00
380  3.7900000000000D+00  0.0000000000000D+00  0.0000000000000D+00
381  3.8000000000000D+00  0.0000000000000D+00  0.0000000000000D+00
382  3.8100000000000D+00  0.0000000000000D+00  0.0000000000000D+00
383  3.8200000000000D+00  0.0000000000000D+00  0.0000000000000D+00
384  3.8300000000000D+00  0.0000000000000D+00  0.0000000000000D+00
385  3.8400000000000D+00  0.0000000000000D+00  0.0000000000000D+00
386  3.8500000000000D+00  0.0000000000000D+00  0.0000000000000D+00
387  3.8600000000000D+00  0.0000000000000D+00  0.0000000000000D+00
388  3.8700000000000D+00  0.0000000000000D+00  0.0000000000000D+00
389  3.8800000000000D+00  0.0000000000000D+00  0.0000000000000D+00
390  3.8900000000000D+00  0.0000000000000D+00  0.0000000000000D+00
391  3.9000000000000D+00  0.0000000000000D+00  0.0000000000000D+00
392  3.9100000000000D+00  0.0000000000000D+00  0.0000000000000D+00
393  3.9200000000000D+00  0.0000000000000D+00  0.0000000000000D+00
394  3.9300000000000D+00  0.0000000000000D+00  0.0000000000000D+00
395  3.9400000000000D+00  0.0000000000000D+00  0.0000000000000D+00
396  3.9500000000000D+00  0.0000000000000D+00  0.0000000000000D+00
397  3.9600000000000D+00  0.0000000000000D+00  0.0000000000000D+00
398  3.9700000000000D+00  0.0000000000000D+00  0.0000000000000D+00
399  3.9800000000000D+00  0.0000000000000D+00  0.0000000000000D+00
400  3.9900000000000D+00  0.0000000000000D+00  0.0000000000000D+00
401  4.0000000000000D+00  0.0000000000000D+00  0.0000000000000D+00
402  4.0100000000000D+00  0.0000000000000D+00  0.0000000000000D+00
403  4.0200000000000D+00  0.0000000000000D+00  0.0000000000000D+00
404  4.0300000000000D+00  0.0000000000000D+00  0.0000000000000D+00
405  4.0400000000000D+00  0.0000000000000D+00  0.0000000000000D+00
406  4.0500000000000D+00  0.0000000000000D+00  0.0000000000000D+00
407  4.0600000000000D+00  0.0000000000000D+00  0.0000000000000D+00
408  4.0700000000000D+00  0.0000000000000D+00  0.0000000000000D+00
409  4.0800000000000D+00  0.0000000000000D+00  0.0000000000000D+00
410  4.0900000000000D+00  0.0000000000000D+00  0.0000000000000D+00
411  4.1000000000000D+00  0.0000000000000D+00  0.0000000000000D+00
412  4.1100000000000D+00  0.0000000000000D+00  0.0000000000000D+00
413  4.1200000000000D+00  0.0000000000000D+00  0.0000000000000D+00
414  4.1300000000000D+00  0.0000000000000D+00  0.0000000000000D+00
415  4.1400000000000D+00  0.0000000000000D+00  0.0000000000000D+00
416  4.1500000000000D+00  0.0000000000000D+00  0.0000000000000D+00
417  4.1600000000000D+00  0.0000000000000D+00  0.0000000000000D+00
418  4.1700000000000D+00  0.0000000000000D+00  0.0000000000000D+00
419  4.1800000000000D+00  0.0000000000000D+00  0.0000000000000D+00
420  4.1900000000000D+00  0.0000000000000D+00  0.0000000000000D+00
421  4.2000000000000D+00  0.0000000000000D+00  0.0000000000000D+00
422  4.2100000000000D+00  0.0000000000000D+00  0.0000000000000D+00
423  4.2200000000000D+00  0.0000000000000D+00  0.0000000000000D+00
424  4.2300000000000D+00  0.0000000000000D+00  0.0000000000000D+00
425  4.2400000000000D+00  0.0000000000000D+00  0.0000000000000D+00
426  4.2500000000000D+00  0.0000000000000D+00  0.0000000000000D+00
427  4.2600000000000D+00  0.0000000000000D+00  0.0000000000000D+00
428  4.2700000000000D+00  0.0000000000000D+00  0.0000000000000D+00
429  4.2800000000000D+00  0.0000000000000D+00  0.0000000000000D+00
430  4.2900000000000D+00  0.0000000000000D+00  0.0000000000000D+00
431  4.3000000000000D+00  0.0000000000000D+00  0.0000000000000D+00
432  4.3100000000000D+00  0.0000000000000D+00  0.0000000000000D+00
433  4.3200000000000D+00  0.0000000000000D+00  0.0000000000000D+00
434  4.3300000000000D+00  0.0000000000000D+00  0.0000000000000D+00
435  4.3400000000000D+00  0.0000000000000D+00  0.0000000000000D+00
436  4.3500000000000D+00  0.0000000000000D+00  0.0000000000000D+00
437  4.3600000000000D+00  0.0000000000000D+00  0.0000000000000D+00
438  4.3700000000000D+00  0.0000000000000D+00  0.0000000000000D+00
439  4.3800000000000D+00  0.0000000000000D+00  0.0000000000000D+00
440  4.3900000000000D+00  0.0000000000000D+00  0.0000000000000D+00
441  4.4000000000000D+00  0.0000000000000D+00  0.0000000000000D+00
442  4.4100000000000D+00  0.0000000000000D+00  0.0000000000000D+00
443  4.4200000000000D+00  0.0000000000000D+00  0.0000000000000D+00