Tm    ONCVPSP-3.3.0  r_core=   1.81224   1.51533   1.66706   1.70731
69.0000     23.0000      180112    zatom,zion,pspd
8 -116133   3     4   600     0    pspcod,pspxc,lmax,lloc,mmax,r2well
5.99000000  0.25000000  0.00000000    rchrg fchrg qchrg
2     2     2     2     0    nproj
1     1           extension_switch
0                         9.9099332110871D+00  9.0718912321481D-01
1  0.0000000000000D+00 -1.1620304718463D-10  4.4598277848529D-10
2  1.0000000000000D-02  5.7843409680116D-02 -2.4159063651232D-02
3  2.0000000000000D-02  1.1557654591326D-01 -4.8129166219924D-02
4  3.0000000000000D-02  1.7308957746916D-01 -7.1722803680866D-02
5  4.0000000000000D-02  2.3027355425473D-01 -9.4755373319446D-02
6  5.0000000000000D-02  2.8702083967211D-01 -1.1704659249066D-01
7  6.0000000000000D-02  3.4322553320664D-01 -1.3842187942043D-01
8  7.0000000000000D-02  3.9878388012573D-01 -1.5871368392348D-01
9  8.0000000000000D-02  4.5359466528539D-01 -1.7776275635820D-01
10  9.0000000000000D-02  5.0755958818463D-01 -1.9541934368880D-01
11  1.0000000000000D-01  5.6058361657720D-01 -2.1154430217569D-01
12  1.1000000000000D-01  6.1257531614355D-01 -2.2601011695902D-01
13  1.2000000000000D-01  6.6344715394227D-01 -2.3870181963278D-01
14  1.3000000000000D-01  7.1311577359740D-01 -2.4951779582029D-01
15  1.4000000000000D-01  7.6150224043332D-01 -2.5837047574789D-01
16  1.5000000000000D-01  8.0853225504165D-01 -2.6518690186524D-01
17  1.6000000000000D-01  8.5413633404996D-01 -2.6990916866680D-01
18  1.7000000000000D-01  8.9824995716013D-01 -2.7249473102231D-01
19  1.8000000000000D-01  9.4081367982988D-01 -2.7291657851250D-01
20  1.9000000000000D-01  9.8177321128334D-01 -2.7116327448134D-01
21  2.0000000000000D-01  1.0210794578514D+00 -2.6723885974541D-01
22  2.1000000000000D-01  1.0586885319582D+00 -2.6116262213450D-01
23  2.2000000000000D-01  1.0945617273811D+00 -2.5296873426521D-01
24  2.3000000000000D-01  1.1286654617212D+00 -2.4270576315762D-01
25  2.4000000000000D-01  1.1609711873155D+00 -2.3043605648538D-01
26  2.5000000000000D-01  1.1914552721111D+00 -2.1623501139063D-01
27  2.6000000000000D-01  1.2200988522937D+00 -2.0019023288501D-01
28  2.7000000000000D-01  1.2468876587155D+00 -1.8240058988791D-01
29  2.8000000000000D-01  1.2718118194075D+00 -1.6297517791321D-01
30  2.9000000000000D-01  1.2948656406696D+00 -1.4203219829574D-01
31  3.0000000000000D-01  1.3160473694258D+00 -1.1969776464076D-01
32  3.1000000000000D-01  1.3353589396926D+00 -9.6104647875787D-02
33  3.2000000000000D-01  1.3528057061439D+00 -7.1390971877341D-02
34  3.3000000000000D-01  1.3683961678629D+00 -4.5698872127698D-02
35  3.4000000000000D-01  1.3821416854443D+00 -1.9173130225385D-02
36  3.5000000000000D-01  1.3940561946529D+00  8.0402026776864D-03
37  3.6000000000000D-01  1.4041559198572D+00  3.5795180314547D-02
38  3.7000000000000D-01  1.4124590904296D+00  6.3947320416378D-02
39  3.8000000000000D-01  1.4189856632513D+00  9.2354935426662D-02
40  3.9000000000000D-01  1.4237570543702D+00  1.2088042199268D-01
41  4.0000000000000D-01  1.4267958827372D+00  1.4939149678717D-01
42  4.1000000000000D-01  1.4281257287943D+00  1.7776236671156D-01
43  4.2000000000000D-01  1.4277709105026D+00  2.0587482215004D-01
44  4.3000000000000D-01  1.4257562791873D+00  2.3361924267489D-01
45  4.4000000000000D-01  1.4221070373356D+00  2.6089550544356D-01
46  4.5000000000000D-01  1.4168485802204D+00  2.8761378746801D-01
47  4.6000000000000D-01  1.4100063629340D+00  3.1369525397135D-01
48  4.7000000000000D-01  1.4016057941113D+00  3.3907262616175D-01
49  4.8000000000000D-01  1.3916721572980D+00  3.6369062294528D-01
50  4.9000000000000D-01  1.3802305605825D+00  3.8750627235003D-01
51  5.0000000000000D-01  1.3673059147635D+00  4.1048908973682D-01
52  5.1000000000000D-01  1.3529229399746D+00  4.3262112121029D-01
53  5.2000000000000D-01  1.3371062003269D+00  4.5389685200950D-01
54  5.3000000000000D-01  1.3198801657823D+00  4.7432298102935D-01
55  5.4000000000000D-01  1.3012693001159D+00  4.9391806399635D-01
56  5.5000000000000D-01  1.2812981734903D+00  5.1271202917518D-01
57  5.6000000000000D-01  1.2599915978335D+00  5.3074557080139D-01
58  5.7000000000000D-01  1.2373747829068D+00  5.4806942671281D-01
59  5.8000000000000D-01  1.2134735106572D+00  5.6474354786314D-01
60  5.9000000000000D-01  1.1883143251858D+00  5.8083616854456D-01
61  6.0000000000000D-01  1.1619247354273D+00  5.9642278719528D-01
62  6.1000000000000D-01  1.1343334274302D+00  6.1158506862621D-01
63  6.2000000000000D-01  1.1055704829571D+00  6.2640967933919D-01
64  6.3000000000000D-01  1.0756676009904D+00  6.4098706833427D-01
65  6.4000000000000D-01  1.0446583186349D+00  6.5541020639254D-01
66  6.5000000000000D-01  1.0125782278525D+00  6.6977329727326D-01
67  6.6000000000000D-01  9.7946518445785D-01  6.8417047457185D-01
68  6.7000000000000D-01  9.4535950583205D-01  6.9869449814030D-01
69  6.8000000000000D-01  9.1030415389139D-01  7.1343546397569D-01
70  6.9000000000000D-01  8.7434489996773D-01  7.2847954132785D-01
71  7.0000000000000D-01  8.3753046842254D-01  7.4390775046947D-01
72  7.1000000000000D-01  7.9991265602394D-01  7.5979479410807D-01
73  7.2000000000000D-01  7.6154642436374D-01  7.7620795480965D-01
74  7.3000000000000D-01  7.2248996288028D-01  7.9320607004252D-01
75  7.4000000000000D-01  6.8280472037501D-01  8.1083859555929D-01
76  7.5000000000000D-01  6.4255540326817D-01  8.2914476681148D-01
77  7.6000000000000D-01  6.0180993922432D-01  8.4815286695349D-01
78  7.7000000000000D-01  5.6063940518975D-01  8.6787960874949D-01
79  7.8000000000000D-01  5.1911791931413D-01  8.8832963636875D-01
80  7.9000000000000D-01  4.7732249667710D-01  9.0949515164349D-01
81  8.0000000000000D-01  4.3533286919560D-01  9.3135566790717D-01
82  8.1000000000000D-01  3.9323127054932D-01  9.5387789302785D-01
83  8.2000000000000D-01  3.5110218742054D-01  9.7701574173368D-01
84  8.3000000000000D-01  3.0903207879586D-01  1.0007104758086D+00
85  8.4000000000000D-01  2.6710906551405D-01  1.0248909692398D+00
86  8.5000000000000D-01  2.2542259266118D-01  1.0494740939446D+00
87  8.6000000000000D-01  1.8406306780352D-01  1.0743652203100D+00
88  8.7000000000000D-01  1.4312147840588D-01  1.0994588254728D+00
89  8.8000000000000D-01  1.0268899210113D-01  1.1246392010600D+00
90  8.9000000000000D-01  6.2856543750193D-02  1.1497812510249D+00
91  9.0000000000000D-01  2.3714413456178D-02  1.1747513692737D+00
92  9.1000000000000D-01 -1.4648200134241D-02  1.1994083859846D+00
93  9.2000000000000D-01 -5.2143606797981D-02  1.2236045709106D+00
94  9.3000000000000D-01 -8.8686047478136D-02  1.2471866815190D+00
95  9.4000000000000D-01 -1.2419210832515D-01  1.2699970435853D+00
96  9.5000000000000D-01 -1.5858112164339D-01  1.2918746518223D+00
97  9.6000000000000D-01 -1.9177554950327D-01  1.3126562782993D+00
98  9.7000000000000D-01 -2.2370134599514D-01  1.3321775767808D+00
99  9.8000000000000D-01 -2.5428829439689D-01  1.3502741717157D+00
100  9.9000000000000D-01 -2.8347031587813D-01  1.3667827213994D+00
101  1.0000000000000D+00 -3.1118574678567D-01  1.3815419458310D+00
102  1.0100000000000D+00 -3.3737758203465D-01  1.3943936109725D+00
103  1.0200000000000D+00 -3.6199368266357D-01  1.4051834624683D+00
104  1.0300000000000D+00 -3.8498694621715D-01  1.4137621034591D+00
105  1.0400000000000D+00 -4.0631543919903D-01  1.4199858126353D+00
106  1.0500000000000D+00 -4.2594249156781D-01  1.4237173006255D+00
107  1.0600000000000D+00 -4.4383675389446D-01  1.4248264045406D+00
108  1.0700000000000D+00 -4.5997221851995D-01  1.4231907224352D+00
109  1.0800000000000D+00 -4.7432820679725D-01  1.4186961914624D+00
110  1.0900000000000D+00 -4.8688932513114D-01  1.4112376151953D+00
111  1.1000000000000D+00 -4.9764539331620D-01  1.4007191477075D+00
112  1.1100000000000D+00 -5.0659134928081D-01  1.3870547436312D+00
113  1.1200000000000D+00 -5.1372713498717D-01  1.3701685851032D+00
114  1.1300000000000D+00 -5.1905756877325D-01  1.3499954978960D+00
115  1.1400000000000D+00 -5.2259220991819D-01  1.3264813702917D+00
116  1.1500000000000D+00 -5.2434522165924D-01  1.2995835893137D+00
117  1.1600000000000D+00 -5.2433523913588D-01  1.2692715094167D+00
118  1.1700000000000D+00 -5.2258524891560D-01  1.2355269689988D+00
119  1.1800000000000D+00 -5.1912248687523D-01  1.1983448701563D+00
120  1.1900000000000D+00 -5.1397836108721D-01  1.1577338363583D+00
121  1.2000000000000D+00 -5.0718840596017D-01  1.1137169611157D+00
122  1.2100000000000D+00 -4.9879227376953D-01  1.0663326601622D+00
123  1.2200000000000D+00 -4.8883376883159D-01  1.0156356363784D+00
124  1.2300000000000D+00 -4.7736092865464D-01  9.6169796349843D-01
125  1.2400000000000D+00 -4.6442615563506D-01  9.0461029194644D-01
126  1.2500000000000D+00 -4.5008640162244D-01  8.4448317581654D-01
127  1.2600000000000D+00 -4.3440340548832D-01  7.8144851262767D-01
128  1.2700000000000D+00 -4.1744398260594D-01  7.1566108336498D-01
129  1.2800000000000D+00 -3.9928036361417D-01  6.4730017511201D-01
130  1.2900000000000D+00 -3.7999057561199D-01  5.7657125453342D-01
131  1.3000000000000D+00 -3.5965885786860D-01  5.0370765696369D-01
132  1.3100000000000D+00 -3.3837610176607D-01  4.2897224795006D-01
133  1.3200000000000D+00 -3.1624029779357D-01  3.5265899135142D-01
134  1.3300000000000D+00 -2.9335697304673D-01  2.7509436018549D-01
135  1.3400000000000D+00 -2.6983959732192D-01  1.9663850870587D-01
136  1.3500000000000D+00 -2.4580992652808D-01  1.1768609338124D-01
137  1.3600000000000D+00 -2.2139825751533D-01  3.8666648127508D-02
138  1.3700000000000D+00 -1.9674355332733D-01 -3.9955630510947D-02
139  1.3800000000000D+00 -1.7199339325288D-01 -1.1768284780059D-01
140  1.3900000000000D+00 -1.4730370772148D-01 -1.9398526574700D-01
141  1.4000000000000D+00 -1.2283822980254D-01 -2.6830428253935D-01
142  1.4100000000000D+00 -9.8767609063150D-02 -3.4005672447472D-01
143  1.4200000000000D+00 -7.5268116565189D-02 -4.0864069415060D-01
144  1.4300000000000D+00 -5.2519849010376D-02 -4.7344328746189D-01
145  1.4400000000000D+00 -3.0704367253522D-02 -5.3385040187417D-01
146  1.4500000000000D+00 -1.0001642978173D-02 -5.8925906156851D-01
147  1.4600000000000D+00  9.4137723796367D-03 -6.3909255185219D-01
148  1.4700000000000D+00  2.7377549242150D-02 -6.8281904625383D-01
149  1.4800000000000D+00  4.3741079061390D-02 -7.1997258672986D-01
150  1.4900000000000D+00  5.8379391459112D-02 -7.5018304007665D-01
151  1.5000000000000D+00  7.1195914213020D-02 -7.7319337791913D-01
152  1.5100000000000D+00  8.2139401132304D-02 -7.8892338107865D-01
153  1.5200000000000D+00  9.1212235237848D-02 -7.9749960172100D-01
154  1.5300000000000D+00  9.8459865840003D-02 -7.9921012870621D-01
155  1.5400000000000D+00  1.0396029887109D-01 -7.9446136684790D-01
156  1.5500000000000D+00  1.0780166195645D-01 -7.8369008551923D-01
157  1.5600000000000D+00  1.1007731447545D-01 -7.6734422705509D-01
158  1.5700000000000D+00  1.1089061929525D-01 -7.4590237305244D-01
159  1.5800000000000D+00  1.1035196009274D-01 -7.1986237313725D-01
160  1.5900000000000D+00  1.0857811740210D-01 -6.8973936524165D-01
161  1.6000000000000D+00  1.0569103032020D-01 -6.5606142906669D-01
162  1.6100000000000D+00  1.0181673974606D-01 -6.1936597422818D-01
163  1.6200000000000D+00  9.7084268456553D-02 -5.8019590174207D-01
164  1.6300000000000D+00  9.1624476439881D-02 -5.3909568425709D-01
165  1.6400000000000D+00  8.5568904976945D-02 -4.9660741375714D-01
166  1.6500000000000D+00  7.9048619798684D-02 -4.5326685162700D-01
167  1.6600000000000D+00  7.2193062118632D-02 -4.0959951053016D-01
168  1.6700000000000D+00  6.5128916663311D-02 -3.6611679888483D-01
169  1.6800000000000D+00  5.7979006424735D-02 -3.2331226057747D-01
170  1.6900000000000D+00  5.0861221951834D-02 -2.8165793629758D-01
171  1.7000000000000D+00  4.3887495341896D-02 -2.4160088060735D-01
172  1.7100000000000D+00  3.7162825153882D-02 -2.0355985579259D-01
173  1.7200000000000D+00  3.0784363362495D-02 -1.6792223997814D-01
174  1.7300000000000D+00  2.4840567505480D-02 -1.3504116003745D-01
175  1.7400000000000D+00  1.9410429589904D-02 -1.0523288813486D-01
176  1.7500000000000D+00  1.4563554257340D-02 -7.8778662517759D-02
177  1.7600000000000D+00  1.0359557709122D-02 -5.5922670708014D-02
178  1.7700000000000D+00  6.8344179928955D-03 -3.6799784015940D-02
179  1.7800000000000D+00  4.0135538984999D-03 -2.1509007201212D-02
180  1.7900000000000D+00  1.9831435274850D-03 -1.0484894458186D-02
181  1.8000000000000D+00  7.7448956236385D-04 -3.8828612878310D-03
182  1.8100000000000D+00  1.9865929191995D-04 -7.5301412276484D-04
183  1.8200000000000D+00  2.3019731969236D-06  2.0064983830293D-04
184  1.8300000000000D+00 -1.1952877736306D-05  1.1802877355523D-04
185  1.8400000000000D+00  1.0256902284719D-05 -8.6058490912765D-05
186  1.8500000000000D+00  9.3780309420524D-06 -7.3014413826946D-05
187  1.8600000000000D+00 -9.6095661286237D-07  9.9580452948186D-06
188  1.8700000000000D+00 -1.6073608810943D-06  1.5372681230864D-05
189  1.8800000000000D+00 -1.0518560861353D-07  3.2069950687087D-07
190  1.8900000000000D+00 -3.7071432880626D-07  1.1302677619611D-06
191  1.9000000000000D+00 -3.9382779585816D-08  1.2007382149378D-07
192  1.9100000000000D+00  0.0000000000000D+00  0.0000000000000D+00
193  1.9200000000000D+00  0.0000000000000D+00  0.0000000000000D+00
194  1.9300000000000D+00  0.0000000000000D+00  0.0000000000000D+00
195  1.9400000000000D+00  0.0000000000000D+00  0.0000000000000D+00
196  1.9500000000000D+00  0.0000000000000D+00  0.0000000000000D+00
197  1.9600000000000D+00  0.0000000000000D+00  0.0000000000000D+00
198  1.9700000000000D+00  0.0000000000000D+00  0.0000000000000D+00
199  1.9800000000000D+00  0.0000000000000D+00  0.0000000000000D+00
200  1.9900000000000D+00  0.0000000000000D+00  0.0000000000000D+00
201  2.0000000000000D+00  0.0000000000000D+00  0.0000000000000D+00
202  2.0100000000000D+00  0.0000000000000D+00  0.0000000000000D+00
203  2.0200000000000D+00  0.0000000000000D+00  0.0000000000000D+00
204  2.0300000000000D+00  0.0000000000000D+00  0.0000000000000D+00
205  2.0400000000000D+00  0.0000000000000D+00  0.0000000000000D+00
206  2.0500000000000D+00  0.0000000000000D+00  0.0000000000000D+00
207  2.0600000000000D+00  0.0000000000000D+00  0.0000000000000D+00
208  2.0700000000000D+00  0.0000000000000D+00  0.0000000000000D+00
209  2.0800000000000D+00  0.0000000000000D+00  0.0000000000000D+00
210  2.0900000000000D+00  0.0000000000000D+00  0.0000000000000D+00
211  2.1000000000000D+00  0.0000000000000D+00  0.0000000000000D+00
212  2.1100000000000D+00  0.0000000000000D+00  0.0000000000000D+00
213  2.1200000000000D+00  0.0000000000000D+00  0.0000000000000D+00
214  2.1300000000000D+00  0.0000000000000D+00  0.0000000000000D+00
215  2.1400000000000D+00  0.0000000000000D+00  0.0000000000000D+00
216  2.1500000000000D+00  0.0000000000000D+00  0.0000000000000D+00
217  2.1600000000000D+00  0.0000000000000D+00  0.0000000000000D+00
218  2.1700000000000D+00  0.0000000000000D+00  0.0000000000000D+00
219  2.1800000000000D+00  0.0000000000000D+00  0.0000000000000D+00
220  2.1900000000000D+00  0.0000000000000D+00  0.0000000000000D+00
221  2.2000000000000D+00  0.0000000000000D+00  0.0000000000000D+00
222  2.2100000000000D+00  0.0000000000000D+00  0.0000000000000D+00
223  2.2200000000000D+00  0.0000000000000D+00  0.0000000000000D+00
224  2.2300000000000D+00  0.0000000000000D+00  0.0000000000000D+00
225  2.2400000000000D+00  0.0000000000000D+00  0.0000000000000D+00
226  2.2500000000000D+00  0.0000000000000D+00  0.0000000000000D+00
227  2.2600000000000D+00  0.0000000000000D+00  0.0000000000000D+00
228  2.2700000000000D+00  0.0000000000000D+00  0.0000000000000D+00
229  2.2800000000000D+00  0.0000000000000D+00  0.0000000000000D+00
230  2.2900000000000D+00  0.0000000000000D+00  0.0000000000000D+00
231  2.3000000000000D+00  0.0000000000000D+00  0.0000000000000D+00
232  2.3100000000000D+00  0.0000000000000D+00  0.0000000000000D+00
233  2.3200000000000D+00  0.0000000000000D+00  0.0000000000000D+00
234  2.3300000000000D+00  0.0000000000000D+00  0.0000000000000D+00
235  2.3400000000000D+00  0.0000000000000D+00  0.0000000000000D+00
236  2.3500000000000D+00  0.0000000000000D+00  0.0000000000000D+00
237  2.3600000000000D+00  0.0000000000000D+00  0.0000000000000D+00
238  2.3700000000000D+00  0.0000000000000D+00  0.0000000000000D+00
239  2.3800000000000D+00  0.0000000000000D+00  0.0000000000000D+00
240  2.3900000000000D+00  0.0000000000000D+00  0.0000000000000D+00
241  2.4000000000000D+00  0.0000000000000D+00  0.0000000000000D+00
242  2.4100000000000D+00  0.0000000000000D+00  0.0000000000000D+00
243  2.4200000000000D+00  0.0000000000000D+00  0.0000000000000D+00
244  2.4300000000000D+00  0.0000000000000D+00  0.0000000000000D+00
245  2.4400000000000D+00  0.0000000000000D+00  0.0000000000000D+00
246  2.4500000000000D+00  0.0000000000000D+00  0.0000000000000D+00
247  2.4600000000000D+00  0.0000000000000D+00  0.0000000000000D+00
248  2.4700000000000D+00  0.0000000000000D+00  0.0000000000000D+00
249  2.4800000000000D+00  0.0000000000000D+00  0.0000000000000D+00
250  2.4900000000000D+00  0.0000000000000D+00  0.0000000000000D+00
251  2.5000000000000D+00  0.0000000000000D+00  0.0000000000000D+00
252  2.5100000000000D+00  0.0000000000000D+00  0.0000000000000D+00
253  2.5200000000000D+00  0.0000000000000D+00  0.0000000000000D+00
254  2.5300000000000D+00  0.0000000000000D+00  0.0000000000000D+00
255  2.5400000000000D+00  0.0000000000000D+00  0.0000000000000D+00
256  2.5500000000000D+00  0.0000000000000D+00  0.0000000000000D+00
257  2.5600000000000D+00  0.0000000000000D+00  0.0000000000000D+00
258  2.5700000000000D+00  0.0000000000000D+00  0.0000000000000D+00
259  2.5800000000000D+00  0.0000000000000D+00  0.0000000000000D+00
260  2.5900000000000D+00  0.0000000000000D+00  0.0000000000000D+00
261  2.6000000000000D+00  0.0000000000000D+00  0.0000000000000D+00
262  2.6100000000000D+00  0.0000000000000D+00  0.0000000000000D+00
263  2.6200000000000D+00  0.0000000000000D+00  0.0000000000000D+00
264  2.6300000000000D+00  0.0000000000000D+00  0.0000000000000D+00
265  2.6400000000000D+00  0.0000000000000D+00  0.0000000000000D+00
266  2.6500000000000D+00  0.0000000000000D+00  0.0000000000000D+00
267  2.6600000000000D+00  0.0000000000000D+00  0.0000000000000D+00
268  2.6700000000000D+00  0.0000000000000D+00  0.0000000000000D+00
269  2.6800000000000D+00  0.0000000000000D+00  0.0000000000000D+00
270  2.6900000000000D+00  0.0000000000000D+00  0.0000000000000D+00
271  2.7000000000000D+00  0.0000000000000D+00  0.0000000000000D+00
272  2.7100000000000D+00  0.0000000000000D+00  0.0000000000000D+00
273  2.7200000000000D+00  0.0000000000000D+00  0.0000000000000D+00
274  2.7300000000000D+00  0.0000000000000D+00  0.0000000000000D+00
275  2.7400000000000D+00  0.0000000000000D+00  0.0000000000000D+00
276  2.7500000000000D+00  0.0000000000000D+00  0.0000000000000D+00
277  2.7600000000000D+00  0.0000000000000D+00  0.0000000000000D+00
278  2.7700000000000D+00  0.0000000000000D+00  0.0000000000000D+00
279  2.7800000000000D+00  0.0000000000000D+00  0.0000000000000D+00
280  2.7900000000000D+00  0.0000000000000D+00  0.0000000000000D+00
281  2.8000000000000D+00  0.0000000000000D+00  0.0000000000000D+00
282  2.8100000000000D+00  0.0000000000000D+00  0.0000000000000D+00
283  2.8200000000000D+00  0.0000000000000D+00  0.0000000000000D+00
284  2.8300000000000D+00  0.0000000000000D+00  0.0000000000000D+00
285  2.8400000000000D+00  0.0000000000000D+00  0.0000000000000D+00
286  2.8500000000000D+00  0.0000000000000D+00  0.0000000000000D+00
287  2.8600000000000D+00  0.0000000000000D+00  0.0000000000000D+00
288  2.8700000000000D+00  0.0000000000000D+00  0.0000000000000D+00
289  2.8800000000000D+00  0.0000000000000D+00  0.0000000000000D+00
290  2.8900000000000D+00  0.0000000000000D+00  0.0000000000000D+00
291  2.9000000000000D+00  0.0000000000000D+00  0.0000000000000D+00
292  2.9100000000000D+00  0.0000000000000D+00  0.0000000000000D+00
293  2.9200000000000D+00  0.0000000000000D+00  0.0000000000000D+00
294  2.9300000000000D+00  0.0000000000000D+00  0.0000000000000D+00
295  2.9400000000000D+00  0.0000000000000D+00  0.0000000000000D+00
296  2.9500000000000D+00  0.0000000000000D+00  0.0000000000000D+00
297  2.9600000000000D+00  0.0000000000000D+00  0.0000000000000D+00
298  2.9700000000000D+00  0.0000000000000D+00  0.0000000000000D+00
299  2.9800000000000D+00  0.0000000000000D+00  0.0000000000000D+00
300  2.9900000000000D+00  0.0000000000000D+00  0.0000000000000D+00
301  3.0000000000000D+00  0.0000000000000D+00  0.0000000000000D+00
302  3.0100000000000D+00  0.0000000000000D+00  0.0000000000000D+00
303  3.0200000000000D+00  0.0000000000000D+00  0.0000000000000D+00
304  3.0300000000000D+00  0.0000000000000D+00  0.0000000000000D+00
305  3.0400000000000D+00  0.0000000000000D+00  0.0000000000000D+00
306  3.0500000000000D+00  0.0000000000000D+00  0.0000000000000D+00
307  3.0600000000000D+00  0.0000000000000D+00  0.0000000000000D+00
308  3.0700000000000D+00  0.0000000000000D+00  0.0000000000000D+00
309  3.0800000000000D+00  0.0000000000000D+00  0.0000000000000D+00
310  3.0900000000000D+00  0.0000000000000D+00  0.0000000000000D+00
311  3.1000000000000D+00  0.0000000000000D+00  0.0000000000000D+00
312  3.1100000000000D+00  0.0000000000000D+00  0.0000000000000D+00
313  3.1200000000000D+00  0.0000000000000D+00  0.0000000000000D+00
314  3.1300000000000D+00  0.0000000000000D+00  0.0000000000000D+00
315  3.1400000000000D+00  0.0000000000000D+00  0.0000000000000D+00
316  3.1500000000000D+00  0.0000000000000D+00  0.0000000000000D+00
317  3.1600000000000D+00  0.0000000000000D+00  0.0000000000000D+00
318  3.1700000000000D+00  0.0000000000000D+00  0.0000000000000D+00
319  3.1800000000000D+00  0.0000000000000D+00  0.0000000000000D+00
320  3.1900000000000D+00  0.0000000000000D+00  0.0000000000000D+00
321  3.2000000000000D+00  0.0000000000000D+00  0.0000000000000D+00
322  3.2100000000000D+00  0.0000000000000D+00  0.0000000000000D+00
323  3.2200000000000D+00  0.0000000000000D+00  0.0000000000000D+00
324  3.2300000000000D+00  0.0000000000000D+00  0.0000000000000D+00
325  3.2400000000000D+00  0.0000000000000D+00  0.0000000000000D+00
326  3.2500000000000D+00  0.0000000000000D+00  0.0000000000000D+00
327  3.2600000000000D+00  0.0000000000000D+00  0.0000000000000D+00
328  3.2700000000000D+00  0.0000000000000D+00  0.0000000000000D+00
329  3.2800000000000D+00  0.0000000000000D+00  0.0000000000000D+00
330  3.2900000000000D+00  0.0000000000000D+00  0.0000000000000D+00
331  3.3000000000000D+00  0.0000000000000D+00  0.0000000000000D+00
332  3.3100000000000D+00  0.0000000000000D+00  0.0000000000000D+00
333  3.3200000000000D+00  0.0000000000000D+00  0.0000000000000D+00
334  3.3300000000000D+00  0.0000000000000D+00  0.0000000000000D+00
335  3.3400000000000D+00  0.0000000000000D+00  0.0000000000000D+00
336  3.3500000000000D+00  0.0000000000000D+00  0.0000000000000D+00
337  3.3600000000000D+00  0.0000000000000D+00  0.0000000000000D+00
338  3.3700000000000D+00  0.0000000000000D+00  0.0000000000000D+00
339  3.3800000000000D+00  0.0000000000000D+00  0.0000000000000D+00
340  3.3900000000000D+00  0.0000000000000D+00  0.0000000000000D+00
341  3.4000000000000D+00  0.0000000000000D+00  0.0000000000000D+00
342  3.4100000000000D+00  0.0000000000000D+00  0.0000000000000D+00
343  3.4200000000000D+00  0.0000000000000D+00  0.0000000000000D+00
344  3.4300000000000D+00  0.0000000000000D+00  0.0000000000000D+00
345  3.4400000000000D+00  0.0000000000000D+00  0.0000000000000D+00
346  3.4500000000000D+00  0.0000000000000D+00  0.0000000000000D+00
347  3.4600000000000D+00  0.0000000000000D+00  0.0000000000000D+00
348  3.4700000000000D+00  0.0000000000000D+00  0.0000000000000D+00
349  3.4800000000000D+00  0.0000000000000D+00  0.0000000000000D+00
350  3.4900000000000D+00  0.0000000000000D+00  0.0000000000000D+00
351  3.5000000000000D+00  0.0000000000000D+00  0.0000000000000D+00
352  3.5100000000000D+00  0.0000000000000D+00  0.0000000000000D+00
353  3.5200000000000D+00  0.0000000000000D+00  0.0000000000000D+00
354  3.5300000000000D+00  0.0000000000000D+00  0.0000000000000D+00
355  3.5400000000000D+00  0.0000000000000D+00  0.0000000000000D+00
356  3.5500000000000D+00  0.0000000000000D+00  0.0000000000000D+00
357  3.5600000000000D+00  0.0000000000000D+00  0.0000000000000D+00
358  3.5700000000000D+00  0.0000000000000D+00  0.0000000000000D+00
359  3.5800000000000D+00  0.0000000000000D+00  0.0000000000000D+00
360  3.5900000000000D+00  0.0000000000000D+00  0.0000000000000D+00
361  3.6000000000000D+00  0.0000000000000D+00  0.0000000000000D+00
362  3.6100000000000D+00  0.0000000000000D+00  0.0000000000000D+00
363  3.6200000000000D+00  0.0000000000000D+00  0.0000000000000D+00
364  3.6300000000000D+00  0.0000000000000D+00  0.0000000000000D+00
365  3.6400000000000D+00  0.0000000000000D+00  0.0000000000000D+00
366  3.6500000000000D+00  0.0000000000000D+00  0.0000000000000D+00
367  3.6600000000000D+00  0.0000000000000D+00  0.0000000000000D+00
368  3.6700000000000D+00  0.0000000000000D+00  0.0000000000000D+00
369  3.6800000000000D+00  0.0000000000000D+00  0.0000000000000D+00
370  3.6900000000000D+00  0.0000000000000D+00  0.0000000000000D+00
371  3.7000000000000D+00  0.0000000000000D+00  0.0000000000000D+00
372  3.7100000000000D+00  0.0000000000000D+00  0.0000000000000D+00
373  3.7200000000000D+00  0.0000000000000D+00  0.0000000000000D+00
374  3.7300000000000D+00  0.0000000000000D+00  0.0000000000000D+00
375  3.7400000000000D+00  0.0000000000000D+00  0.0000000000000D+00
376  3.7500000000000D+00  0.0000000000000D+00  0.0000000000000D+00
377  3.7600000000000D+00  0.0000000000000D+00  0.0000000000000D+00
378  3.7700000000000D+00  0.0000000000000D+00  0.0000000000000D+00
379  3.7800000000000D+00  0.0000000000000D+00  0.0000000000000D+00
380  3.7900000000000D+00  0.0000000000000D+00  0.0000000000000D+00
381  3.8000000000000D+00  0.0000000000000D+00  0.0000000000000D+00
382  3.8100000000000D+00  0.0000000000000D+00  0.0000000000000D+00
383  3.8200000000000D+00  0.0000000000000D+00  0.0000000000000D+00
384  3.8300000000000D+00  0.0000000000000D+00  0.0000000000000D+00
385  3.8400000000000D+00  0.0000000000000D+00  0.0000000000000D+00
386  3.8500000000000D+00  0.0000000000000D+00  0.0000000000000D+00
387  3.8600000000000D+00  0.0000000000000D+00  0.0000000000000D+00
388  3.8700000000000D+00  0.0000000000000D+00  0.0000000000000D+00
389  3.8800000000000D+00  0.0000000000000D+00  0.0000000000000D+00
390  3.8900000000000D+00  0.0000000000000D+00  0.0000000000000D+00
391  3.9000000000000D+00  0.0000000000000D+00  0.0000000000000D+00
392  3.9100000000000D+00  0.0000000000000D+00  0.0000000000000D+00
393  3.9200000000000D+00  0.0000000000000D+00  0.0000000000000D+00
394  3.9300000000000D+00  0.0000000000000D+00  0.0000000000000D+00
395  3.9400000000000D+00  0.0000000000000D+00  0.0000000000000D+00
396  3.9500000000000D+00  0.0000000000000D+00  0.0000000000000D+00
397  3.9600000000000D+00  0.0000000000000D+00  0.0000000000000D+00
398  3.9700000000000D+00  0.0000000000000D+00  0.0000000000000D+00
399  3.9800000000000D+00  0.0000000000000D+00  0.0000000000000D+00
400  3.9900000000000D+00  0.0000000000000D+00  0.0000000000000D+00
401  4.0000000000000D+00  0.0000000000000D+00  0.0000000000000D+00
402  4.0100000000000D+00  0.0000000000000D+00  0.0000000000000D+00
403  4.0200000000000D+00  0.0000000000000D+00  0.0000000000000D+00
404  4.0300000000000D+00  0.0000000000000D+00  0.0000000000000D+00
405  4.0400000000000D+00  0.0000000000000D+00  0.0000000000000D+00
406  4.0500000000000D+00  0.0000000000000D+00  0.0000000000000D+00
407  4.0600000000000D+00  0.0000000000000D+00  0.0000000000000D+00
408  4.0700000000000D+00  0.0000000000000D+00  0.0000000000000D+00
409  4.0800000000000D+00  0.0000000000000D+00  0.0000000000000D+00
410  4.0900000000000D+00  0.0000000000000D+00  0.0000000000000D+00
411  4.1000000000000D+00  0.0000000000000D+00  0.0000000000000D+00
412  4.1100000000000D+00  0.0000000000000D+00  0.0000000000000D+00
413  4.1200000000000D+00  0.0000000000000D+00  0.0000000000000D+00
414  4.1300000000000D+00  0.0000000000000D+00  0.0000000000000D+00
415  4.1400000000000D+00  0.0000000000000D+00  0.0000000000000D+00
416  4.1500000000000D+00  0.0000000000000D+00  0.0000000000000D+00
417  4.1600000000000D+00  0.0000000000000D+00  0.0000000000000D+00
418  4.1700000000000D+00  0.0000000000000D+00  0.0000000000000D+00
419  4.1800000000000D+00  0.0000000000000D+00  0.0000000000000D+00
420  4.1900000000000D+00  0.0000000000000D+00  0.0000000000000D+00
421  4.2000000000000D+00  0.0000000000000D+00  0.0000000000000D+00
422  4.2100000000000D+00  0.0000000000000D+00  0.0000000000000D+00
423  4.2200000000000D+00  0.0000000000000D+00  0.0000000000000D+00
424  4.2300000000000D+00  0.0000000000000D+00  0.0000000000000D+00
425  4.2400000000000D+00  0.0000000000000D+00  0.0000000000000D+00
426  4.2500000000000D+00  0.0000000000000D+00  0.0000000000000D+00
427  4.2600000000000D+00  0.0000000000000D+00  0.0000000000000D+00
428  4.2700000000000D+00  0.0000000000000D+00  0.0000000000000D+00
429  4.2800000000000D+00  0.0000000000000D+00  0.0000000000000D+00
430  4.2900000000000D+00  0.0000000000000D+00  0.0000000000000D+00
431  4.3000000000000D+00  0.0000000000000D+00  0.0000000000000D+00
432  4.3100000000000D+00  0.0000000000000D+00  0.0000000000000D+00
433  4.3200000000000D+00  0.0000000000000D+00  0.0000000000000D+00
434  4.3300000000000D+00  0.0000000000000D+00  0.0000000000000D+00
435  4.3400000000000D+00  0.0000000000000D+00  0.0000000000000D+00
436  4.3500000000000D+00  0.0000000000000D+00  0.0000000000000D+00
437  4.3600000000000D+00  0.0000000000000D+00  0.0000000000000D+00
438  4.3700000000000D+00  0.0000000000000D+00  0.0000000000000D+00
439  4.3800000000000D+00  0.0000000000000D+00  0.0000000000000D+00
440  4.3900000000000D+00  0.0000000000000D+00  0.0000000000000D+00
441  4.4000000000000D+00  0.0000000000000D+00  0.0000000000000D+00
442  4.4100000000000D+00  0.0000000000000D+00  0.0000000000000D+00
443  4.4200000000000D+00  0.0000000000000D+00  0.0000000000000D+00