Ag    ONCVPSP  r_core=  1.41  1.47  1.61
47.0000     19.0000      141211    zatom,zion,pspd
8    11     2     4   601     0    pspcod,pspxc,lmax,lloc,mmax,r2well
6.00000000  0.04000000  0.00000000    rchrg fchrg qchrg
2     2     2     0     0    nproj
0                 extension_switch
0                         9.5512775685856D+00 -3.3814451762381D-01
1  0.0000000000000D+00 -0.0000000000000D+00  0.0000000000000D+00
2  1.0000000000000D-02 -7.8691084856833D-02  7.3312128036044D-02
3  2.0000000000000D-02 -1.5719520824749D-01  1.4603476616629D-01
4  3.0000000000000D-02 -2.3532598493454D-01  2.1758467139962D-01
5  4.0000000000000D-02 -3.1289817982310D-01  2.8739101034841D-01
6  5.0000000000000D-02 -3.8972827726150D-01  3.5490135471288D-01
7  6.0000000000000D-02 -4.6563504346324D-01  4.1958742905594D-01
8  7.0000000000000D-02 -5.4044007983357D-01  4.8095053402735D-01
9  8.0000000000000D-02 -6.1396836504674D-01  5.3852657298838D-01
10  9.0000000000000D-02 -6.8604878380710D-01  5.9189061592744D-01
11  1.0000000000000D-01 -7.5651464029451D-01  6.4066094118490D-01
12  1.1000000000000D-01 -8.2520415443814D-01  6.8450250357218D-01
13  1.2000000000000D-01 -8.9196093923686D-01  7.2312978559200D-01
14  1.3000000000000D-01 -9.5663445752075D-01  7.5630899792087D-01
15  1.4000000000000D-01 -1.0190804565493D+00  7.8385960423618D-01
16  1.5000000000000D-01 -1.0791613792762D+00  8.0565515687003D-01
17  1.6000000000000D-01 -1.1367467507589D+00  8.2162343776864D-01
18  1.7000000000000D-01 -1.1917135390486D+00  8.3174591184795D-01
19  1.8000000000000D-01 -1.2439464891258D+00  8.3605650757446D-01
20  1.9000000000000D-01 -1.2933384294545D+00  8.3463975180485D-01
21  2.0000000000000D-01 -1.3397905506161D+00  8.2762829267843D-01
22  2.1000000000000D-01 -1.3832126548006D+00  8.1519985761504D-01
23  2.2000000000000D-01 -1.4235233771297D+00  7.9757369240393D-01
24  2.3000000000000D-01 -1.4606503766802D+00  7.7500655295106D-01
25  2.4000000000000D-01 -1.4945304994088D+00  7.4778829707874D-01
26  2.5000000000000D-01 -1.5251099105677D+00  7.1623717027013D-01
27  2.6000000000000D-01 -1.5523441985469D+00  6.8069484405298D-01
28  2.7000000000000D-01 -1.5761984491272D+00  6.4152130287217D-01
29  2.8000000000000D-01 -1.5966472920860D+00  5.9908961934316D-01
30  2.9000000000000D-01 -1.6136749177177D+00  5.5378077051380D-01
31  3.0000000000000D-01 -1.6272750663816D+00  5.0597850870028D-01
32  3.1000000000000D-01 -1.6374509899304D+00  4.5606441910782D-01
33  3.2000000000000D-01 -1.6442153867799D+00  4.0441315303413D-01
34  3.3000000000000D-01 -1.6475903091328D+00  3.5138802979849D-01
35  3.4000000000000D-01 -1.6476070451303D+00  2.9733706666179D-01
36  3.5000000000000D-01 -1.6443059746643D+00  2.4258919669681D-01
37  3.6000000000000D-01 -1.6377364019354D+00  1.8745137561053D-01
38  3.7000000000000D-01 -1.6279563601412D+00  1.3220576058080D-01
39  3.8000000000000D-01 -1.6150323959656D+00  7.7107828625688D-02
40  3.9000000000000D-01 -1.5990393294941D+00  2.2384908197042D-02
41  4.0000000000000D-01 -1.5800599912189D+00 -3.1764670321644D-02
42  4.1000000000000D-01 -1.5581849340148D+00 -8.5171840854393D-02
43  4.2000000000000D-01 -1.5335121290182D+00 -1.3769636261863D-01
44  4.3000000000000D-01 -1.5061466364224D+00 -1.8922588081166D-01
45  4.4000000000000D-01 -1.4762002565729D+00 -2.3967440084971D-01
46  4.5000000000000D-01 -1.4437911610603D+00 -2.8898023620988D-01
47  4.6000000000000D-01 -1.4090435093905D+00 -3.3710347654930D-01
48  4.7000000000000D-01 -1.3720870315527D+00 -3.8402304736555D-01
49  4.8000000000000D-01 -1.3330566074472D+00 -4.2973335596320D-01
50  4.9000000000000D-01 -1.2920918249603D+00 -4.7424067120770D-01
51  5.0000000000000D-01 -1.2493365314555D+00 -5.1755932464253D-01
52  5.1000000000000D-01 -1.2049383462975D+00 -5.5970769882604D-01
53  5.2000000000000D-01 -1.1590481492287D+00 -6.0070403901843D-01
54  5.3000000000000D-01 -1.1118196424949D+00 -6.4056271968316D-01
55  5.4000000000000D-01 -1.0634087605351D+00 -6.7928996765490D-01
56  5.5000000000000D-01 -1.0139731785045D+00 -7.1688025936263D-01
57  5.6000000000000D-01 -9.6367180561661D-01 -7.5331300891414D-01
58  5.7000000000000D-01 -9.1266414526256D-01 -7.8854890385647D-01
59  5.8000000000000D-01 -8.6110987780361D-01 -8.2252787890926D-01
60  5.9000000000000D-01 -8.0916816174597D-01 -8.5516610964897D-01
61  6.0000000000000D-01 -7.5699717620885D-01 -8.8635479952393D-01
62  6.1000000000000D-01 -7.0475355851652D-01 -9.1595899178411D-01
63  6.2000000000000D-01 -6.5259170575733D-01 -9.4381645272067D-01
64  6.3000000000000D-01 -6.0066348546728D-01 -9.6973883623512D-01
65  6.4000000000000D-01 -5.4911740510059D-01 -9.9351141719780D-01
66  6.5000000000000D-01 -4.9809819873455D-01 -1.0148950694938D+00
67  6.6000000000000D-01 -4.4774640456805D-01 -1.0336285438904D+00
68  6.7000000000000D-01 -3.9819769084905D-01 -1.0494308667088D+00
69  6.8000000000000D-01 -3.4958234342339D-01 -1.0620048772291D+00
70  6.9000000000000D-01 -3.0202493170208D-01 -1.0710413463044D+00
71  7.0000000000000D-01 -2.5564383490185D-01 -1.0762233091520D+00
72  7.1000000000000D-01 -2.1055076863990D-01 -1.0772310199916D+00
73  7.2000000000000D-01 -1.6685027601041D-01 -1.0737476704602D+00
74  7.3000000000000D-01 -1.2463955539757D-01 -1.0654647651478D+00
75  7.4000000000000D-01 -8.4008059299965D-02 -1.0520881116512D+00
76  7.5000000000000D-01 -4.5037199675100D-02 -1.0333438753260D+00
77  7.6000000000000D-01 -7.8000930801029D-03 -1.0089846741472D+00
78  7.7000000000000D-01  2.7638611911092D-02 -9.7879532363571D-01
79  7.8000000000000D-01  6.1223007928574D-02 -9.4259936499604D-01
80  7.9000000000000D-01  9.2905994106727D-02 -9.0026438355550D-01
81  8.0000000000000D-01  1.2264931938181D-01 -8.5170692594510D-01
82  8.1000000000000D-01  1.5042363893260D-01 -7.9689739843717D-01
83  8.2000000000000D-01  1.7620849583748D-01 -7.3586422674871D-01
84  8.3000000000000D-01  1.9999225401839D-01 -6.6869735721690D-01
85  8.4000000000000D-01  2.2177198251744D-01 -5.9555101921419D-01
86  8.5000000000000D-01  2.4155329153327D-01 -5.1664567817487D-01
87  8.6000000000000D-01  2.5935012103608D-01 -4.3226911937436D-01
88  8.7000000000000D-01  2.7518448318027D-01 -3.4277661452698D-01
89  8.8000000000000D-01  2.8908616014175D-01 -2.4859013625066D-01
90  8.9000000000000D-01  3.0109235942100D-01 -1.5019659938212D-01
91  9.0000000000000D-01  3.1124732907182D-01 -4.8145122911879D-02
92  9.1000000000000D-01  3.1960193573583D-01  5.6956678188712D-02
93  9.2000000000000D-01  3.2621320954335D-01  1.6444740246679D-01
94  9.3000000000000D-01  3.3114387493858D-01  2.7361720469317D-01
95  9.4000000000000D-01  3.3446181392514D-01  3.8371405837257D-01
96  9.5000000000000D-01  3.3623952740030D-01  4.9395155358339D-01
97  9.6000000000000D-01  3.3655358562594D-01  6.0351657182173D-01
98  9.7000000000000D-01  3.3548405939829D-01  7.1157783391501D-01
99  9.8000000000000D-01  3.3311394316568D-01  8.1729494282692D-01
100  9.9000000000000D-01  3.2952857552125D-01  9.1982779418302D-01
101  1.0000000000000D+00  3.2481510518927D-01  1.0183456403216D+00
102  1.0100000000000D+00  3.1906200691449D-01  1.1120355019269D+00
103  1.0200000000000D+00  3.1235803842783D-01  1.2001187505136D+00
104  1.0300000000000D+00  3.0479215883907D-01  1.2818546213451D+00
105  1.0400000000000D+00  2.9645286522792D-01  1.3565513610207D+00
106  1.0500000000000D+00  2.8742769766936D-01  1.4235750936816D+00
107  1.0600000000000D+00  2.7780313138234D-01  1.4823525990826D+00
108  1.0700000000000D+00  2.6766320655083D-01  1.5323933598252D+00
109  1.0800000000000D+00  2.5708961383188D-01  1.5732892530910D+00
110  1.0900000000000D+00  2.4616151219178D-01  1.6047176270593D+00
111  1.1000000000000D+00  2.3495521555004D-01  1.6264461508057D+00
112  1.1100000000000D+00  2.2354411543443D-01  1.6383339576580D+00
113  1.1200000000000D+00  2.1199686417069D-01  1.6403585386503D+00
114  1.1300000000000D+00  2.0037894668031D-01  1.6325900490451D+00
115  1.1400000000000D+00  1.8875218275985D-01  1.6151974036365D+00
116  1.1500000000000D+00  1.7717479665634D-01  1.5884461453892D+00
117  1.1600000000000D+00  1.6569951537138D-01  1.5527209484576D+00
118  1.1700000000000D+00  1.5437575820075D-01  1.5084908091326D+00
119  1.1800000000000D+00  1.4324950126009D-01  1.4563093949631D+00
120  1.1900000000000D+00  1.3236202147268D-01  1.3968259676687D+00
121  1.2000000000000D+00  1.2175035339435D-01  1.3307699689579D+00
122  1.2100000000000D+00  1.1144854000178D-01  1.2589332535023D+00
123  1.2200000000000D+00  1.0148743967521D-01  1.1821709674773D+00
124  1.2300000000000D+00  9.1893190744509D-02  1.1013951173203D+00
125  1.2400000000000D+00  8.2689761597664D-02  1.0175502440709D+00
126  1.2500000000000D+00  7.3898960805889D-02  9.3161903261044D-01
127  1.2600000000000D+00  6.5538507294091D-02  8.4459308529337D-01
128  1.2700000000000D+00  5.7624799848894D-02  7.5746736862225D-01
129  1.2800000000000D+00  5.0172689227205D-02  6.7125156718121D-01
130  1.2900000000000D+00  4.3194329280881D-02  5.8690484150618D-01
131  1.3000000000000D+00  3.6701252892144D-02  5.0536673963486D-01
132  1.3100000000000D+00  3.0703935767265D-02  4.2756222035415D-01
133  1.3200000000000D+00  2.5211725808449D-02  3.5430962037393D-01
134  1.3300000000000D+00  2.0233815693243D-02  2.8639979804424D-01
135  1.3400000000000D+00  1.5778927632932D-02  2.2455716758695D-01
136  1.3500000000000D+00  1.1855924924282D-02  1.6937500506164D-01
137  1.3600000000000D+00  8.4736337339682D-03  1.2142193779940D-01
138  1.3700000000000D+00  5.6413205122519D-03  8.1121161245237D-02
139  1.3800000000000D+00  3.3687648222638D-03  4.8795415030058D-02
140  1.3900000000000D+00  1.6658481572155D-03  2.4727469616033D-02
141  1.4000000000000D+00  5.6666604599961D-04  9.3317648540122D-03
142  1.4100000000000D+00  5.6140778403743D-05  2.2773986029759D-03
143  1.4200000000000D+00 -7.5379353567248D-05 -1.0662878980821D-04
144  1.4300000000000D+00 -8.2414697557018D-06 -5.5019572241829D-05
145  1.4400000000000D+00  1.9480548285995D-06 -6.4624177360800D-05
146  1.4500000000000D+00  0.0000000000000D+00  0.0000000000000D+00
147  1.4600000000000D+00  0.0000000000000D+00  0.0000000000000D+00
148  1.4700000000000D+00  0.0000000000000D+00  0.0000000000000D+00
149  1.4800000000000D+00  0.0000000000000D+00  0.0000000000000D+00
150  1.4900000000000D+00  0.0000000000000D+00  0.0000000000000D+00
151  1.5000000000000D+00  0.0000000000000D+00  0.0000000000000D+00
152  1.5100000000000D+00  0.0000000000000D+00  0.0000000000000D+00
153  1.5200000000000D+00  0.0000000000000D+00  0.0000000000000D+00
154  1.5300000000000D+00  0.0000000000000D+00  0.0000000000000D+00
155  1.5400000000000D+00  0.0000000000000D+00  0.0000000000000D+00
156  1.5500000000000D+00  0.0000000000000D+00  0.0000000000000D+00
157  1.5600000000000D+00  0.0000000000000D+00  0.0000000000000D+00
158  1.5700000000000D+00  0.0000000000000D+00  0.0000000000000D+00
159  1.5800000000000D+00  0.0000000000000D+00  0.0000000000000D+00
160  1.5900000000000D+00  0.0000000000000D+00  0.0000000000000D+00
161  1.6000000000000D+00  0.0000000000000D+00  0.0000000000000D+00
162  1.6100000000000D+00  0.0000000000000D+00  0.0000000000000D+00
163  1.6200000000000D+00  0.0000000000000D+00  0.0000000000000D+00
164  1.6300000000000D+00  0.0000000000000D+00  0.0000000000000D+00
165  1.6400000000000D+00  0.0000000000000D+00  0.0000000000000D+00
166  1.6500000000000D+00  0.0000000000000D+00  0.0000000000000D+00
167  1.6600000000000D+00  0.0000000000000D+00  0.0000000000000D+00
168  1.6700000000000D+00  0.0000000000000D+00  0.0000000000000D+00
169  1.6800000000000D+00  0.0000000000000D+00  0.0000000000000D+00
170  1.6900000000000D+00  0.0000000000000D+00  0.0000000000000D+00
171  1.7000000000000D+00  0.0000000000000D+00  0.0000000000000D+00
172  1.7100000000000D+00  0.0000000000000D+00  0.0000000000000D+00
173  1.7200000000000D+00  0.0000000000000D+00  0.0000000000000D+00
174  1.7300000000000D+00  0.0000000000000D+00  0.0000000000000D+00
175  1.7400000000000D+00  0.0000000000000D+00  0.0000000000000D+00
176  1.7500000000000D+00  0.0000000000000D+00  0.0000000000000D+00
177  1.7600000000000D+00  0.0000000000000D+00  0.0000000000000D+00
178  1.7700000000000D+00  0.0000000000000D+00  0.0000000000000D+00
179  1.7800000000000D+00  0.0000000000000D+00  0.0000000000000D+00
180  1.7900000000000D+00  0.0000000000000D+00  0.0000000000000D+00
181  1.8000000000000D+00  0.0000000000000D+00  0.0000000000000D+00
182  1.8100000000000D+00  0.0000000000000D+00  0.0000000000000D+00
183  1.8200000000000D+00  0.0000000000000D+00  0.0000000000000D+00
184  1.8300000000000D+00  0.0000000000000D+00  0.0000000000000D+00
185  1.8400000000000D+00  0.0000000000000D+00  0.0000000000000D+00
186  1.8500000000000D+00  0.0000000000000D+00  0.0000000000000D+00
187  1.8600000000000D+00  0.0000000000000D+00  0.0000000000000D+00
188  1.8700000000000D+00  0.0000000000000D+00  0.0000000000000D+00
189  1.8800000000000D+00  0.0000000000000D+00  0.0000000000000D+00
190  1.8900000000000D+00  0.0000000000000D+00  0.0000000000000D+00
191  1.9000000000000D+00  0.0000000000000D+00  0.0000000000000D+00
192  1.9100000000000D+00  0.0000000000000D+00  0.0000000000000D+00
193  1.9200000000000D+00  0.0000000000000D+00  0.0000000000000D+00
194  1.9300000000000D+00  0.0000000000000D+00  0.0000000000000D+00
195  1.9400000000000D+00  0.0000000000000D+00  0.0000000000000D+00
196  1.9500000000000D+00  0.0000000000000D+00  0.0000000000000D+00
197  1.9600000000000D+00  0.0000000000000D+00  0.0000000000000D+00
198  1.9700000000000D+00  0.0000000000000D+00  0.0000000000000D+00
199  1.9800000000000D+00  0.0000000000000D+00  0.0000000000000D+00
200  1.9900000000000D+00  0.0000000000000D+00  0.0000000000000D+00
201  2.0000000000000D+00  0.0000000000000D+00  0.0000000000000D+00
202  2.0100000000000D+00  0.0000000000000D+00  0.0000000000000D+00
203  2.0200000000000D+00  0.0000000000000D+00  0.0000000000000D+00
204  2.0300000000000D+00  0.0000000000000D+00  0.0000000000000D+00
205  2.0400000000000D+00  0.0000000000000D+00  0.0000000000000D+00
206  2.0500000000000D+00  0.0000000000000D+00  0.0000000000000D+00
207  2.0600000000000D+00  0.0000000000000D+00  0.0000000000000D+00
208  2.0700000000000D+00  0.0000000000000D+00  0.0000000000000D+00
209  2.0800000000000D+00  0.0000000000000D+00  0.0000000000000D+00
210  2.0900000000000D+00  0.0000000000000D+00  0.0000000000000D+00
211  2.1000000000000D+00  0.0000000000000D+00  0.0000000000000D+00
212  2.1100000000000D+00  0.0000000000000D+00  0.0000000000000D+00
213  2.1200000000000D+00  0.0000000000000D+00  0.0000000000000D+00
214  2.1300000000000D+00  0.0000000000000D+00  0.0000000000000D+00
215  2.1400000000000D+00  0.0000000000000D+00  0.0000000000000D+00
216  2.1500000000000D+00  0.0000000000000D+00  0.0000000000000D+00
217  2.1600000000000D+00  0.0000000000000D+00  0.0000000000000D+00
218  2.1700000000000D+00  0.0000000000000D+00  0.0000000000000D+00
219  2.1800000000000D+00  0.0000000000000D+00  0.0000000000000D+00
220  2.1900000000000D+00  0.0000000000000D+00  0.0000000000000D+00
221  2.2000000000000D+00  0.0000000000000D+00  0.0000000000000D+00
222  2.2100000000000D+00  0.0000000000000D+00  0.0000000000000D+00
223  2.2200000000000D+00  0.0000000000000D+00  0.0000000000000D+00
224  2.2300000000000D+00  0.0000000000000D+00  0.0000000000000D+00
225  2.2400000000000D+00  0.0000000000000D+00  0.0000000000000D+00
226  2.2500000000000D+00  0.0000000000000D+00  0.0000000000000D+00
227  2.2600000000000D+00  0.0000000000000D+00  0.0000000000000D+00
228  2.2700000000000D+00  0.0000000000000D+00  0.0000000000000D+00
229  2.2800000000000D+00  0.0000000000000D+00  0.0000000000000D+00
230  2.2900000000000D+00  0.0000000000000D+00  0.0000000000000D+00
231  2.3000000000000D+00  0.0000000000000D+00  0.0000000000000D+00
232  2.3100000000000D+00  0.0000000000000D+00  0.0000000000000D+00
233  2.3200000000000D+00  0.0000000000000D+00  0.0000000000000D+00
234  2.3300000000000D+00  0.0000000000000D+00  0.0000000000000D+00
235  2.3400000000000D+00  0.0000000000000D+00  0.0000000000000D+00
236  2.3500000000000D+00  0.0000000000000D+00  0.0000000000000D+00
237  2.3600000000000D+00  0.0000000000000D+00  0.0000000000000D+00
238  2.3700000000000D+00  0.0000000000000D+00  0.0000000000000D+00
239  2.3800000000000D+00  0.0000000000000D+00  0.0000000000000D+00
240  2.3900000000000D+00  0.0000000000000D+00  0.0000000000000D+00
241  2.4000000000000D+00  0.0000000000000D+00  0.0000000000000D+00
242  2.4100000000000D+00  0.0000000000000D+00  0.0000000000000D+00
243  2.4200000000000D+00  0.0000000000000D+00  0.0000000000000D+00
244  2.4300000000000D+00  0.0000000000000D+00  0.0000000000000D+00
245  2.4400000000000D+00  0.0000000000000D+00  0.0000000000000D+00
246  2.4500000000000D+00  0.0000000000000D+00  0.0000000000000D+00
247  2.4600000000000D+00  0.0000000000000D+00  0.0000000000000D+00
248  2.4700000000000D+00  0.0000000000000D+00  0.0000000000000D+00
249  2.4800000000000D+00  0.0000000000000D+00  0.0000000000000D+00
250  2.4900000000000D+00  0.0000000000000D+00  0.0000000000000D+00
251  2.5000000000000D+00  0.0000000000000D+00  0.0000000000000D+00
252  2.5100000000000D+00  0.0000000000000D+00  0.0000000000000D+00
253  2.5200000000000D+00  0.0000000000000D+00  0.0000000000000D+00
254  2.5300000000000D+00  0.0000000000000D+00  0.0000000000000D+00
255  2.5400000000000D+00  0.0000000000000D+00  0.0000000000000D+00
256  2.5500000000000D+00  0.0000000000000D+00  0.0000000000000D+00
257  2.5600000000000D+00  0.0000000000000D+00  0.0000000000000D+00
258  2.5700000000000D+00  0.0000000000000D+00  0.0000000000000D+00
259  2.5800000000000D+00  0.0000000000000D+00  0.0000000000000D+00
260  2.5900000000000D+00  0.0000000000000D+00  0.0000000000000D+00
261  2.6000000000000D+00  0.0000000000000D+00  0.0000000000000D+00
262  2.6100000000000D+00  0.0000000000000D+00  0.0000000000000D+00
263  2.6200000000000D+00  0.0000000000000D+00  0.0000000000000D+00
264  2.6300000000000D+00  0.0000000000000D+00  0.0000000000000D+00
265  2.6400000000000D+00  0.0000000000000D+00  0.0000000000000D+00
266  2.6500000000000D+00  0.0000000000000D+00  0.0000000000000D+00
267  2.6600000000000D+00  0.0000000000000D+00  0.0000000000000D+00
268  2.6700000000000D+00  0.0000000000000D+00  0.0000000000000D+00
269  2.6800000000000D+00  0.0000000000000D+00  0.0000000000000D+00
270  2.6900000000000D+00  0.0000000000000D+00  0.0000000000000D+00
271  2.7000000000000D+00  0.0000000000000D+00  0.0000000000000D+00
272  2.7100000000000D+00  0.0000000000000D+00  0.0000000000000D+00
273  2.7200000000000D+00  0.0000000000000D+00  0.0000000000000D+00
274  2.7300000000000D+00  0.0000000000000D+00  0.0000000000000D+00
275  2.7400000000000D+00  0.0000000000000D+00  0.0000000000000D+00
276  2.7500000000000D+00  0.0000000000000D+00  0.0000000000000D+00
277  2.7600000000000D+00  0.0000000000000D+00  0.0000000000000D+00
278  2.7700000000000D+00  0.0000000000000D+00  0.0000000000000D+00
279  2.7800000000000D+00  0.0000000000000D+00  0.0000000000000D+00
280  2.7900000000000D+00  0.0000000000000D+00  0.0000000000000D+00
281  2.8000000000000D+00  0.0000000000000D+00  0.0000000000000D+00
282  2.8100000000000D+00  0.0000000000000D+00  0.0000000000000D+00
283  2.8200000000000D+00  0.0000000000000D+00  0.0000000000000D+00
284  2.8300000000000D+00  0.0000000000000D+00  0.0000000000000D+00
285  2.8400000000000D+00  0.0000000000000D+00  0.0000000000000D+00
286  2.8500000000000D+00  0.0000000000000D+00  0.0000000000000D+00
287  2.8600000000000D+00  0.0000000000000D+00  0.0000000000000D+00
288  2.8700000000000D+00  0.0000000000000D+00  0.0000000000000D+00
289  2.8800000000000D+00  0.0000000000000D+00  0.0000000000000D+00
290  2.8900000000000D+00  0.0000000000000D+00  0.0000000000000D+00
291  2.9000000000000D+00  0.0000000000000D+00  0.0000000000000D+00
292  2.9100000000000D+00  0.0000000000000D+00  0.0000000000000D+00
293  2.9200000000000D+00  0.0000000000000D+00  0.0000000000000D+00
294  2.9300000000000D+00  0.0000000000000D+00  0.0000000000000D+00
295  2.9400000000000D+00  0.0000000000000D+00  0.0000000000000D+00
296  2.9500000000000D+00  0.0000000000000D+00  0.0000000000000D+00
297  2.9600000000000D+00  0.0000000000000D+00  0.0000000000000D+00
298  2.9700000000000D+00  0.0000000000000D+00  0.0000000000000D+00
299  2.9800000000000D+00  0.0000000000000D+00  0.0000000000000D+00
300  2.9900000000000D+00  0.0000000000000D+00  0.0000000000000D+00
301  3.0000000000000D+00  0.0000000000000D+00  0.0000000000000D+00
302  3.0100000000000D+00  0.0000000000000D+00  0.0000000000000D+00
303  3.0200000000000D+00  0.0000000000000D+00  0.0000000000000D+00
304  3.0300000000000D+00  0.0000000000000D+00  0.0000000000000D+00
305  3.0400000000000D+00  0.0000000000000D+00  0.0000000000000D+00
306  3.0500000000000D+00  0.0000000000000D+00  0.0000000000000D+00
307  3.0600000000000D+00  0.0000000000000D+00  0.0000000000000D+00
308  3.0700000000000D+00  0.0000000000000D+00  0.0000000000000D+00
309  3.0800000000000D+00  0.0000000000000D+00  0.0000000000000D+00
310  3.0900000000000D+00  0.0000000000000D+00  0.0000000000000D+00
311  3.1000000000000D+00  0.0000000000000D+00  0.0000000000000D+00
312  3.1100000000000D+00  0.0000000000000D+00  0.0000000000000D+00
313  3.1200000000000D+00  0.0000000000000D+00  0.0000000000000D+00
314  3.1300000000000D+00  0.0000000000000D+00  0.0000000000000D+00
315  3.1400000000000D+00  0.0000000000000D+00  0.0000000000000D+00
316  3.1500000000000D+00  0.0000000000000D+00  0.0000000000000D+00
317  3.1600000000000D+00  0.0000000000000D+00  0.0000000000000D+00
318  3.1700000000000D+00  0.0000000000000D+00  0.0000000000000D+00
319  3.1800000000000D+00  0.0000000000000D+00  0.0000000000000D+00
320  3.1900000000000D+00  0.0000000000000D+00  0.0000000000000D+00
321  3.2000000000000D+00  0.0000000000000D+00  0.0000000000000D+00
322  3.2100000000000D+00  0.0000000000000D+00  0.0000000000000D+00
323  3.2200000000000D+00  0.0000000000000D+00  0.0000000000000D+00
324  3.2300000000000D+00  0.0000000000000D+00  0.0000000000000D+00
325  3.2400000000000D+00  0.0000000000000D+00  0.0000000000000D+00
326  3.2500000000000D+00  0.0000000000000D+00  0.0000000000000D+00
327  3.2600000000000D+00  0.0000000000000D+00  0.0000000000000D+00
328  3.2700000000000D+00  0.0000000000000D+00  0.0000000000000D+00
329  3.2800000000000D+00  0.0000000000000D+00  0.0000000000000D+00
330  3.2900000000000D+00  0.0000000000000D+00  0.0000000000000D+00
331  3.3000000000000D+00  0.0000000000000D+00  0.0000000000000D+00
332  3.3100000000000D+00  0.0000000000000D+00  0.0000000000000D+00
333  3.3200000000000D+00  0.0000000000000D+00  0.0000000000000D+00
334  3.3300000000000D+00  0.0000000000000D+00  0.0000000000000D+00
335  3.3400000000000D+00  0.0000000000000D+00  0.0000000000000D+00
336  3.3500000000000D+00  0.0000000000000D+00  0.0000000000000D+00
337  3.3600000000000D+00  0.0000000000000D+00  0.0000000000000D+00
338  3.3700000000000D+00  0.0000000000000D+00  0.0000000000000D+00
339  3.3800000000000D+00  0.0000000000000D+00  0.0000000000000D+00
340  3.3900000000000D+00  0.0000000000000D+00  0.0000000000000D+00
341  3.4000000000000D+00  0.0000000000000D+00  0.0000000000000D+00
342  3.4100000000000D+00  0.0000000000000D+00  0.0000000000000D+00
343  3.4200000000000D+00  0.0000000000000D+00  0.0000000000000D+00
344  3.4300000000000D+00  0.0000000000000D+00  0.0000000000000D+00
345  3.4400000000000D+00  0.0000000000000D+00  0.0000000000000D+00
346  3.4500000000000D+00  0.0000000000000D+00  0.0000000000000D+00
347  3.4600000000000D+00  0.0000000000000D+00  0.0000000000000D+00
348  3.4700000000000D+00  0.0000000000000D+00  0.0000000000000D+00
349  3.4800000000000D+00  0.0000000000000D+00  0.0000000000000D+00
350  3.4900000000000D+00  0.0000000000000D+00  0.0000000000000D+00
351  3.5000000000000D+00  0.0000000000000D+00  0.0000000000000D+00
352  3.5100000000000D+00  0.0000000000000D+00  0.0000000000000D+00
353  3.5200000000000D+00  0.0000000000000D+00  0.0000000000000D+00
354  3.5300000000000D+00  0.0000000000000D+00  0.0000000000000D+00
355  3.5400000000000D+00  0.0000000000000D+00  0.0000000000000D+00
356  3.5500000000000D+00  0.0000000000000D+00  0.0000000000000D+00
357  3.5600000000000D+00  0.0000000000000D+00  0.0000000000000D+00
358  3.5700000000000D+00  0.0000000000000D+00  0.0000000000000D+00
359  3.5800000000000D+00  0.0000000000000D+00  0.0000000000000D+00
360  3.5900000000000D+00  0.0000000000000D+00  0.0000000000000D+00
361  3.6000000000000D+00  0.0000000000000D+00  0.0000000000000D+00
362  3.6100000000000D+00  0.0000000000000D+00  0.0000000000000D+00
363  3.6200000000000D+00  0.0000000000000D+00  0.0000000000000D+00
364  3.6300000000000D+00  0.0000000000000D+00  0.0000000000000D+00
365  3.6400000000000D+00  0.0000000000000D+00  0.0000000000000D+00
366  3.6500000000000D+00  0.0000000000000D+00  0.0000000000000D+00
367  3.6600000000000D+00  0.0000000000000D+00  0.0000000000000D+00
368  3.6700000000000D+00  0.0000000000000D+00  0.0000000000000D+00
369  3.6800000000000D+00  0.0000000000000D+00  0.0000000000000D+00
370  3.6900000000000D+00  0.0000000000000D+00  0.0000000000000D+00
371  3.7000000000000D+00  0.0000000000000D+00  0.0000000000000D+00
372  3.7100000000000D+00  0.0000000000000D+00  0.0000000000000D+00
373  3.7200000000000D+00  0.0000000000000D+00  0.0000000000000D+00
374  3.7300000000000D+00  0.0000000000000D+00  0.0000000000000D+00
375  3.7400000000000D+00  0.0000000000000D+00  0.0000000000000D+00
376  3.7500000000000D+00  0.0000000000000D+00  0.0000000000000D+00
377  3.7600000000000D+00  0.0000000000000D+00  0.0000000000000D+00
378  3.7700000000000D+00  0.0000000000000D+00  0.0000000000000D+00
379  3.7800000000000D+00  0.0000000000000D+00  0.0000000000000D+00
380  3.7900000000000D+00  0.0000000000000D+00  0.0000000000000D+00
381  3.8000000000000D+00  0.0000000000000D+00  0.0000000000000D+00
382  3.8100000000000D+00  0.0000000000000D+00  0.0000000000000D+00
383  3.8200000000000D+00  0.0000000000000D+00  0.0000000000000D+00
384  3.8300000000000D+00  0.0000000000000D+00  0.0000000000000D+00
385  3.8400000000000D+00  0.0000000000000D+00  0.0000000000000D+00
386  3.8500000000000D+00  0.0000000000000D+00  0.0000000000000D+00
387  3.8600000000000D+00  0.0000000000000D+00  0.0000000000000D+00
388  3.8700000000000D+00  0.0000000000000D+00  0.0000000000000D+00
389  3.8800000000000D+00  0.0000000000000D+00  0.0000000000000D+00
390  3.8900000000000D+00  0.0000000000000D+00  0.0000000000000D+00
391  3.9000000000000D+00  0.0000000000000D+00  0.0000000000000D+00
392  3.9100000000000D+00  0.0000000000000D+00  0.0000000000000D+00
393  3.9200000000000D+00  0.0000000000000D+00  0.0000000000000D+00
394  3.9300000000000D+00  0.0000000000000D+00  0.0000000000000D+00
395  3.9400000000000D+00  0.0000000000000D+00  0.0000000000000D+00
396  3.9500000000000D+00  0.0000000000000D+00  0.0000000000000D+00
397  3.9600000000000D+00  0.0000000000000D+00  0.0000000000000D+00
398  3.9700000000000D+00  0.0000000000000D+00  0.0000000000000D+00
399  3.9800000000000D+00  0.0000000000000D+00  0.0000000000000D+00
400  3.9900000000000D+00  0.0000000000000D+00  0.0000000000000D+00
401  4.0000000000000D+00  0.0000000000000D+00  0.0000000000000D+00
402  4.0100000000000D+00  0.0000000000000D+00  0.0000000000000D+00
403  4.0200000000000D+00  0.0000000000000D+00  0.0000000000000D+00
404  4.0300000000000D+00  0.0000000000000D+00  0.0000000000000D+00
405  4.0400000000000D+00  0.0000000000000D+00  0.0000000000000D+00
406  4.0500000000000D+00  0.0000000000000D+00  0.0000000000000D+00
407  4.0600000000000D+00  0.0000000000000D+00  0.0000000000000D+00
408  4.0700000000000D+00  0.0000000000000D+00  0.0000000000000D+00
409  4.0800000000000D+00  0.0000000000000D+00  0.0000000000000D+00
410  4.0900000000000D+00  0.0000000000000D+00  0.0000000000000D+00
411  4.1000000000000D+00  0.0000000000000D+00  0.0000000000000D+00
412  4.1100000000000D+00  0.0000000000000D+00  0.0000000000000D+00
413  4.1200000000000D+00  0.0000000000000D+00  0.0000000000000D+00
414  4.1300000000000D+00  0.0000000000000D+00  0.0000000000000D+00
415  4.1400000000000D+00  0.0000000000000D+00  0.0000000000000D+00
416  4.1500000000000D+00  0.0000000000000D+00  0.0000000000000D+00
417  4.1600000000000D+00  0.0000000000000D+00  0.0000000000000D+00
418  4.1700000000000D+00  0.0000000000000D+00  0.0000000000000D+00
419  4.1800000000000D+00  0.0000000000000D+00  0.0000000000000D+00
420  4.1900000000000D+00  0.0000000000000D+00  0.0000000000000D+00
421  4.2000000000000D+00  0.0000000000000D+00  0.0000000000000D+00
422  4.2100000000000D+00  0.0000000000000D+00  0.0000000000000D+00
423  4.2200000000000D+00  0.0000000000000D+00  0.0000000000000D+00
424  4.2300000000000D+00  0.0000000000000D+00  0.0000000000000D+00
425  4.2400000000000D+00  0.0000000000000D+00  0.0000000000000D+00
426  4.2500000000000D+00  0.0000000000000D+00  0.0000000000000D+00
427  4.2600000000000D+00  0.0000000000000D+00  0.0000000000000D+00
428  4.2700000000000D+00  0.0000000000000D+00  0.0000000000000D+00
429  4.2800000000000D+00  0.0000000000000D+00  0.0000000000000D+00
430  4.2900000000000D+00  0.0000000000000D+00  0.0000000000000D+00
431  4.3000000000000D+00  0.0000000000000D+00  0.0000000000000D+00
432  4.3100000000000D+00  0.0000000000000D+00  0.0000000000000D+00
433  4.3200000000000D+00  0.0000000000000D+00  0.0000000000000D+00
434  4.3300000000000D+00  0.0000000000000D+00  0.0000000000000D+00
435  4.3400000000000D+00  0.0000000000000D+00  0.0000000000000D+00
436  4.3500000000000D+00  0.0000000000000D+00  0.0000000000000D+00
437  4.3600000000000D+00  0.0000000000000D+00  0.0000000000000D+00
438  4.3700000000000D+00  0.0000000000000D+00  0.0000000000000D+00
439  4.3800000000000D+00  0.0000000000000D+00  0.0000000000000D+00
440  4.3900000000000D+00  0.0000000000000D+00  0.0000000000000D+00
441  4.4000000000000D+00  0.0000000000000D+00  0.0000000000000D+00
442  4.4100000000000D+00  0.0000000000000D+00  0.0000000000000D+00
443  4.4200000000000D+00  0.0000000000000D+00  0.0000000000000D+00
444  4.4300000000000D+00  0.0000000000000D+00  0.0000000000000D+00