Ag    ONCVPSP  r_core=  1.30  1.36  1.47
47.0000     19.0000      140817    zatom,zion,pspd
8    11     2     4   601     0    pspcod,pspxc,lmax,lloc,mmax,r2well
6.00000000  0.30000000  0.00000000    rchrg fchrg qchrg
2     2     2     0     0    nproj
0                 extension_switch
0                         1.8977149719456D+01  1.9544283100671D+00
1  0.0000000000000D+00 -0.0000000000000D+00  0.0000000000000D+00
2  1.0000000000000D-02 -8.3334860640933D-02  2.3241307080604D-02
3  2.0000000000000D-02 -1.6650681035188D-01  4.6438872928048D-02
4  3.0000000000000D-02 -2.4935264704610D-01  6.9547298192261D-02
5  4.0000000000000D-02 -3.3170859751035D-01  9.2517898231843D-02
6  5.0000000000000D-02 -4.1341005965196D-01  1.1529713741698D-01
7  6.0000000000000D-02 -4.9429137767921D-01  1.3782515463444D-01
8  7.0000000000000D-02 -5.7418566046690D-01  1.6003440851576D-01
9  8.0000000000000D-02 -6.5292465274716D-01  1.8184846932746D-01
10  9.0000000000000D-02 -7.3033866801327D-01  2.0318098249926D-01
11  1.0000000000000D-01 -8.0625659114590D-01  2.2393482652896D-01
12  1.1000000000000D-01 -8.8050595776145D-01  2.4400148532125D-01
13  1.2000000000000D-01 -9.5291311617668D-01  2.6326065221348D-01
14  1.3000000000000D-01 -1.0233034766861D+00  2.8158007974672D-01
15  1.4000000000000D-01 -1.0915018514974D+00  2.9881568595373D-01
16  1.5000000000000D-01 -1.1573328874727D+00  3.1481192430433D-01
17  1.6000000000000D-01 -1.2206215921021D+00  3.2940242084281D-01
18  1.7000000000000D-01 -1.2811939522790D+00  3.4241087852898D-01
19  1.8000000000000D-01 -1.3388776431027D+00  3.5365224436468D-01
20  1.9000000000000D-01 -1.3935028232857D+00  3.6293413160220D-01
21  2.0000000000000D-01 -1.4449030124359D+00  3.7005848631956D-01
22  2.1000000000000D-01 -1.4929160420687D+00  3.7482348043242D-01
23  2.2000000000000D-01 -1.5373850756224D+00  3.7702561782163D-01
24  2.3000000000000D-01 -1.5781596832748D+00  3.7646202234888D-01
25  2.4000000000000D-01 -1.6150969682582D+00  3.7293289572716D-01
26  2.5000000000000D-01 -1.6480627254053D+00  3.6624410205967D-01
27  2.6000000000000D-01 -1.6769326255964D+00  3.5620985996526D-01
28  2.7000000000000D-01 -1.7015934077820D+00  3.4265549893882D-01
29  2.8000000000000D-01 -1.7219440756538D+00  3.2542026888250D-01
30  2.9000000000000D-01 -1.7378970658692D+00  3.0436012593836D-01
31  3.0000000000000D-01 -1.7493793909653D+00  2.7935049613485D-01
32  3.1000000000000D-01 -1.7563337284728D+00  2.5028894889858D-01
33  3.2000000000000D-01 -1.7587194623183D+00  2.1709779097409D-01
34  3.3000000000000D-01 -1.7565136324941D+00  1.7972647585125D-01
35  3.4000000000000D-01 -1.7497117816077D+00  1.3815379592155D-01
36  3.5000000000000D-01 -1.7383287527457D+00  9.2389987802627D-02
37  3.6000000000000D-01 -1.7223992768472D+00  4.2478357726728D-02
38  3.7000000000000D-01 -1.7019785339802D+00 -1.1503127168675D-02
39  3.8000000000000D-01 -1.6771424883177D+00 -6.9440772463366D-02
40  3.9000000000000D-01 -1.6479881121504D+00 -1.3118433452640D-01
41  4.0000000000000D-01 -1.6146334470526D+00 -1.9654657077146D-01
42  4.1000000000000D-01 -1.5772175031684D+00 -2.6530315860024D-01
43  4.2000000000000D-01 -1.5358999661363D+00 -3.3719306753410D-01
44  4.3000000000000D-01 -1.4908607470981D+00 -4.1191928971231D-01
45  4.4000000000000D-01 -1.4422993504954D+00 -4.8914999634857D-01
46  4.5000000000000D-01 -1.3904340650252D+00 -5.6852010715711D-01
47  4.6000000000000D-01 -1.3355009847190D+00 -6.4963326187590D-01
48  4.7000000000000D-01 -1.2777528516806D+00 -7.3206419332058D-01
49  4.8000000000000D-01 -1.2174577339545D+00 -8.1536150202405D-01
50  4.9000000000000D-01 -1.1548975520198D+00 -8.9905077941558D-01
51  5.0000000000000D-01 -1.0903664826057D+00 -9.8263802447301D-01
52  5.1000000000000D-01 -1.0241691883406D+00 -1.0656134437721D+00
53  5.2000000000000D-01 -9.5661887659906D-01 -1.1474556412648D+00
54  5.3000000000000D-01 -8.8803547976288D-01 -1.2276355879300D+00
55  5.4000000000000D-01 -8.1874340291364D-01 -1.3056214791056D+00
56  5.5000000000000D-01 -7.4906945811497D-01 -1.3808832353508D+00
57  5.6000000000000D-01 -6.7934077600642D-01 -1.4528970344850D+00
58  5.7000000000000D-01 -6.0988227482332D-01 -1.5211507666455D+00
59  5.8000000000000D-01 -5.4101485076940D-01 -1.5851479587543D+00
60  5.9000000000000D-01 -4.7305267949596D-01 -1.6444135415172D+00
61  6.0000000000000D-01 -4.0630135046818D-01 -1.6984978312089D+00
62  6.1000000000000D-01 -3.4105571052590D-01 -1.7469810831769D+00
63  6.2000000000000D-01 -2.7759730343588D-01 -1.7894788469012D+00
64  6.3000000000000D-01 -2.1619329686672D-01 -1.8256441382764D+00
65  6.4000000000000D-01 -1.5709363657548D-01 -1.8551732713367D+00
66  6.5000000000000D-01 -1.0052974380529D-01 -1.8778083777380D+00
67  6.6000000000000D-01 -4.6713276548241D-02 -1.8933397363100D+00
68  6.7000000000000D-01  4.1658410697001D-03 -1.9016095290529D+00
69  6.8000000000000D-01  5.1940699020440D-02 -1.9025140596366D+00
70  6.9000000000000D-01  9.6467981855888D-02 -1.8960044608878D+00
71  7.0000000000000D-01  1.3762889675722D-01 -1.8820880265556D+00
72  7.1000000000000D-01  1.7532994957241D-01 -1.8608291111982D+00
73  7.2000000000000D-01  2.0950364196321D-01 -1.8323497075903D+00
74  7.3000000000000D-01  2.4010807575110D-01 -1.7968278141524D+00
75  7.4000000000000D-01  2.6712710198956D-01 -1.7544967344359D+00
76  7.5000000000000D-01  2.9057002978380D-01 -1.7056434002445D+00
77  7.6000000000000D-01  3.1047110466518D-01 -1.6506061343129D+00
78  7.7000000000000D-01  3.2688869478419D-01 -1.5897717907547D+00
79  7.8000000000000D-01  3.3990452302660D-01 -1.5235727305774D+00
80  7.9000000000000D-01  3.4962235615947D-01 -1.4524827956392D+00
81  8.0000000000000D-01  3.5616659775256D-01 -1.3770130474606D+00
82  8.1000000000000D-01  3.5968079705725D-01 -1.2977072014730D+00
83  8.2000000000000D-01  3.6032594571928D-01 -1.2151366318940D+00
84  8.3000000000000D-01  3.5827863035420D-01 -1.1298950675988D+00
85  8.4000000000000D-01  3.5372906117486D-01 -1.0425930349106D+00
86  8.5000000000000D-01  3.4687899825489D-01 -9.5385210667122D-01
87  8.6000000000000D-01  3.3793959817880D-01 -8.6429901976719D-01
88  8.7000000000000D-01  3.2712920475938D-01 -7.7455972545323D-01
89  8.8000000000000D-01  3.1467110818946D-01 -6.8525343831102D-01
90  8.9000000000000D-01  3.0079129742579D-01 -5.9698675046306D-01
91  9.0000000000000D-01  2.8571623076017D-01 -5.1034787768300D-01
92  9.1000000000000D-01  2.6967064939431D-01 -4.2590110323072D-01
93  9.2000000000000D-01  2.5287554864357D-01 -3.4418176061365D-01
94  9.3000000000000D-01  2.3554622505364D-01 -2.6569145266311D-01
95  9.4000000000000D-01  2.1788968767366D-01 -1.9089144286988D-01
96  9.5000000000000D-01  2.0010357585210D-01 -1.2020066906879D-01
97  9.6000000000000D-01  1.8237429470303D-01 -5.3991331212902D-02
98  9.7000000000000D-01  1.6487554837379D-01  7.4142758556524D-03
99  9.8000000000000D-01  1.4776706018975D-01  6.3746363073989D-02
100  9.9000000000000D-01  1.3119349204714D-01  1.1478965327535D-01
101  1.0000000000000D+00  1.1528378433897D-01  1.6038421766577D-01
102  1.0100000000000D+00  1.0015071754241D-01  2.0042575647578D-01
103  1.0200000000000D+00  8.5888315516721D-02  2.3487128154731D-01
104  1.0300000000000D+00  7.2574090261921D-02  2.6373208504348D-01
105  1.0400000000000D+00  6.0268238798980D-02  2.8707476864400D-01
106  1.0500000000000D+00  4.9013862487094D-02  3.0501950770739D-01
107  1.0600000000000D+00  3.8838228540479D-02  3.1773596098017D-01
108  1.0700000000000D+00  2.9750775941855D-02  3.2544639480286D-01
109  1.0800000000000D+00  2.1745789633655D-02  3.2841764986074D-01
110  1.0900000000000D+00  1.4803643779122D-02  3.2695688635720D-01
111  1.1000000000000D+00  8.8916957090541D-03  3.2140809439010D-01
112  1.1100000000000D+00  3.9654148865296D-03  3.1214840934074D-01
113  1.1200000000000D+00 -3.1760180468322D-05  2.9958431636817D-01
114  1.1300000000000D+00 -3.1645142149151D-03  2.8414298519706D-01
115  1.1400000000000D+00 -5.5050465657799D-03  2.6626910645466D-01
116  1.1500000000000D+00 -7.1319859686745D-03  2.4642159092537D-01
117  1.1600000000000D+00 -8.1284312984502D-03  2.2506253770748D-01
118  1.1700000000000D+00 -8.5798131327943D-03  2.0265547901663D-01
119  1.1800000000000D+00 -8.5734123064930D-03  1.7966341108111D-01
120  1.1900000000000D+00 -8.1961589931916D-03  1.5653830825705D-01
121  1.2000000000000D+00 -7.5322889718233D-03  1.3371405566190D-01
122  1.2100000000000D+00 -6.6637233530063D-03  1.1161058348698D-01
123  1.2200000000000D+00 -5.6695019968652D-03  9.0631471191170D-02
124  1.2300000000000D+00 -4.6201887220733D-03  7.1140045313628D-02
125  1.2400000000000D+00 -3.5816294324834D-03  5.3478235117499D-02
126  1.2500000000000D+00 -2.6157295794462D-03  3.7969677218714D-02
127  1.2600000000000D+00 -1.7722118003689D-03  2.4883619093434D-02
128  1.2700000000000D+00 -1.0908293102493D-03  1.4449985809666D-02
129  1.2800000000000D+00 -6.0454071097060D-04  6.8704766463624D-03
130  1.2900000000000D+00 -3.3295221702655D-04  2.4135392903097D-03
131  1.3000000000000D+00 -2.1985883413663D-04  6.1193629900152D-04
132  1.3100000000000D+00 -7.1671023112798D-05  1.2926574606066D-05
133  1.3200000000000D+00  1.2006273666307D-05 -3.1263870312341D-05
134  1.3300000000000D+00  4.6404963434811D-06 -1.2083672245005D-05
135  1.3400000000000D+00  0.0000000000000D+00  0.0000000000000D+00
136  1.3500000000000D+00  0.0000000000000D+00  0.0000000000000D+00
137  1.3600000000000D+00  0.0000000000000D+00  0.0000000000000D+00
138  1.3700000000000D+00  0.0000000000000D+00  0.0000000000000D+00
139  1.3800000000000D+00  0.0000000000000D+00  0.0000000000000D+00
140  1.3900000000000D+00  0.0000000000000D+00  0.0000000000000D+00
141  1.4000000000000D+00  0.0000000000000D+00  0.0000000000000D+00
142  1.4100000000000D+00  0.0000000000000D+00  0.0000000000000D+00
143  1.4200000000000D+00  0.0000000000000D+00  0.0000000000000D+00
144  1.4300000000000D+00  0.0000000000000D+00  0.0000000000000D+00
145  1.4400000000000D+00  0.0000000000000D+00  0.0000000000000D+00
146  1.4500000000000D+00  0.0000000000000D+00  0.0000000000000D+00
147  1.4600000000000D+00  0.0000000000000D+00  0.0000000000000D+00
148  1.4700000000000D+00  0.0000000000000D+00  0.0000000000000D+00
149  1.4800000000000D+00  0.0000000000000D+00  0.0000000000000D+00
150  1.4900000000000D+00  0.0000000000000D+00  0.0000000000000D+00
151  1.5000000000000D+00  0.0000000000000D+00  0.0000000000000D+00
152  1.5100000000000D+00  0.0000000000000D+00  0.0000000000000D+00
153  1.5200000000000D+00  0.0000000000000D+00  0.0000000000000D+00
154  1.5300000000000D+00  0.0000000000000D+00  0.0000000000000D+00
155  1.5400000000000D+00  0.0000000000000D+00  0.0000000000000D+00
156  1.5500000000000D+00  0.0000000000000D+00  0.0000000000000D+00
157  1.5600000000000D+00  0.0000000000000D+00  0.0000000000000D+00
158  1.5700000000000D+00  0.0000000000000D+00  0.0000000000000D+00
159  1.5800000000000D+00  0.0000000000000D+00  0.0000000000000D+00
160  1.5900000000000D+00  0.0000000000000D+00  0.0000000000000D+00
161  1.6000000000000D+00  0.0000000000000D+00  0.0000000000000D+00
162  1.6100000000000D+00  0.0000000000000D+00  0.0000000000000D+00
163  1.6200000000000D+00  0.0000000000000D+00  0.0000000000000D+00
164  1.6300000000000D+00  0.0000000000000D+00  0.0000000000000D+00
165  1.6400000000000D+00  0.0000000000000D+00  0.0000000000000D+00
166  1.6500000000000D+00  0.0000000000000D+00  0.0000000000000D+00
167  1.6600000000000D+00  0.0000000000000D+00  0.0000000000000D+00
168  1.6700000000000D+00  0.0000000000000D+00  0.0000000000000D+00
169  1.6800000000000D+00  0.0000000000000D+00  0.0000000000000D+00
170  1.6900000000000D+00  0.0000000000000D+00  0.0000000000000D+00
171  1.7000000000000D+00  0.0000000000000D+00  0.0000000000000D+00
172  1.7100000000000D+00  0.0000000000000D+00  0.0000000000000D+00
173  1.7200000000000D+00  0.0000000000000D+00  0.0000000000000D+00
174  1.7300000000000D+00  0.0000000000000D+00  0.0000000000000D+00
175  1.7400000000000D+00  0.0000000000000D+00  0.0000000000000D+00
176  1.7500000000000D+00  0.0000000000000D+00  0.0000000000000D+00
177  1.7600000000000D+00  0.0000000000000D+00  0.0000000000000D+00
178  1.7700000000000D+00  0.0000000000000D+00  0.0000000000000D+00
179  1.7800000000000D+00  0.0000000000000D+00  0.0000000000000D+00
180  1.7900000000000D+00  0.0000000000000D+00  0.0000000000000D+00
181  1.8000000000000D+00  0.0000000000000D+00  0.0000000000000D+00
182  1.8100000000000D+00  0.0000000000000D+00  0.0000000000000D+00
183  1.8200000000000D+00  0.0000000000000D+00  0.0000000000000D+00
184  1.8300000000000D+00  0.0000000000000D+00  0.0000000000000D+00
185  1.8400000000000D+00  0.0000000000000D+00  0.0000000000000D+00
186  1.8500000000000D+00  0.0000000000000D+00  0.0000000000000D+00
187  1.8600000000000D+00  0.0000000000000D+00  0.0000000000000D+00
188  1.8700000000000D+00  0.0000000000000D+00  0.0000000000000D+00
189  1.8800000000000D+00  0.0000000000000D+00  0.0000000000000D+00
190  1.8900000000000D+00  0.0000000000000D+00  0.0000000000000D+00
191  1.9000000000000D+00  0.0000000000000D+00  0.0000000000000D+00
192  1.9100000000000D+00  0.0000000000000D+00  0.0000000000000D+00
193  1.9200000000000D+00  0.0000000000000D+00  0.0000000000000D+00
194  1.9300000000000D+00  0.0000000000000D+00  0.0000000000000D+00
195  1.9400000000000D+00  0.0000000000000D+00  0.0000000000000D+00
196  1.9500000000000D+00  0.0000000000000D+00  0.0000000000000D+00
197  1.9600000000000D+00  0.0000000000000D+00  0.0000000000000D+00
198  1.9700000000000D+00  0.0000000000000D+00  0.0000000000000D+00
199  1.9800000000000D+00  0.0000000000000D+00  0.0000000000000D+00
200  1.9900000000000D+00  0.0000000000000D+00  0.0000000000000D+00
201  2.0000000000000D+00  0.0000000000000D+00  0.0000000000000D+00
202  2.0100000000000D+00  0.0000000000000D+00  0.0000000000000D+00
203  2.0200000000000D+00  0.0000000000000D+00  0.0000000000000D+00
204  2.0300000000000D+00  0.0000000000000D+00  0.0000000000000D+00
205  2.0400000000000D+00  0.0000000000000D+00  0.0000000000000D+00
206  2.0500000000000D+00  0.0000000000000D+00  0.0000000000000D+00
207  2.0600000000000D+00  0.0000000000000D+00  0.0000000000000D+00
208  2.0700000000000D+00  0.0000000000000D+00  0.0000000000000D+00
209  2.0800000000000D+00  0.0000000000000D+00  0.0000000000000D+00
210  2.0900000000000D+00  0.0000000000000D+00  0.0000000000000D+00
211  2.1000000000000D+00  0.0000000000000D+00  0.0000000000000D+00
212  2.1100000000000D+00  0.0000000000000D+00  0.0000000000000D+00
213  2.1200000000000D+00  0.0000000000000D+00  0.0000000000000D+00
214  2.1300000000000D+00  0.0000000000000D+00  0.0000000000000D+00
215  2.1400000000000D+00  0.0000000000000D+00  0.0000000000000D+00
216  2.1500000000000D+00  0.0000000000000D+00  0.0000000000000D+00
217  2.1600000000000D+00  0.0000000000000D+00  0.0000000000000D+00
218  2.1700000000000D+00  0.0000000000000D+00  0.0000000000000D+00
219  2.1800000000000D+00  0.0000000000000D+00  0.0000000000000D+00
220  2.1900000000000D+00  0.0000000000000D+00  0.0000000000000D+00
221  2.2000000000000D+00  0.0000000000000D+00  0.0000000000000D+00
222  2.2100000000000D+00  0.0000000000000D+00  0.0000000000000D+00
223  2.2200000000000D+00  0.0000000000000D+00  0.0000000000000D+00
224  2.2300000000000D+00  0.0000000000000D+00  0.0000000000000D+00
225  2.2400000000000D+00  0.0000000000000D+00  0.0000000000000D+00
226  2.2500000000000D+00  0.0000000000000D+00  0.0000000000000D+00
227  2.2600000000000D+00  0.0000000000000D+00  0.0000000000000D+00
228  2.2700000000000D+00  0.0000000000000D+00  0.0000000000000D+00
229  2.2800000000000D+00  0.0000000000000D+00  0.0000000000000D+00
230  2.2900000000000D+00  0.0000000000000D+00  0.0000000000000D+00
231  2.3000000000000D+00  0.0000000000000D+00  0.0000000000000D+00
232  2.3100000000000D+00  0.0000000000000D+00  0.0000000000000D+00
233  2.3200000000000D+00  0.0000000000000D+00  0.0000000000000D+00
234  2.3300000000000D+00  0.0000000000000D+00  0.0000000000000D+00
235  2.3400000000000D+00  0.0000000000000D+00  0.0000000000000D+00
236  2.3500000000000D+00  0.0000000000000D+00  0.0000000000000D+00
237  2.3600000000000D+00  0.0000000000000D+00  0.0000000000000D+00
238  2.3700000000000D+00  0.0000000000000D+00  0.0000000000000D+00
239  2.3800000000000D+00  0.0000000000000D+00  0.0000000000000D+00
240  2.3900000000000D+00  0.0000000000000D+00  0.0000000000000D+00
241  2.4000000000000D+00  0.0000000000000D+00  0.0000000000000D+00
242  2.4100000000000D+00  0.0000000000000D+00  0.0000000000000D+00
243  2.4200000000000D+00  0.0000000000000D+00  0.0000000000000D+00
244  2.4300000000000D+00  0.0000000000000D+00  0.0000000000000D+00
245  2.4400000000000D+00  0.0000000000000D+00  0.0000000000000D+00
246  2.4500000000000D+00  0.0000000000000D+00  0.0000000000000D+00
247  2.4600000000000D+00  0.0000000000000D+00  0.0000000000000D+00
248  2.4700000000000D+00  0.0000000000000D+00  0.0000000000000D+00
249  2.4800000000000D+00  0.0000000000000D+00  0.0000000000000D+00
250  2.4900000000000D+00  0.0000000000000D+00  0.0000000000000D+00
251  2.5000000000000D+00  0.0000000000000D+00  0.0000000000000D+00
252  2.5100000000000D+00  0.0000000000000D+00  0.0000000000000D+00
253  2.5200000000000D+00  0.0000000000000D+00  0.0000000000000D+00
254  2.5300000000000D+00  0.0000000000000D+00  0.0000000000000D+00
255  2.5400000000000D+00  0.0000000000000D+00  0.0000000000000D+00
256  2.5500000000000D+00  0.0000000000000D+00  0.0000000000000D+00
257  2.5600000000000D+00  0.0000000000000D+00  0.0000000000000D+00
258  2.5700000000000D+00  0.0000000000000D+00  0.0000000000000D+00
259  2.5800000000000D+00  0.0000000000000D+00  0.0000000000000D+00
260  2.5900000000000D+00  0.0000000000000D+00  0.0000000000000D+00
261  2.6000000000000D+00  0.0000000000000D+00  0.0000000000000D+00
262  2.6100000000000D+00  0.0000000000000D+00  0.0000000000000D+00
263  2.6200000000000D+00  0.0000000000000D+00  0.0000000000000D+00
264  2.6300000000000D+00  0.0000000000000D+00  0.0000000000000D+00
265  2.6400000000000D+00  0.0000000000000D+00  0.0000000000000D+00
266  2.6500000000000D+00  0.0000000000000D+00  0.0000000000000D+00
267  2.6600000000000D+00  0.0000000000000D+00  0.0000000000000D+00
268  2.6700000000000D+00  0.0000000000000D+00  0.0000000000000D+00
269  2.6800000000000D+00  0.0000000000000D+00  0.0000000000000D+00
270  2.6900000000000D+00  0.0000000000000D+00  0.0000000000000D+00
271  2.7000000000000D+00  0.0000000000000D+00  0.0000000000000D+00
272  2.7100000000000D+00  0.0000000000000D+00  0.0000000000000D+00
273  2.7200000000000D+00  0.0000000000000D+00  0.0000000000000D+00
274  2.7300000000000D+00  0.0000000000000D+00  0.0000000000000D+00
275  2.7400000000000D+00  0.0000000000000D+00  0.0000000000000D+00
276  2.7500000000000D+00  0.0000000000000D+00  0.0000000000000D+00
277  2.7600000000000D+00  0.0000000000000D+00  0.0000000000000D+00
278  2.7700000000000D+00  0.0000000000000D+00  0.0000000000000D+00
279  2.7800000000000D+00  0.0000000000000D+00  0.0000000000000D+00
280  2.7900000000000D+00  0.0000000000000D+00  0.0000000000000D+00
281  2.8000000000000D+00  0.0000000000000D+00  0.0000000000000D+00
282  2.8100000000000D+00  0.0000000000000D+00  0.0000000000000D+00
283  2.8200000000000D+00  0.0000000000000D+00  0.0000000000000D+00
284  2.8300000000000D+00  0.0000000000000D+00  0.0000000000000D+00
285  2.8400000000000D+00  0.0000000000000D+00  0.0000000000000D+00
286  2.8500000000000D+00  0.0000000000000D+00  0.0000000000000D+00
287  2.8600000000000D+00  0.0000000000000D+00  0.0000000000000D+00
288  2.8700000000000D+00  0.0000000000000D+00  0.0000000000000D+00
289  2.8800000000000D+00  0.0000000000000D+00  0.0000000000000D+00
290  2.8900000000000D+00  0.0000000000000D+00  0.0000000000000D+00
291  2.9000000000000D+00  0.0000000000000D+00  0.0000000000000D+00
292  2.9100000000000D+00  0.0000000000000D+00  0.0000000000000D+00
293  2.9200000000000D+00  0.0000000000000D+00  0.0000000000000D+00
294  2.9300000000000D+00  0.0000000000000D+00  0.0000000000000D+00
295  2.9400000000000D+00  0.0000000000000D+00  0.0000000000000D+00
296  2.9500000000000D+00  0.0000000000000D+00  0.0000000000000D+00
297  2.9600000000000D+00  0.0000000000000D+00  0.0000000000000D+00
298  2.9700000000000D+00  0.0000000000000D+00  0.0000000000000D+00
299  2.9800000000000D+00  0.0000000000000D+00  0.0000000000000D+00
300  2.9900000000000D+00  0.0000000000000D+00  0.0000000000000D+00
301  3.0000000000000D+00  0.0000000000000D+00  0.0000000000000D+00
302  3.0100000000000D+00  0.0000000000000D+00  0.0000000000000D+00
303  3.0200000000000D+00  0.0000000000000D+00  0.0000000000000D+00
304  3.0300000000000D+00  0.0000000000000D+00  0.0000000000000D+00
305  3.0400000000000D+00  0.0000000000000D+00  0.0000000000000D+00
306  3.0500000000000D+00  0.0000000000000D+00  0.0000000000000D+00
307  3.0600000000000D+00  0.0000000000000D+00  0.0000000000000D+00
308  3.0700000000000D+00  0.0000000000000D+00  0.0000000000000D+00
309  3.0800000000000D+00  0.0000000000000D+00  0.0000000000000D+00
310  3.0900000000000D+00  0.0000000000000D+00  0.0000000000000D+00
311  3.1000000000000D+00  0.0000000000000D+00  0.0000000000000D+00
312  3.1100000000000D+00  0.0000000000000D+00  0.0000000000000D+00
313  3.1200000000000D+00  0.0000000000000D+00  0.0000000000000D+00
314  3.1300000000000D+00  0.0000000000000D+00  0.0000000000000D+00
315  3.1400000000000D+00  0.0000000000000D+00  0.0000000000000D+00
316  3.1500000000000D+00  0.0000000000000D+00  0.0000000000000D+00
317  3.1600000000000D+00  0.0000000000000D+00  0.0000000000000D+00
318  3.1700000000000D+00  0.0000000000000D+00  0.0000000000000D+00
319  3.1800000000000D+00  0.0000000000000D+00  0.0000000000000D+00
320  3.1900000000000D+00  0.0000000000000D+00  0.0000000000000D+00
321  3.2000000000000D+00  0.0000000000000D+00  0.0000000000000D+00
322  3.2100000000000D+00  0.0000000000000D+00  0.0000000000000D+00
323  3.2200000000000D+00  0.0000000000000D+00  0.0000000000000D+00
324  3.2300000000000D+00  0.0000000000000D+00  0.0000000000000D+00
325  3.2400000000000D+00  0.0000000000000D+00  0.0000000000000D+00
326  3.2500000000000D+00  0.0000000000000D+00  0.0000000000000D+00
327  3.2600000000000D+00  0.0000000000000D+00  0.0000000000000D+00
328  3.2700000000000D+00  0.0000000000000D+00  0.0000000000000D+00
329  3.2800000000000D+00  0.0000000000000D+00  0.0000000000000D+00
330  3.2900000000000D+00  0.0000000000000D+00  0.0000000000000D+00
331  3.3000000000000D+00  0.0000000000000D+00  0.0000000000000D+00
332  3.3100000000000D+00  0.0000000000000D+00  0.0000000000000D+00
333  3.3200000000000D+00  0.0000000000000D+00  0.0000000000000D+00
334  3.3300000000000D+00  0.0000000000000D+00  0.0000000000000D+00
335  3.3400000000000D+00  0.0000000000000D+00  0.0000000000000D+00
336  3.3500000000000D+00  0.0000000000000D+00  0.0000000000000D+00
337  3.3600000000000D+00  0.0000000000000D+00  0.0000000000000D+00
338  3.3700000000000D+00  0.0000000000000D+00  0.0000000000000D+00
339  3.3800000000000D+00  0.0000000000000D+00  0.0000000000000D+00
340  3.3900000000000D+00  0.0000000000000D+00  0.0000000000000D+00
341  3.4000000000000D+00  0.0000000000000D+00  0.0000000000000D+00
342  3.4100000000000D+00  0.0000000000000D+00  0.0000000000000D+00
343  3.4200000000000D+00  0.0000000000000D+00  0.0000000000000D+00
344  3.4300000000000D+00  0.0000000000000D+00  0.0000000000000D+00
345  3.4400000000000D+00  0.0000000000000D+00  0.0000000000000D+00
346  3.4500000000000D+00  0.0000000000000D+00  0.0000000000000D+00
347  3.4600000000000D+00  0.0000000000000D+00  0.0000000000000D+00
348  3.4700000000000D+00  0.0000000000000D+00  0.0000000000000D+00
349  3.4800000000000D+00  0.0000000000000D+00  0.0000000000000D+00
350  3.4900000000000D+00  0.0000000000000D+00  0.0000000000000D+00
351  3.5000000000000D+00  0.0000000000000D+00  0.0000000000000D+00
352  3.5100000000000D+00  0.0000000000000D+00  0.0000000000000D+00
353  3.5200000000000D+00  0.0000000000000D+00  0.0000000000000D+00
354  3.5300000000000D+00  0.0000000000000D+00  0.0000000000000D+00
355  3.5400000000000D+00  0.0000000000000D+00  0.0000000000000D+00
356  3.5500000000000D+00  0.0000000000000D+00  0.0000000000000D+00
357  3.5600000000000D+00  0.0000000000000D+00  0.0000000000000D+00
358  3.5700000000000D+00  0.0000000000000D+00  0.0000000000000D+00
359  3.5800000000000D+00  0.0000000000000D+00  0.0000000000000D+00
360  3.5900000000000D+00  0.0000000000000D+00  0.0000000000000D+00
361  3.6000000000000D+00  0.0000000000000D+00  0.0000000000000D+00
362  3.6100000000000D+00  0.0000000000000D+00  0.0000000000000D+00
363  3.6200000000000D+00  0.0000000000000D+00  0.0000000000000D+00
364  3.6300000000000D+00  0.0000000000000D+00  0.0000000000000D+00
365  3.6400000000000D+00  0.0000000000000D+00  0.0000000000000D+00
366  3.6500000000000D+00  0.0000000000000D+00  0.0000000000000D+00
367  3.6600000000000D+00  0.0000000000000D+00  0.0000000000000D+00
368  3.6700000000000D+00  0.0000000000000D+00  0.0000000000000D+00
369  3.6800000000000D+00  0.0000000000000D+00  0.0000000000000D+00
370  3.6900000000000D+00  0.0000000000000D+00  0.0000000000000D+00
371  3.7000000000000D+00  0.0000000000000D+00  0.0000000000000D+00
372  3.7100000000000D+00  0.0000000000000D+00  0.0000000000000D+00
373  3.7200000000000D+00  0.0000000000000D+00  0.0000000000000D+00
374  3.7300000000000D+00  0.0000000000000D+00  0.0000000000000D+00
375  3.7400000000000D+00  0.0000000000000D+00  0.0000000000000D+00
376  3.7500000000000D+00  0.0000000000000D+00  0.0000000000000D+00
377  3.7600000000000D+00  0.0000000000000D+00  0.0000000000000D+00
378  3.7700000000000D+00  0.0000000000000D+00  0.0000000000000D+00
379  3.7800000000000D+00  0.0000000000000D+00  0.0000000000000D+00
380  3.7900000000000D+00  0.0000000000000D+00  0.0000000000000D+00
381  3.8000000000000D+00  0.0000000000000D+00  0.0000000000000D+00
382  3.8100000000000D+00  0.0000000000000D+00  0.0000000000000D+00
383  3.8200000000000D+00  0.0000000000000D+00  0.0000000000000D+00
384  3.8300000000000D+00  0.0000000000000D+00  0.0000000000000D+00
385  3.8400000000000D+00  0.0000000000000D+00  0.0000000000000D+00
386  3.8500000000000D+00  0.0000000000000D+00  0.0000000000000D+00
387  3.8600000000000D+00  0.0000000000000D+00  0.0000000000000D+00
388  3.8700000000000D+00  0.0000000000000D+00  0.0000000000000D+00
389  3.8800000000000D+00  0.0000000000000D+00  0.0000000000000D+00
390  3.8900000000000D+00  0.0000000000000D+00  0.0000000000000D+00
391  3.9000000000000D+00  0.0000000000000D+00  0.0000000000000D+00
392  3.9100000000000D+00  0.0000000000000D+00  0.0000000000000D+00
393  3.9200000000000D+00  0.0000000000000D+00  0.0000000000000D+00
394  3.9300000000000D+00  0.0000000000000D+00  0.0000000000000D+00
395  3.9400000000000D+00  0.0000000000000D+00  0.0000000000000D+00
396  3.9500000000000D+00  0.0000000000000D+00  0.0000000000000D+00
397  3.9600000000000D+00  0.0000000000000D+00  0.0000000000000D+00
398  3.9700000000000D+00  0.0000000000000D+00  0.0000000000000D+00
399  3.9800000000000D+00  0.0000000000000D+00  0.0000000000000D+00
400  3.9900000000000D+00  0.0000000000000D+00  0.0000000000000D+00
401  4.0000000000000D+00  0.0000000000000D+00  0.0000000000000D+00
402  4.0100000000000D+00  0.0000000000000D+00  0.0000000000000D+00
403  4.0200000000000D+00  0.0000000000000D+00  0.0000000000000D+00
404  4.0300000000000D+00  0.0000000000000D+00  0.0000000000000D+00
405  4.0400000000000D+00  0.0000000000000D+00  0.0000000000000D+00
406  4.0500000000000D+00  0.0000000000000D+00  0.0000000000000D+00
407  4.0600000000000D+00  0.0000000000000D+00  0.0000000000000D+00
408  4.0700000000000D+00  0.0000000000000D+00  0.0000000000000D+00
409  4.0800000000000D+00  0.0000000000000D+00  0.0000000000000D+00
410  4.0900000000000D+00  0.0000000000000D+00  0.0000000000000D+00
411  4.1000000000000D+00  0.0000000000000D+00  0.0000000000000D+00
412  4.1100000000000D+00  0.0000000000000D+00  0.0000000000000D+00
413  4.1200000000000D+00  0.0000000000000D+00  0.0000000000000D+00
414  4.1300000000000D+00  0.0000000000000D+00  0.0000000000000D+00
415  4.1400000000000D+00  0.0000000000000D+00  0.0000000000000D+00
416  4.1500000000000D+00  0.0000000000000D+00  0.0000000000000D+00
417  4.1600000000000D+00  0.0000000000000D+00  0.0000000000000D+00
418  4.1700000000000D+00  0.0000000000000D+00  0.0000000000000D+00
419  4.1800000000000D+00  0.0000000000000D+00  0.0000000000000D+00
420  4.1900000000000D+00  0.0000000000000D+00  0.0000000000000D+00
421  4.2000000000000D+00  0.0000000000000D+00  0.0000000000000D+00
422  4.2100000000000D+00  0.0000000000000D+00  0.0000000000000D+00
423  4.2200000000000D+00  0.0000000000000D+00  0.0000000000000D+00
424  4.2300000000000D+00  0.0000000000000D+00  0.0000000000000D+00
425  4.2400000000000D+00  0.0000000000000D+00  0.0000000000000D+00
426  4.2500000000000D+00  0.0000000000000D+00  0.0000000000000D+00
427  4.2600000000000D+00  0.0000000000000D+00  0.0000000000000D+00
428  4.2700000000000D+00  0.0000000000000D+00  0.0000000000000D+00
429  4.2800000000000D+00  0.0000000000000D+00  0.0000000000000D+00
430  4.2900000000000D+00  0.0000000000000D+00  0.0000000000000D+00
431  4.3000000000000D+00  0.0000000000000D+00  0.0000000000000D+00
432  4.3100000000000D+00  0.0000000000000D+00  0.0000000000000D+00
433  4.3200000000000D+00  0.0000000000000D+00  0.0000000000000D+00
434  4.3300000000000D+00  0.0000000000000D+00  0.0000000000000D+00
435  4.3400000000000D+00  0.0000000000000D+00  0.0000000000000D+00
436  4.3500000000000D+00  0.0000000000000D+00  0.0000000000000D+00
437  4.3600000000000D+00  0.0000000000000D+00  0.0000000000000D+00
438  4.3700000000000D+00  0.0000000000000D+00  0.0000000000000D+00
439  4.3800000000000D+00  0.0000000000000D+00  0.0000000000000D+00
440  4.3900000000000D+00  0.0000000000000D+00  0.0000000000000D+00
441  4.4000000000000D+00  0.0000000000000D+00  0.0000000000000D+00
442  4.4100000000000D+00  0.0000000000000D+00  0.0000000000000D+00
443  4.4200000000000D+00  0.0000000000000D+00  0.0000000000000D+00
444  4.4300000000000D+00  0.0000000000000D+00  0.0000000000000D+00