Ag    ONCVPSP  r_core=  1.41  1.47  1.61
47.0000     19.0000      140827    zatom,zion,pspd
8    11     2     4   601     0    pspcod,pspxc,lmax,lloc,mmax,r2well
6.00000000  0.10000000  0.00000000    rchrg fchrg qchrg
2     2     2     0     0    nproj
0                 extension_switch
0                         8.6218289950200D+00 -8.7942089078353D-01
1  0.0000000000000D+00 -0.0000000000000D+00  0.0000000000000D+00
2  1.0000000000000D-02 -7.3599317969211D-02  4.8208736375705D-02
3  2.0000000000000D-02 -1.4704015733148D-01  9.6286008209042D-02
4  3.0000000000000D-02 -2.2016445113362D-01  1.4409959193528D-01
5  4.0000000000000D-02 -2.9281495475741D-01  1.9151576427648D-01
6  5.0000000000000D-02 -3.6483565465560D-01  2.3839859798137D-01
7  6.0000000000000D-02 -4.3607217416959D-01  2.8460931163379D-01
8  7.0000000000000D-02 -5.0637217545512D-01  3.3000569048078D-01
9  8.0000000000000D-02 -5.7558575654105D-01  3.7444159432796D-01
10  9.0000000000000D-02 -6.4356584255222D-01  4.1776656743085D-01
11  1.0000000000000D-01 -7.1016857010949D-01  4.5982556402019D-01
12  1.1000000000000D-01 -7.7525366394945D-01  5.0045880157588D-01
13  1.2000000000000D-01 -8.3868480477805D-01  5.3950175233467D-01
14  1.3000000000000D-01 -9.0032998741369D-01  5.7678528169697D-01
15  1.4000000000000D-01 -9.6006186817743D-01  6.1213594023163D-01
16  1.5000000000000D-01 -1.0177581007250D+00  6.4537641401352D-01
17  1.6000000000000D-01 -1.0733016591313D+00  6.7632613567099D-01
18  1.7000000000000D-01 -1.1265811476198D+00  7.0480205683607D-01
19  1.8000000000000D-01 -1.1774910955951D+00  7.3061957956342D-01
20  1.9000000000000D-01 -1.2259322373516D+00  7.5359364280483D-01
21  2.0000000000000D-01 -1.2718117756639D+00  7.7353995812992D-01
22  2.1000000000000D-01 -1.3150436277417D+00  7.9027638392242D-01
23  2.2000000000000D-01 -1.3555486539056D+00  8.0362443151807D-01
24  2.3000000000000D-01 -1.3932548664268D+00  8.1341088344786D-01
25  2.4000000000000D-01 -1.4280976199216D+00  8.1946951885248D-01
26  2.5000000000000D-01 -1.4600197802635D+00  8.2164291820305D-01
27  2.6000000000000D-01 -1.4889718730619D+00  8.1978433755570D-01
28  2.7000000000000D-01 -1.5149122098331D+00  8.1375962486953D-01
29  2.8000000000000D-01 -1.5378069931736D+00  8.0344917401405D-01
30  2.9000000000000D-01 -1.5576303971784D+00  7.8874986534204D-01
31  3.0000000000000D-01 -1.5743646257310D+00  7.6957699712655D-01
32  3.1000000000000D-01 -1.5879999462411D+00  7.4586616269903D-01
33  3.2000000000000D-01 -1.5985347006732D+00  7.1757508327269D-01
34  3.3000000000000D-01 -1.6059752903699D+00  6.8468532479132D-01
35  3.4000000000000D-01 -1.6103361363444D+00  6.4720387701591D-01
36  3.5000000000000D-01 -1.6116396175524D+00  6.0516468921731D-01
37  3.6000000000000D-01 -1.6099159803230D+00  5.5862988361125D-01
38  3.7000000000000D-01 -1.6052032266539D+00  5.0769096500134D-01
39  3.8000000000000D-01 -1.5975469757822D+00  4.5246967538571D-01
40  3.9000000000000D-01 -1.5870003029257D+00  3.9311869318082D-01
41  4.0000000000000D-01 -1.5736235538516D+00  3.2982208435603D-01
42  4.1000000000000D-01 -1.5574841342961D+00  2.6279550679824D-01
43  4.2000000000000D-01 -1.5386562793820D+00  1.9228610073775D-01
44  4.3000000000000D-01 -1.5172207990520D+00  1.1857213308353D-01
45  4.4000000000000D-01 -1.4932648024166D+00  4.1962340914695D-02
46  4.5000000000000D-01 -1.4668814015438D+00 -3.7205021480004D-02
47  4.6000000000000D-01 -1.4381693993194D+00 -1.1856343212880D-01
48  4.7000000000000D-01 -1.4072329477488D+00 -2.0171964457133D-01
49  4.8000000000000D-01 -1.3741811992619D+00 -2.8625554537467D-01
50  4.9000000000000D-01 -1.3391279393133D+00 -3.7173028647452D-01
51  5.0000000000000D-01 -1.3021912120043D+00 -4.5768266470182D-01
52  5.1000000000000D-01 -1.2634929143990D+00 -5.4363380928810D-01
53  5.2000000000000D-01 -1.2231583705908D+00 -6.2909020172176D-01
54  5.3000000000000D-01 -1.1813159647041D+00 -7.1354661075642D-01
55  5.4000000000000D-01 -1.1380966546223D+00 -7.9648969987859D-01
56  5.5000000000000D-01 -1.0936335650551D+00 -8.7740147861641D-01
57  5.6000000000000D-01 -1.0480615716461D+00 -9.5576283433143D-01
58  5.7000000000000D-01 -1.0015167806740D+00 -1.0310578326673D+00
59  5.8000000000000D-01 -9.5413619060303D-01 -1.1027769732874D+00
60  5.9000000000000D-01 -9.0605713112459D-01 -1.1704219194786D+00
61  6.0000000000000D-01 -8.5741689938594D-01 -1.2335089804938D+00
62  6.1000000000000D-01 -8.0835231566263D-01 -1.2915731262816D+00
63  6.2000000000000D-01 -7.5899917417985D-01 -1.3441727671393D+00
64  6.3000000000000D-01 -7.0949202365370D-01 -1.3908920950008D+00
65  6.4000000000000D-01 -6.5996351988952D-01 -1.4313465183995D+00
66  6.5000000000000D-01 -6.1054411346908D-01 -1.4651855376049D+00
67  6.6000000000000D-01 -5.6136173096243D-01 -1.4920955244763D+00
68  6.7000000000000D-01 -5.1254125956183D-01 -1.5118038952295D+00
69  6.8000000000000D-01 -4.6420416085330D-01 -1.5240821417581D+00
70  6.9000000000000D-01 -4.1646822393955D-01 -1.5287476083875D+00
71  7.0000000000000D-01 -3.6944720776933D-01 -1.5256659459376D+00
72  7.1000000000000D-01 -3.2325048257733D-01 -1.5147533592468D+00
73  7.2000000000000D-01 -2.7798264133880D-01 -1.4959788057940D+00
74  7.3000000000000D-01 -2.3374336890235D-01 -1.4693640473494D+00
75  7.4000000000000D-01 -1.9062712813923D-01 -1.4349848137768D+00
76  7.5000000000000D-01 -1.4872292293749D-01 -1.3929711206081D+00
77  7.6000000000000D-01 -1.0811408497929D-01 -1.3435071339409D+00
78  7.7000000000000D-01 -6.8878116979693D-02 -1.2868304071606D+00
79  7.8000000000000D-01 -3.1086446566923D-02 -1.2232312911168D+00
80  7.9000000000000D-01  5.1956675161279D-03 -1.1530511066197D+00
81  8.0000000000000D-01  3.9909222027490D-02 -1.0766800469853D+00
82  8.1000000000000D-01  7.3001578994429D-02 -9.9455488082892D-01
83  8.2000000000000D-01  1.0442652934475D-01 -9.0715610547834D-01
84  8.3000000000000D-01  1.3414433140681D-01 -8.1500468789842D-01
85  8.4000000000000D-01  1.6212172455800D-01 -7.1865841605210D-01
86  8.5000000000000D-01  1.8833191841016D-01 -6.1870788765627D-01
87  8.6000000000000D-01  2.1275455802530D-01 -5.1577216715555D-01
88  8.7000000000000D-01  2.3537566575591D-01 -4.1049414541602D-01
89  8.8000000000000D-01  2.5618756040354D-01 -3.0353564012166D-01
90  8.9000000000000D-01  2.7518875448647D-01 -1.9557227811209D-01
91  9.0000000000000D-01  2.9238383050533D-01 -8.7288203901242D-02
92  9.1000000000000D-01  3.0778329719367D-01  2.0629338690561D-02
93  9.2000000000000D-01  3.2140341877580D-01  1.2749530762255D-01
94  9.3000000000000D-01  3.3326603939905D-01  2.3263217289151D-01
95  9.4000000000000D-01  3.4339843210893D-01  3.3537691610754D-01
96  9.5000000000000D-01  3.5183301736938D-01  4.3508497788987D-01
97  9.6000000000000D-01  3.5860716176399D-01  5.3113605305422D-01
98  9.7000000000000D-01  3.6376293777875D-01  6.2293923905313D-01
99  9.8000000000000D-01  3.6734687234532D-01  7.0993795154624D-01
100  9.9000000000000D-01  3.6940968581375D-01  7.9161455616414D-01
101  1.0000000000000D+00  3.7000603003556D-01  8.6749404900605D-01
102  1.0100000000000D+00  3.6919424294405D-01  9.3714714229780D-01
103  1.0200000000000D+00  3.6703596730622D-01  1.0002003333356D+00
104  1.0300000000000D+00  3.6359592755583D-01  1.0563319725902D+00
105  1.0400000000000D+00  3.5894162629530D-01  1.1052771306158D+00
106  1.0500000000000D+00  3.5314305468202D-01  1.1468296901617D+00
107  1.0600000000000D+00  3.4627253532506D-01  1.1808405120902D+00
108  1.0700000000000D+00  3.3840412141579D-01  1.2072281915698D+00
109  1.0800000000000D+00  3.2961342996055D-01  1.2259735484310D+00
110  1.0900000000000D+00  3.1997743375626D-01  1.2371181365575D+00
111  1.1000000000000D+00  3.0957420342121D-01  1.2407640350338D+00
112  1.1100000000000D+00  2.9848276383482D-01  1.2370720117977D+00
113  1.1200000000000D+00  2.8678203808185D-01  1.2262705053217D+00
114  1.1300000000000D+00  2.7455137877823D-01  1.2086398916489D+00
115  1.1400000000000D+00  2.6187019170315D-01  1.1845133356267D+00
116  1.1500000000000D+00  2.4881785723387D-01  1.1542740647120D+00
117  1.1600000000000D+00  2.3547230048917D-01  1.1183590427538D+00
118  1.1700000000000D+00  2.2191102906521D-01  1.0772435412640D+00
119  1.1800000000000D+00  2.0821096646103D-01  1.0314403085175D+00
120  1.1900000000000D+00  1.9444731841369D-01  9.8149888235748D-01
121  1.2000000000000D+00  1.8069338889518D-01  9.2799574879004D-01
122  1.2100000000000D+00  1.6702135323691D-01  8.7152903350487D-01
123  1.2200000000000D+00  1.5350204287670D-01  8.1271770231798D-01
124  1.2300000000000D+00  1.4020268885871D-01  7.5218707292946D-01
125  1.2400000000000D+00  1.2718909156083D-01  6.9056788201337D-01
126  1.2500000000000D+00  1.1452587465879D-01  6.2850006114649D-01
127  1.2600000000000D+00  1.0227278306752D-01  5.6660158504197D-01
128  1.2700000000000D+00  9.0487977945690D-02  5.0548234652206D-01
129  1.2800000000000D+00  7.9228219120139D-02  4.4574983647564D-01
130  1.2900000000000D+00  6.8544688290682D-02  3.8796113233882D-01
131  1.3000000000000D+00  5.8486943052833D-02  3.3265596327486D-01
132  1.3100000000000D+00  4.9102555801884D-02  2.8035667803029D-01
133  1.3200000000000D+00  4.0433263996840D-02  2.3151230518211D-01
134  1.3300000000000D+00  3.2519476880649D-02  1.8655350159805D-01
135  1.3400000000000D+00  2.5398271305907D-02  1.4586670430247D-01
136  1.3500000000000D+00  1.9101579391927D-02  1.0976091845579D-01
137  1.3600000000000D+00  1.3660280439690D-02  7.8529620450541D-02
138  1.3700000000000D+00  9.0999343336090D-03  5.2383312563540D-02
139  1.3800000000000D+00  5.4427186526679D-03  3.1477858429513D-02
140  1.3900000000000D+00  2.7093220342670D-03  1.5945626301145D-02
141  1.4000000000000D+00  9.5081640608668D-04  6.0282073540716D-03
142  1.4100000000000D+00  1.3801525964613D-04  1.4872158826009D-03
143  1.4200000000000D+00 -8.9605908715443D-05 -5.4755779946598D-05
144  1.4300000000000D+00 -1.1207317046807D-05 -3.4544458647724D-05
145  1.4400000000000D+00  1.2406518714390D-07 -4.2961196393036D-05
146  1.4500000000000D+00  0.0000000000000D+00  0.0000000000000D+00
147  1.4600000000000D+00  0.0000000000000D+00  0.0000000000000D+00
148  1.4700000000000D+00  0.0000000000000D+00  0.0000000000000D+00
149  1.4800000000000D+00  0.0000000000000D+00  0.0000000000000D+00
150  1.4900000000000D+00  0.0000000000000D+00  0.0000000000000D+00
151  1.5000000000000D+00  0.0000000000000D+00  0.0000000000000D+00
152  1.5100000000000D+00  0.0000000000000D+00  0.0000000000000D+00
153  1.5200000000000D+00  0.0000000000000D+00  0.0000000000000D+00
154  1.5300000000000D+00  0.0000000000000D+00  0.0000000000000D+00
155  1.5400000000000D+00  0.0000000000000D+00  0.0000000000000D+00
156  1.5500000000000D+00  0.0000000000000D+00  0.0000000000000D+00
157  1.5600000000000D+00  0.0000000000000D+00  0.0000000000000D+00
158  1.5700000000000D+00  0.0000000000000D+00  0.0000000000000D+00
159  1.5800000000000D+00  0.0000000000000D+00  0.0000000000000D+00
160  1.5900000000000D+00  0.0000000000000D+00  0.0000000000000D+00
161  1.6000000000000D+00  0.0000000000000D+00  0.0000000000000D+00
162  1.6100000000000D+00  0.0000000000000D+00  0.0000000000000D+00
163  1.6200000000000D+00  0.0000000000000D+00  0.0000000000000D+00
164  1.6300000000000D+00  0.0000000000000D+00  0.0000000000000D+00
165  1.6400000000000D+00  0.0000000000000D+00  0.0000000000000D+00
166  1.6500000000000D+00  0.0000000000000D+00  0.0000000000000D+00
167  1.6600000000000D+00  0.0000000000000D+00  0.0000000000000D+00
168  1.6700000000000D+00  0.0000000000000D+00  0.0000000000000D+00
169  1.6800000000000D+00  0.0000000000000D+00  0.0000000000000D+00
170  1.6900000000000D+00  0.0000000000000D+00  0.0000000000000D+00
171  1.7000000000000D+00  0.0000000000000D+00  0.0000000000000D+00
172  1.7100000000000D+00  0.0000000000000D+00  0.0000000000000D+00
173  1.7200000000000D+00  0.0000000000000D+00  0.0000000000000D+00
174  1.7300000000000D+00  0.0000000000000D+00  0.0000000000000D+00
175  1.7400000000000D+00  0.0000000000000D+00  0.0000000000000D+00
176  1.7500000000000D+00  0.0000000000000D+00  0.0000000000000D+00
177  1.7600000000000D+00  0.0000000000000D+00  0.0000000000000D+00
178  1.7700000000000D+00  0.0000000000000D+00  0.0000000000000D+00
179  1.7800000000000D+00  0.0000000000000D+00  0.0000000000000D+00
180  1.7900000000000D+00  0.0000000000000D+00  0.0000000000000D+00
181  1.8000000000000D+00  0.0000000000000D+00  0.0000000000000D+00
182  1.8100000000000D+00  0.0000000000000D+00  0.0000000000000D+00
183  1.8200000000000D+00  0.0000000000000D+00  0.0000000000000D+00
184  1.8300000000000D+00  0.0000000000000D+00  0.0000000000000D+00
185  1.8400000000000D+00  0.0000000000000D+00  0.0000000000000D+00
186  1.8500000000000D+00  0.0000000000000D+00  0.0000000000000D+00
187  1.8600000000000D+00  0.0000000000000D+00  0.0000000000000D+00
188  1.8700000000000D+00  0.0000000000000D+00  0.0000000000000D+00
189  1.8800000000000D+00  0.0000000000000D+00  0.0000000000000D+00
190  1.8900000000000D+00  0.0000000000000D+00  0.0000000000000D+00
191  1.9000000000000D+00  0.0000000000000D+00  0.0000000000000D+00
192  1.9100000000000D+00  0.0000000000000D+00  0.0000000000000D+00
193  1.9200000000000D+00  0.0000000000000D+00  0.0000000000000D+00
194  1.9300000000000D+00  0.0000000000000D+00  0.0000000000000D+00
195  1.9400000000000D+00  0.0000000000000D+00  0.0000000000000D+00
196  1.9500000000000D+00  0.0000000000000D+00  0.0000000000000D+00
197  1.9600000000000D+00  0.0000000000000D+00  0.0000000000000D+00
198  1.9700000000000D+00  0.0000000000000D+00  0.0000000000000D+00
199  1.9800000000000D+00  0.0000000000000D+00  0.0000000000000D+00
200  1.9900000000000D+00  0.0000000000000D+00  0.0000000000000D+00
201  2.0000000000000D+00  0.0000000000000D+00  0.0000000000000D+00
202  2.0100000000000D+00  0.0000000000000D+00  0.0000000000000D+00
203  2.0200000000000D+00  0.0000000000000D+00  0.0000000000000D+00
204  2.0300000000000D+00  0.0000000000000D+00  0.0000000000000D+00
205  2.0400000000000D+00  0.0000000000000D+00  0.0000000000000D+00
206  2.0500000000000D+00  0.0000000000000D+00  0.0000000000000D+00
207  2.0600000000000D+00  0.0000000000000D+00  0.0000000000000D+00
208  2.0700000000000D+00  0.0000000000000D+00  0.0000000000000D+00
209  2.0800000000000D+00  0.0000000000000D+00  0.0000000000000D+00
210  2.0900000000000D+00  0.0000000000000D+00  0.0000000000000D+00
211  2.1000000000000D+00  0.0000000000000D+00  0.0000000000000D+00
212  2.1100000000000D+00  0.0000000000000D+00  0.0000000000000D+00
213  2.1200000000000D+00  0.0000000000000D+00  0.0000000000000D+00
214  2.1300000000000D+00  0.0000000000000D+00  0.0000000000000D+00
215  2.1400000000000D+00  0.0000000000000D+00  0.0000000000000D+00
216  2.1500000000000D+00  0.0000000000000D+00  0.0000000000000D+00
217  2.1600000000000D+00  0.0000000000000D+00  0.0000000000000D+00
218  2.1700000000000D+00  0.0000000000000D+00  0.0000000000000D+00
219  2.1800000000000D+00  0.0000000000000D+00  0.0000000000000D+00
220  2.1900000000000D+00  0.0000000000000D+00  0.0000000000000D+00
221  2.2000000000000D+00  0.0000000000000D+00  0.0000000000000D+00
222  2.2100000000000D+00  0.0000000000000D+00  0.0000000000000D+00
223  2.2200000000000D+00  0.0000000000000D+00  0.0000000000000D+00
224  2.2300000000000D+00  0.0000000000000D+00  0.0000000000000D+00
225  2.2400000000000D+00  0.0000000000000D+00  0.0000000000000D+00
226  2.2500000000000D+00  0.0000000000000D+00  0.0000000000000D+00
227  2.2600000000000D+00  0.0000000000000D+00  0.0000000000000D+00
228  2.2700000000000D+00  0.0000000000000D+00  0.0000000000000D+00
229  2.2800000000000D+00  0.0000000000000D+00  0.0000000000000D+00
230  2.2900000000000D+00  0.0000000000000D+00  0.0000000000000D+00
231  2.3000000000000D+00  0.0000000000000D+00  0.0000000000000D+00
232  2.3100000000000D+00  0.0000000000000D+00  0.0000000000000D+00
233  2.3200000000000D+00  0.0000000000000D+00  0.0000000000000D+00
234  2.3300000000000D+00  0.0000000000000D+00  0.0000000000000D+00
235  2.3400000000000D+00  0.0000000000000D+00  0.0000000000000D+00
236  2.3500000000000D+00  0.0000000000000D+00  0.0000000000000D+00
237  2.3600000000000D+00  0.0000000000000D+00  0.0000000000000D+00
238  2.3700000000000D+00  0.0000000000000D+00  0.0000000000000D+00
239  2.3800000000000D+00  0.0000000000000D+00  0.0000000000000D+00
240  2.3900000000000D+00  0.0000000000000D+00  0.0000000000000D+00
241  2.4000000000000D+00  0.0000000000000D+00  0.0000000000000D+00
242  2.4100000000000D+00  0.0000000000000D+00  0.0000000000000D+00
243  2.4200000000000D+00  0.0000000000000D+00  0.0000000000000D+00
244  2.4300000000000D+00  0.0000000000000D+00  0.0000000000000D+00
245  2.4400000000000D+00  0.0000000000000D+00  0.0000000000000D+00
246  2.4500000000000D+00  0.0000000000000D+00  0.0000000000000D+00
247  2.4600000000000D+00  0.0000000000000D+00  0.0000000000000D+00
248  2.4700000000000D+00  0.0000000000000D+00  0.0000000000000D+00
249  2.4800000000000D+00  0.0000000000000D+00  0.0000000000000D+00
250  2.4900000000000D+00  0.0000000000000D+00  0.0000000000000D+00
251  2.5000000000000D+00  0.0000000000000D+00  0.0000000000000D+00
252  2.5100000000000D+00  0.0000000000000D+00  0.0000000000000D+00
253  2.5200000000000D+00  0.0000000000000D+00  0.0000000000000D+00
254  2.5300000000000D+00  0.0000000000000D+00  0.0000000000000D+00
255  2.5400000000000D+00  0.0000000000000D+00  0.0000000000000D+00
256  2.5500000000000D+00  0.0000000000000D+00  0.0000000000000D+00
257  2.5600000000000D+00  0.0000000000000D+00  0.0000000000000D+00
258  2.5700000000000D+00  0.0000000000000D+00  0.0000000000000D+00
259  2.5800000000000D+00  0.0000000000000D+00  0.0000000000000D+00
260  2.5900000000000D+00  0.0000000000000D+00  0.0000000000000D+00
261  2.6000000000000D+00  0.0000000000000D+00  0.0000000000000D+00
262  2.6100000000000D+00  0.0000000000000D+00  0.0000000000000D+00
263  2.6200000000000D+00  0.0000000000000D+00  0.0000000000000D+00
264  2.6300000000000D+00  0.0000000000000D+00  0.0000000000000D+00
265  2.6400000000000D+00  0.0000000000000D+00  0.0000000000000D+00
266  2.6500000000000D+00  0.0000000000000D+00  0.0000000000000D+00
267  2.6600000000000D+00  0.0000000000000D+00  0.0000000000000D+00
268  2.6700000000000D+00  0.0000000000000D+00  0.0000000000000D+00
269  2.6800000000000D+00  0.0000000000000D+00  0.0000000000000D+00
270  2.6900000000000D+00  0.0000000000000D+00  0.0000000000000D+00
271  2.7000000000000D+00  0.0000000000000D+00  0.0000000000000D+00
272  2.7100000000000D+00  0.0000000000000D+00  0.0000000000000D+00
273  2.7200000000000D+00  0.0000000000000D+00  0.0000000000000D+00
274  2.7300000000000D+00  0.0000000000000D+00  0.0000000000000D+00
275  2.7400000000000D+00  0.0000000000000D+00  0.0000000000000D+00
276  2.7500000000000D+00  0.0000000000000D+00  0.0000000000000D+00
277  2.7600000000000D+00  0.0000000000000D+00  0.0000000000000D+00
278  2.7700000000000D+00  0.0000000000000D+00  0.0000000000000D+00
279  2.7800000000000D+00  0.0000000000000D+00  0.0000000000000D+00
280  2.7900000000000D+00  0.0000000000000D+00  0.0000000000000D+00
281  2.8000000000000D+00  0.0000000000000D+00  0.0000000000000D+00
282  2.8100000000000D+00  0.0000000000000D+00  0.0000000000000D+00
283  2.8200000000000D+00  0.0000000000000D+00  0.0000000000000D+00
284  2.8300000000000D+00  0.0000000000000D+00  0.0000000000000D+00
285  2.8400000000000D+00  0.0000000000000D+00  0.0000000000000D+00
286  2.8500000000000D+00  0.0000000000000D+00  0.0000000000000D+00
287  2.8600000000000D+00  0.0000000000000D+00  0.0000000000000D+00
288  2.8700000000000D+00  0.0000000000000D+00  0.0000000000000D+00
289  2.8800000000000D+00  0.0000000000000D+00  0.0000000000000D+00
290  2.8900000000000D+00  0.0000000000000D+00  0.0000000000000D+00
291  2.9000000000000D+00  0.0000000000000D+00  0.0000000000000D+00
292  2.9100000000000D+00  0.0000000000000D+00  0.0000000000000D+00
293  2.9200000000000D+00  0.0000000000000D+00  0.0000000000000D+00
294  2.9300000000000D+00  0.0000000000000D+00  0.0000000000000D+00
295  2.9400000000000D+00  0.0000000000000D+00  0.0000000000000D+00
296  2.9500000000000D+00  0.0000000000000D+00  0.0000000000000D+00
297  2.9600000000000D+00  0.0000000000000D+00  0.0000000000000D+00
298  2.9700000000000D+00  0.0000000000000D+00  0.0000000000000D+00
299  2.9800000000000D+00  0.0000000000000D+00  0.0000000000000D+00
300  2.9900000000000D+00  0.0000000000000D+00  0.0000000000000D+00
301  3.0000000000000D+00  0.0000000000000D+00  0.0000000000000D+00
302  3.0100000000000D+00  0.0000000000000D+00  0.0000000000000D+00
303  3.0200000000000D+00  0.0000000000000D+00  0.0000000000000D+00
304  3.0300000000000D+00  0.0000000000000D+00  0.0000000000000D+00
305  3.0400000000000D+00  0.0000000000000D+00  0.0000000000000D+00
306  3.0500000000000D+00  0.0000000000000D+00  0.0000000000000D+00
307  3.0600000000000D+00  0.0000000000000D+00  0.0000000000000D+00
308  3.0700000000000D+00  0.0000000000000D+00  0.0000000000000D+00
309  3.0800000000000D+00  0.0000000000000D+00  0.0000000000000D+00
310  3.0900000000000D+00  0.0000000000000D+00  0.0000000000000D+00
311  3.1000000000000D+00  0.0000000000000D+00  0.0000000000000D+00
312  3.1100000000000D+00  0.0000000000000D+00  0.0000000000000D+00
313  3.1200000000000D+00  0.0000000000000D+00  0.0000000000000D+00
314  3.1300000000000D+00  0.0000000000000D+00  0.0000000000000D+00
315  3.1400000000000D+00  0.0000000000000D+00  0.0000000000000D+00
316  3.1500000000000D+00  0.0000000000000D+00  0.0000000000000D+00
317  3.1600000000000D+00  0.0000000000000D+00  0.0000000000000D+00
318  3.1700000000000D+00  0.0000000000000D+00  0.0000000000000D+00
319  3.1800000000000D+00  0.0000000000000D+00  0.0000000000000D+00
320  3.1900000000000D+00  0.0000000000000D+00  0.0000000000000D+00
321  3.2000000000000D+00  0.0000000000000D+00  0.0000000000000D+00
322  3.2100000000000D+00  0.0000000000000D+00  0.0000000000000D+00
323  3.2200000000000D+00  0.0000000000000D+00  0.0000000000000D+00
324  3.2300000000000D+00  0.0000000000000D+00  0.0000000000000D+00
325  3.2400000000000D+00  0.0000000000000D+00  0.0000000000000D+00
326  3.2500000000000D+00  0.0000000000000D+00  0.0000000000000D+00
327  3.2600000000000D+00  0.0000000000000D+00  0.0000000000000D+00
328  3.2700000000000D+00  0.0000000000000D+00  0.0000000000000D+00
329  3.2800000000000D+00  0.0000000000000D+00  0.0000000000000D+00
330  3.2900000000000D+00  0.0000000000000D+00  0.0000000000000D+00
331  3.3000000000000D+00  0.0000000000000D+00  0.0000000000000D+00
332  3.3100000000000D+00  0.0000000000000D+00  0.0000000000000D+00
333  3.3200000000000D+00  0.0000000000000D+00  0.0000000000000D+00
334  3.3300000000000D+00  0.0000000000000D+00  0.0000000000000D+00
335  3.3400000000000D+00  0.0000000000000D+00  0.0000000000000D+00
336  3.3500000000000D+00  0.0000000000000D+00  0.0000000000000D+00
337  3.3600000000000D+00  0.0000000000000D+00  0.0000000000000D+00
338  3.3700000000000D+00  0.0000000000000D+00  0.0000000000000D+00
339  3.3800000000000D+00  0.0000000000000D+00  0.0000000000000D+00
340  3.3900000000000D+00  0.0000000000000D+00  0.0000000000000D+00
341  3.4000000000000D+00  0.0000000000000D+00  0.0000000000000D+00
342  3.4100000000000D+00  0.0000000000000D+00  0.0000000000000D+00
343  3.4200000000000D+00  0.0000000000000D+00  0.0000000000000D+00
344  3.4300000000000D+00  0.0000000000000D+00  0.0000000000000D+00
345  3.4400000000000D+00  0.0000000000000D+00  0.0000000000000D+00
346  3.4500000000000D+00  0.0000000000000D+00  0.0000000000000D+00
347  3.4600000000000D+00  0.0000000000000D+00  0.0000000000000D+00
348  3.4700000000000D+00  0.0000000000000D+00  0.0000000000000D+00
349  3.4800000000000D+00  0.0000000000000D+00  0.0000000000000D+00
350  3.4900000000000D+00  0.0000000000000D+00  0.0000000000000D+00
351  3.5000000000000D+00  0.0000000000000D+00  0.0000000000000D+00
352  3.5100000000000D+00  0.0000000000000D+00  0.0000000000000D+00
353  3.5200000000000D+00  0.0000000000000D+00  0.0000000000000D+00
354  3.5300000000000D+00  0.0000000000000D+00  0.0000000000000D+00
355  3.5400000000000D+00  0.0000000000000D+00  0.0000000000000D+00
356  3.5500000000000D+00  0.0000000000000D+00  0.0000000000000D+00
357  3.5600000000000D+00  0.0000000000000D+00  0.0000000000000D+00
358  3.5700000000000D+00  0.0000000000000D+00  0.0000000000000D+00
359  3.5800000000000D+00  0.0000000000000D+00  0.0000000000000D+00
360  3.5900000000000D+00  0.0000000000000D+00  0.0000000000000D+00
361  3.6000000000000D+00  0.0000000000000D+00  0.0000000000000D+00
362  3.6100000000000D+00  0.0000000000000D+00  0.0000000000000D+00
363  3.6200000000000D+00  0.0000000000000D+00  0.0000000000000D+00
364  3.6300000000000D+00  0.0000000000000D+00  0.0000000000000D+00
365  3.6400000000000D+00  0.0000000000000D+00  0.0000000000000D+00
366  3.6500000000000D+00  0.0000000000000D+00  0.0000000000000D+00
367  3.6600000000000D+00  0.0000000000000D+00  0.0000000000000D+00
368  3.6700000000000D+00  0.0000000000000D+00  0.0000000000000D+00
369  3.6800000000000D+00  0.0000000000000D+00  0.0000000000000D+00
370  3.6900000000000D+00  0.0000000000000D+00  0.0000000000000D+00
371  3.7000000000000D+00  0.0000000000000D+00  0.0000000000000D+00
372  3.7100000000000D+00  0.0000000000000D+00  0.0000000000000D+00
373  3.7200000000000D+00  0.0000000000000D+00  0.0000000000000D+00
374  3.7300000000000D+00  0.0000000000000D+00  0.0000000000000D+00
375  3.7400000000000D+00  0.0000000000000D+00  0.0000000000000D+00
376  3.7500000000000D+00  0.0000000000000D+00  0.0000000000000D+00
377  3.7600000000000D+00  0.0000000000000D+00  0.0000000000000D+00
378  3.7700000000000D+00  0.0000000000000D+00  0.0000000000000D+00
379  3.7800000000000D+00  0.0000000000000D+00  0.0000000000000D+00
380  3.7900000000000D+00  0.0000000000000D+00  0.0000000000000D+00
381  3.8000000000000D+00  0.0000000000000D+00  0.0000000000000D+00
382  3.8100000000000D+00  0.0000000000000D+00  0.0000000000000D+00
383  3.8200000000000D+00  0.0000000000000D+00  0.0000000000000D+00
384  3.8300000000000D+00  0.0000000000000D+00  0.0000000000000D+00
385  3.8400000000000D+00  0.0000000000000D+00  0.0000000000000D+00
386  3.8500000000000D+00  0.0000000000000D+00  0.0000000000000D+00
387  3.8600000000000D+00  0.0000000000000D+00  0.0000000000000D+00
388  3.8700000000000D+00  0.0000000000000D+00  0.0000000000000D+00
389  3.8800000000000D+00  0.0000000000000D+00  0.0000000000000D+00
390  3.8900000000000D+00  0.0000000000000D+00  0.0000000000000D+00
391  3.9000000000000D+00  0.0000000000000D+00  0.0000000000000D+00
392  3.9100000000000D+00  0.0000000000000D+00  0.0000000000000D+00
393  3.9200000000000D+00  0.0000000000000D+00  0.0000000000000D+00
394  3.9300000000000D+00  0.0000000000000D+00  0.0000000000000D+00
395  3.9400000000000D+00  0.0000000000000D+00  0.0000000000000D+00
396  3.9500000000000D+00  0.0000000000000D+00  0.0000000000000D+00
397  3.9600000000000D+00  0.0000000000000D+00  0.0000000000000D+00
398  3.9700000000000D+00  0.0000000000000D+00  0.0000000000000D+00
399  3.9800000000000D+00  0.0000000000000D+00  0.0000000000000D+00
400  3.9900000000000D+00  0.0000000000000D+00  0.0000000000000D+00
401  4.0000000000000D+00  0.0000000000000D+00  0.0000000000000D+00
402  4.0100000000000D+00  0.0000000000000D+00  0.0000000000000D+00
403  4.0200000000000D+00  0.0000000000000D+00  0.0000000000000D+00
404  4.0300000000000D+00  0.0000000000000D+00  0.0000000000000D+00
405  4.0400000000000D+00  0.0000000000000D+00  0.0000000000000D+00
406  4.0500000000000D+00  0.0000000000000D+00  0.0000000000000D+00
407  4.0600000000000D+00  0.0000000000000D+00  0.0000000000000D+00
408  4.0700000000000D+00  0.0000000000000D+00  0.0000000000000D+00
409  4.0800000000000D+00  0.0000000000000D+00  0.0000000000000D+00
410  4.0900000000000D+00  0.0000000000000D+00  0.0000000000000D+00
411  4.1000000000000D+00  0.0000000000000D+00  0.0000000000000D+00
412  4.1100000000000D+00  0.0000000000000D+00  0.0000000000000D+00
413  4.1200000000000D+00  0.0000000000000D+00  0.0000000000000D+00
414  4.1300000000000D+00  0.0000000000000D+00  0.0000000000000D+00
415  4.1400000000000D+00  0.0000000000000D+00  0.0000000000000D+00
416  4.1500000000000D+00  0.0000000000000D+00  0.0000000000000D+00
417  4.1600000000000D+00  0.0000000000000D+00  0.0000000000000D+00
418  4.1700000000000D+00  0.0000000000000D+00  0.0000000000000D+00
419  4.1800000000000D+00  0.0000000000000D+00  0.0000000000000D+00
420  4.1900000000000D+00  0.0000000000000D+00  0.0000000000000D+00
421  4.2000000000000D+00  0.0000000000000D+00  0.0000000000000D+00
422  4.2100000000000D+00  0.0000000000000D+00  0.0000000000000D+00
423  4.2200000000000D+00  0.0000000000000D+00  0.0000000000000D+00
424  4.2300000000000D+00  0.0000000000000D+00  0.0000000000000D+00
425  4.2400000000000D+00  0.0000000000000D+00  0.0000000000000D+00
426  4.2500000000000D+00  0.0000000000000D+00  0.0000000000000D+00
427  4.2600000000000D+00  0.0000000000000D+00  0.0000000000000D+00
428  4.2700000000000D+00  0.0000000000000D+00  0.0000000000000D+00
429  4.2800000000000D+00  0.0000000000000D+00  0.0000000000000D+00
430  4.2900000000000D+00  0.0000000000000D+00  0.0000000000000D+00
431  4.3000000000000D+00  0.0000000000000D+00  0.0000000000000D+00
432  4.3100000000000D+00  0.0000000000000D+00  0.0000000000000D+00
433  4.3200000000000D+00  0.0000000000000D+00  0.0000000000000D+00
434  4.3300000000000D+00  0.0000000000000D+00  0.0000000000000D+00
435  4.3400000000000D+00  0.0000000000000D+00  0.0000000000000D+00
436  4.3500000000000D+00  0.0000000000000D+00  0.0000000000000D+00
437  4.3600000000000D+00  0.0000000000000D+00  0.0000000000000D+00
438  4.3700000000000D+00  0.0000000000000D+00  0.0000000000000D+00
439  4.3800000000000D+00  0.0000000000000D+00  0.0000000000000D+00
440  4.3900000000000D+00  0.0000000000000D+00  0.0000000000000D+00
441  4.4000000000000D+00  0.0000000000000D+00  0.0000000000000D+00
442  4.4100000000000D+00  0.0000000000000D+00  0.0000000000000D+00
443  4.4200000000000D+00  0.0000000000000D+00  0.0000000000000D+00
444  4.4300000000000D+00  0.0000000000000D+00  0.0000000000000D+00