Ag    ONCVPSP  r_core=  2.02  2.22  1.71
47.0000     11.0000      150117    zatom,zion,pspd
8    11     2     4   601     0    pspcod,pspxc,lmax,lloc,mmax,r2well
6.00000000  1.15000000  0.00000000    rchrg fchrg qchrg
2     2     2     0     0    nproj
0                 extension_switch
0                         8.2989964985048D+00  1.3549740114965D+00
1  0.0000000000000D+00 -0.0000000000000D+00 -0.0000000000000D+00
2  1.0000000000000D-02 -1.9883193244279D-02 -9.7730926330038D-03
3  2.0000000000000D-02 -3.9777406602429D-02 -1.9546324340257D-02
4  3.0000000000000D-02 -5.9693456715492D-02 -2.9319638896344D-02
5  4.0000000000000D-02 -7.9641755131497D-02 -3.9092591586688D-02
6  5.0000000000000D-02 -9.9632110375991D-02 -4.8864160220605D-02
7  6.0000000000000D-02 -1.1967353552200D-01 -5.8632562403542D-02
8  7.0000000000000D-02 -1.3977406302488D-01 -6.8395081072435D-02
9  8.0000000000000D-02 -1.5994056853023D-01 -7.8147900228061D-02
10  9.0000000000000D-02 -1.8017860528895D-01 -8.7885952709206D-02
11  1.0000000000000D-01 -2.0049225073751D-01 -9.7602781758267D-02
12  1.1000000000000D-01 -2.2088396669174D-01 -1.0729041799830D-01
13  1.2000000000000D-01 -2.4135447450663D-01 -1.1693927332137D-01
14  1.3000000000000D-01 -2.6190264642110D-01 -1.2653805303068D-01
15  1.4000000000000D-01 -2.8252541420853D-01 -1.3607368744729D-01
16  1.5000000000000D-01 -3.0321769604424D-01 -1.4553128396696D-01
17  1.6000000000000D-01 -3.2397234246637D-01 -1.5489410046253D-01
18  1.7000000000000D-01 -3.4478010200517D-01 -1.6414354063261D-01
19  1.8000000000000D-01 -3.6562960706768D-01 -1.7325917182194D-01
20  1.9000000000000D-01 -3.8650738033282D-01 -1.8221876552289D-01
21  2.0000000000000D-01 -4.0739786184001D-01 -1.9099836065849D-01
22  2.1000000000000D-01 -4.2828345677762D-01 -1.9957234944872D-01
23  2.2000000000000D-01 -4.4914460378075D-01 -2.0791358564235D-01
24  2.3000000000000D-01 -4.6995986330767D-01 -2.1599351426624D-01
25  2.4000000000000D-01 -4.9070602577849D-01 -2.2378232263901D-01
26  2.5000000000000D-01 -5.1135823847936D-01 -2.3124911106361D-01
27  2.6000000000000D-01 -5.3189015059979D-01 -2.3836208252339D-01
28  2.7000000000000D-01 -5.5227407503673D-01 -2.4508874948801D-01
29  2.8000000000000D-01 -5.7248116687159D-01 -2.5139615781710D-01
30  2.9000000000000D-01 -5.9248161532294D-01 -2.5725112346838D-01
31  3.0000000000000D-01 -6.1224484948140D-01 -2.6262048262436D-01
32  3.1000000000000D-01 -6.3173975464229D-01 -2.6747135111697D-01
33  3.2000000000000D-01 -6.5093490062195D-01 -2.7177139493983D-01
34  3.3000000000000D-01 -6.6979877613500D-01 -2.7548910435838D-01
35  3.4000000000000D-01 -6.8830002638676D-01 -2.7859406840588D-01
36  3.5000000000000D-01 -7.0640770590203D-01 -2.8105726415031D-01
37  3.6000000000000D-01 -7.2409151489807D-01 -2.8285132250960D-01
38  3.7000000000000D-01 -7.4132205777100D-01 -2.8395081687597D-01
39  3.8000000000000D-01 -7.5807108082853D-01 -2.8433252336590D-01
40  3.9000000000000D-01 -7.7431171422324D-01 -2.8397568246418D-01
41  4.0000000000000D-01 -7.9001870704460D-01 -2.8286224883994D-01
42  4.1000000000000D-01 -8.0516865720659D-01 -2.8097713104468D-01
43  4.2000000000000D-01 -8.1974022233814D-01 -2.7830840556105D-01
44  4.3000000000000D-01 -8.3371432481655D-01 -2.7484752001747D-01
45  4.4000000000000D-01 -8.4707434062440D-01 -2.7058947380760D-01
46  4.5000000000000D-01 -8.5980627183448D-01 -2.6553297591990D-01
47  4.6000000000000D-01 -8.7189889757874D-01 -2.5968057459311D-01
48  4.7000000000000D-01 -8.8334391700765D-01 -2.5303877259321D-01
49  4.8000000000000D-01 -8.9413605794461D-01 -2.4561810056095D-01
50  4.9000000000000D-01 -9.0427316721237D-01 -2.3743316546668D-01
51  5.0000000000000D-01 -9.1375627332077D-01 -2.2850266502867D-01
52  5.1000000000000D-01 -9.2258963678385D-01 -2.1884938230570D-01
53  5.2000000000000D-01 -9.3078077177205D-01 -2.0850014293767D-01
54  5.3000000000000D-01 -9.3834041373042D-01 -1.9748571770918D-01
55  5.4000000000000D-01 -9.4528250936760D-01 -1.8584073244683D-01
56  5.5000000000000D-01 -9.5162413739078D-01 -1.7360350856978D-01
57  5.6000000000000D-01 -9.5738541764244D-01 -1.6081588853892D-01
58  5.7000000000000D-01 -9.6258940411530D-01 -1.4752302558952D-01
59  5.8000000000000D-01 -9.6726192730949D-01 -1.3377314284737D-01
60  5.9000000000000D-01 -9.7143143327418D-01 -1.1961725317133D-01
61  6.0000000000000D-01 -9.7512878365524D-01 -1.0510886483658D-01
62  6.1000000000000D-01 -9.7838703908350D-01 -9.0303655116655D-02
63  6.2000000000000D-01 -9.8124120578359D-01 -7.5259084321914D-02
64  6.3000000000000D-01 -9.8372799694912D-01 -6.0034080580167D-02
65  6.4000000000000D-01 -9.8588551601882D-01 -4.4688565167566D-02
66  6.5000000000000D-01 -9.8775296630698D-01 -2.9283063408522D-02
67  6.6000000000000D-01 -9.8937036095898D-01 -1.3878315844515D-02
68  6.7000000000000D-01 -9.9077815704015D-01  1.4652295838591D-03
69  6.8000000000000D-01 -9.9201689930653D-01  1.6687891715175D-02
70  6.9000000000000D-01 -9.9312690830060D-01  3.1731154826736D-02
71  7.0000000000000D-01 -9.9414792275086D-01  4.6538136731191D-02
72  7.1000000000000D-01 -9.9511872216924D-01  6.1054077922644D-02
73  7.2000000000000D-01 -9.9607671133203D-01  7.5226876972937D-02
74  7.3000000000000D-01 -9.9705763670085D-01  8.9007429802303D-02
75  7.4000000000000D-01 -9.9809520314555D-01  1.0235011099632D-01
76  7.5000000000000D-01 -9.9922072452781D-01  1.1521320070862D-01
77  7.6000000000000D-01 -1.0004627848659D+00  1.2755929242909D-01
78  7.7000000000000D-01 -1.0018469386413D+00  1.3935564393319D-01
79  7.8000000000000D-01 -1.0033953392193D+00  1.5057461997955D-01
80  7.9000000000000D-01 -1.0051264797284D+00  1.6119397875504D-01
81  8.0000000000000D-01 -1.0070549489470D+00  1.7119713670320D-01
82  8.1000000000000D-01 -1.0091911719535D+00  1.8057344966024D-01
83  8.2000000000000D-01 -1.0115411935307D+00  1.8931843370098D-01
84  8.3000000000000D-01 -1.0141064907133D+00  1.9743394437260D-01
85  8.4000000000000D-01 -1.0168838165914D+00  2.0492831191733D-01
86  8.5000000000000D-01 -1.0198650772897D+00  2.1181643036070D-01
87  8.6000000000000D-01 -1.0230372438341D+00  2.1811979863601D-01
88  8.7000000000000D-01 -1.0263823003933D+00  2.2386651222978D-01
89  8.8000000000000D-01 -1.0298772301411D+00  2.2909120416885D-01
90  8.9000000000000D-01 -1.0334940397284D+00  2.3383493452820D-01
91  9.0000000000000D-01 -1.0371998230660D+00  2.3814502802737D-01
92  9.1000000000000D-01 -1.0409568648216D+00  2.4207485969625D-01
93  9.2000000000000D-01 -1.0447227939027D+00  2.4568357969381D-01
94  9.3000000000000D-01 -1.0484507603038D+00  2.4903580781431D-01
95  9.4000000000000D-01 -1.0520895971139D+00  2.5220131642811D-01
96  9.5000000000000D-01 -1.0555841684220D+00  2.5525453274186D-01
97  9.6000000000000D-01 -1.0588756354383D+00  2.5827410901953D-01
98  9.7000000000000D-01 -1.0619017911665D+00  2.6134241648257D-01
99  9.8000000000000D-01 -1.0645974289364D+00  2.6454499862892D-01
100  9.9000000000000D-01 -1.0668947422135D+00  2.6796998787676D-01
101  1.0000000000000D+00 -1.0687237391992D+00  2.7170751784004D-01
102  1.0100000000000D+00 -1.0700126427018D+00  2.7584916278439D-01
103  1.0200000000000D+00 -1.0706885533734D+00  2.8048691859596D-01
104  1.0300000000000D+00 -1.0706778261570D+00  2.8571278776196D-01
105  1.0400000000000D+00 -1.0699066194364D+00  2.9161799025290D-01
106  1.0500000000000D+00 -1.0683014247036D+00  2.9829224470343D-01
107  1.0600000000000D+00 -1.0657893578359D+00  3.0582342209329D-01
108  1.0700000000000D+00 -1.0622992834021D+00  3.1429590946927D-01
109  1.0800000000000D+00 -1.0577621449625D+00  3.2379026913749D-01
110  1.0900000000000D+00 -1.0521113707933D+00  3.3438273274666D-01
111  1.1000000000000D+00 -1.0452833725824D+00  3.4614455292534D-01
112  1.1100000000000D+00 -1.0372178280462D+00  3.5914166283009D-01
113  1.1200000000000D+00 -1.0278596948205D+00  3.7343189930882D-01
114  1.1300000000000D+00 -1.0171582116268D+00  3.8906655589684D-01
115  1.1400000000000D+00 -1.0050676070919D+00  4.0608944131097D-01
116  1.1500000000000D+00 -9.9154724914084D-01  4.2453672610041D-01
117  1.1600000000000D+00 -9.7656431585809D-01  4.4443338872432D-01
118  1.1700000000000D+00 -9.6009179180360D-01  4.6579608222879D-01
119  1.1800000000000D+00 -9.4210876013370D-01  4.8863276613151D-01
120  1.1900000000000D+00 -9.2260245750623D-01  5.1294003122089D-01
121  1.2000000000000D+00 -9.0156845895128D-01  5.3870302342526D-01
122  1.2100000000000D+00 -8.7900917718925D-01  5.6589749689609D-01
123  1.2200000000000D+00 -8.5493424577633D-01  5.9448932591472D-01
124  1.2300000000000D+00 -8.2936418118658D-01  6.2442998798340D-01
125  1.2400000000000D+00 -8.0232640104281D-01  6.5566178949504D-01
126  1.2500000000000D+00 -7.7385491591629D-01  6.8811819236717D-01
127  1.2600000000000D+00 -7.4399584587148D-01  7.2171722256010D-01
128  1.2700000000000D+00 -7.1280180715687D-01  7.5636855768818D-01
129  1.2800000000000D+00 -6.8033190780529D-01  7.9197340323403D-01
130  1.2900000000000D+00 -6.4665697031424D-01  8.2841869811412D-01
131  1.3000000000000D+00 -6.1185359224973D-01  8.6558422804337D-01
132  1.3100000000000D+00 -5.7600500986414D-01  9.0334146403632D-01
133  1.3200000000000D+00 -5.3920444313848D-01  9.4155053542128D-01
134  1.3300000000000D+00 -5.0154982645489D-01  9.8006590318853D-01
135  1.3400000000000D+00 -4.6314600259093D-01  1.0187340750984D+00
136  1.3500000000000D+00 -4.2410462120327D-01  1.0573947384603D+00
137  1.3600000000000D+00 -3.8454145939036D-01  1.0958826559811D+00
138  1.3700000000000D+00 -3.4457823182049D-01  1.1340271757548D+00
139  1.3800000000000D+00 -3.0434014491495D-01  1.1716548771012D+00
140  1.3900000000000D+00 -2.6395660488602D-01  1.2085875441488D+00
141  1.4000000000000D+00 -2.2355915521785D-01  1.2446479888992D+00
142  1.4100000000000D+00 -1.8328215564166D-01  1.2796558497802D+00
143  1.4200000000000D+00 -1.4326131908498D-01  1.3134319411045D+00
144  1.4300000000000D+00 -1.0363178735189D-01  1.3458004776309D+00
145  1.4400000000000D+00 -6.4531803167828D-02  1.3765824714636D+00
146  1.4500000000000D+00 -2.6093888507748D-02  1.4056112522909D+00
147  1.4600000000000D+00  1.1546078775514D-02  1.4327159657268D+00
148  1.4700000000000D+00  4.8258639166373D-02  1.4577385450985D+00
149  1.4800000000000D+00  8.3915996878213D-02  1.4805249273666D+00
150  1.4900000000000D+00  1.1839277780381D-01  1.5009267008347D+00
151  1.5000000000000D+00  1.5157371336585D-01  1.5188127104542D+00
152  1.5100000000000D+00  1.8333970091854D-01  1.5340472734782D+00
153  1.5200000000000D+00  2.1359038333369D-01  1.5465249483702D+00
154  1.5300000000000D+00  2.4221884171176D-01  1.5561314528845D+00
155  1.5400000000000D+00  2.6913830836640D-01  1.5627843001195D+00
156  1.5500000000000D+00  2.9426000085025D-01  1.5663990009572D+00
157  1.5600000000000D+00  3.1751074710584D-01  1.5669155491152D+00
158  1.5700000000000D+00  3.3882313105646D-01  1.5642833240544D+00
159  1.5800000000000D+00  3.5813936761130D-01  1.5584670572320D+00
160  1.5900000000000D+00  3.7541521568189D-01  1.5494518973592D+00
161  1.6000000000000D+00  3.9061003648484D-01  1.5372294759367D+00
162  1.6100000000000D+00  4.0370372875047D-01  1.5218213650744D+00
163  1.6200000000000D+00  4.1467439974828D-01  1.5032479667944D+00
164  1.6300000000000D+00  4.2352624988481D-01  1.4815667691680D+00
165  1.6400000000000D+00  4.3025744551549D-01  1.4568283354368D+00
166  1.6500000000000D+00  4.3489590636019D-01  1.4291245050656D+00
167  1.6600000000000D+00  4.3746077164828D-01  1.3985367517017D+00
168  1.6700000000000D+00  4.3800242322015D-01  1.3651887608160D+00
169  1.6800000000000D+00  4.3656139401072D-01  1.3291928914993D+00
170  1.6900000000000D+00  4.3320867772466D-01  1.2907013623104D+00
171  1.7000000000000D+00  4.2800604424899D-01  1.2498564506027D+00
172  1.7100000000000D+00  4.2104277176428D-01  1.2068351006614D+00
173  1.7200000000000D+00  4.1240101606628D-01  1.1618071404096D+00
174  1.7300000000000D+00  4.0218580824862D-01  1.1149714471859D+00
175  1.7400000000000D+00  3.9049824583125D-01  1.0665236682138D+00
176  1.7500000000000D+00  3.7745646693245D-01  1.0166813683803D+00
177  1.7600000000000D+00  3.6317841706314D-01  9.6566390621136D-01
178  1.7700000000000D+00  3.4779263835290D-01  9.1370317707487D-01
179  1.7800000000000D+00  3.3143084570388D-01  8.6103724155656D-01
180  1.7900000000000D+00  3.1422954574482D-01  8.0790861413334D-01
181  1.8000000000000D+00  2.9633013237563D-01  7.5456746213613D-01
182  1.8100000000000D+00  2.7787510972752D-01  7.0126398741135D-01
183  1.8200000000000D+00  2.5901042233192D-01  6.4825235444918D-01
184  1.8300000000000D+00  2.3988321504383D-01  5.9578846436462D-01
185  1.8400000000000D+00  2.2063790937515D-01  5.4412100660392D-01
186  1.8500000000000D+00  2.0142552827102D-01  4.9351048060473D-01
187  1.8600000000000D+00  1.8238243711242D-01  4.4419006590163D-01
188  1.8700000000000D+00  1.6366255854087D-01  3.9642326763668D-01
189  1.8800000000000D+00  1.4539122958788D-01  3.5042381815185D-01
190  1.8900000000000D+00  1.2771468141372D-01  3.0644055031762D-01
191  1.9000000000000D+00  1.1075267247306D-01  2.6467761287841D-01
192  1.9100000000000D+00  9.4633852095923D-02  2.2535346950611D-01
193  1.9200000000000D+00  7.9474342797091D-02  1.8866582775164D-01
194  1.9300000000000D+00  6.5376716472448D-02  1.5478975655149D-01
195  1.9400000000000D+00  5.2455454125355D-02  1.2391963666789D-01
196  1.9500000000000D+00  4.0782309874643D-02  9.6180190245834D-02
197  1.9600000000000D+00  3.0463200478438D-02  7.1751197562188D-02
198  1.9700000000000D+00  2.1548324275616D-02  5.0722437199073D-02
199  1.9800000000000D+00  1.4112096383581D-02  3.3222401064680D-02
200  1.9900000000000D+00  8.2014088397544D-03  1.9335291497815D-02
201  2.0000000000000D+00  3.9016567770162D-03  9.2496782469180D-03
202  2.0100000000000D+00  1.3679004247998D-03  3.3074408974175D-03
203  2.0200000000000D+00  4.9755168073139D-05  2.1357294627631D-04
204  2.0300000000000D+00 -3.6807231101536D-04 -7.9768167286922D-04
205  2.0400000000000D+00 -2.2579839514601D-04 -5.0578153911912D-04
206  2.0500000000000D+00  4.2395186055524D-06  6.1452346020359D-06
207  2.0600000000000D+00  6.6122421965198D-06  9.5845267644016D-06
208  2.0700000000000D+00  7.4072041793753D-07  1.0736833981063D-06
209  2.0800000000000D+00  0.0000000000000D+00  0.0000000000000D+00
210  2.0900000000000D+00  0.0000000000000D+00  0.0000000000000D+00
211  2.1000000000000D+00  0.0000000000000D+00  0.0000000000000D+00
212  2.1100000000000D+00  0.0000000000000D+00  0.0000000000000D+00
213  2.1200000000000D+00  0.0000000000000D+00  0.0000000000000D+00
214  2.1300000000000D+00  0.0000000000000D+00  0.0000000000000D+00
215  2.1400000000000D+00  0.0000000000000D+00  0.0000000000000D+00
216  2.1500000000000D+00  0.0000000000000D+00  0.0000000000000D+00
217  2.1600000000000D+00  0.0000000000000D+00  0.0000000000000D+00
218  2.1700000000000D+00  0.0000000000000D+00  0.0000000000000D+00
219  2.1800000000000D+00  0.0000000000000D+00  0.0000000000000D+00
220  2.1900000000000D+00  0.0000000000000D+00  0.0000000000000D+00
221  2.2000000000000D+00  0.0000000000000D+00  0.0000000000000D+00
222  2.2100000000000D+00  0.0000000000000D+00  0.0000000000000D+00
223  2.2200000000000D+00  0.0000000000000D+00  0.0000000000000D+00
224  2.2300000000000D+00  0.0000000000000D+00  0.0000000000000D+00
225  2.2400000000000D+00  0.0000000000000D+00  0.0000000000000D+00
226  2.2500000000000D+00  0.0000000000000D+00  0.0000000000000D+00
227  2.2600000000000D+00  0.0000000000000D+00  0.0000000000000D+00
228  2.2700000000000D+00  0.0000000000000D+00  0.0000000000000D+00
229  2.2800000000000D+00  0.0000000000000D+00  0.0000000000000D+00
230  2.2900000000000D+00  0.0000000000000D+00  0.0000000000000D+00
231  2.3000000000000D+00  0.0000000000000D+00  0.0000000000000D+00
232  2.3100000000000D+00  0.0000000000000D+00  0.0000000000000D+00
233  2.3200000000000D+00  0.0000000000000D+00  0.0000000000000D+00
234  2.3300000000000D+00  0.0000000000000D+00  0.0000000000000D+00
235  2.3400000000000D+00  0.0000000000000D+00  0.0000000000000D+00
236  2.3500000000000D+00  0.0000000000000D+00  0.0000000000000D+00
237  2.3600000000000D+00  0.0000000000000D+00  0.0000000000000D+00
238  2.3700000000000D+00  0.0000000000000D+00  0.0000000000000D+00
239  2.3800000000000D+00  0.0000000000000D+00  0.0000000000000D+00
240  2.3900000000000D+00  0.0000000000000D+00  0.0000000000000D+00
241  2.4000000000000D+00  0.0000000000000D+00  0.0000000000000D+00
242  2.4100000000000D+00  0.0000000000000D+00  0.0000000000000D+00
243  2.4200000000000D+00  0.0000000000000D+00  0.0000000000000D+00
244  2.4300000000000D+00  0.0000000000000D+00  0.0000000000000D+00
245  2.4400000000000D+00  0.0000000000000D+00  0.0000000000000D+00
246  2.4500000000000D+00  0.0000000000000D+00  0.0000000000000D+00
247  2.4600000000000D+00  0.0000000000000D+00  0.0000000000000D+00
248  2.4700000000000D+00  0.0000000000000D+00  0.0000000000000D+00
249  2.4800000000000D+00  0.0000000000000D+00  0.0000000000000D+00
250  2.4900000000000D+00  0.0000000000000D+00  0.0000000000000D+00
251  2.5000000000000D+00  0.0000000000000D+00  0.0000000000000D+00
252  2.5100000000000D+00  0.0000000000000D+00  0.0000000000000D+00
253  2.5200000000000D+00  0.0000000000000D+00  0.0000000000000D+00
254  2.5300000000000D+00  0.0000000000000D+00  0.0000000000000D+00
255  2.5400000000000D+00  0.0000000000000D+00  0.0000000000000D+00
256  2.5500000000000D+00  0.0000000000000D+00  0.0000000000000D+00
257  2.5600000000000D+00  0.0000000000000D+00  0.0000000000000D+00
258  2.5700000000000D+00  0.0000000000000D+00  0.0000000000000D+00
259  2.5800000000000D+00  0.0000000000000D+00  0.0000000000000D+00
260  2.5900000000000D+00  0.0000000000000D+00  0.0000000000000D+00
261  2.6000000000000D+00  0.0000000000000D+00  0.0000000000000D+00
262  2.6100000000000D+00  0.0000000000000D+00  0.0000000000000D+00
263  2.6200000000000D+00  0.0000000000000D+00  0.0000000000000D+00
264  2.6300000000000D+00  0.0000000000000D+00  0.0000000000000D+00
265  2.6400000000000D+00  0.0000000000000D+00  0.0000000000000D+00
266  2.6500000000000D+00  0.0000000000000D+00  0.0000000000000D+00
267  2.6600000000000D+00  0.0000000000000D+00  0.0000000000000D+00
268  2.6700000000000D+00  0.0000000000000D+00  0.0000000000000D+00
269  2.6800000000000D+00  0.0000000000000D+00  0.0000000000000D+00
270  2.6900000000000D+00  0.0000000000000D+00  0.0000000000000D+00
271  2.7000000000000D+00  0.0000000000000D+00  0.0000000000000D+00
272  2.7100000000000D+00  0.0000000000000D+00  0.0000000000000D+00
273  2.7200000000000D+00  0.0000000000000D+00  0.0000000000000D+00
274  2.7300000000000D+00  0.0000000000000D+00  0.0000000000000D+00
275  2.7400000000000D+00  0.0000000000000D+00  0.0000000000000D+00
276  2.7500000000000D+00  0.0000000000000D+00  0.0000000000000D+00
277  2.7600000000000D+00  0.0000000000000D+00  0.0000000000000D+00
278  2.7700000000000D+00  0.0000000000000D+00  0.0000000000000D+00
279  2.7800000000000D+00  0.0000000000000D+00  0.0000000000000D+00
280  2.7900000000000D+00  0.0000000000000D+00  0.0000000000000D+00
281  2.8000000000000D+00  0.0000000000000D+00  0.0000000000000D+00
282  2.8100000000000D+00  0.0000000000000D+00  0.0000000000000D+00
283  2.8200000000000D+00  0.0000000000000D+00  0.0000000000000D+00
284  2.8300000000000D+00  0.0000000000000D+00  0.0000000000000D+00
285  2.8400000000000D+00  0.0000000000000D+00  0.0000000000000D+00
286  2.8500000000000D+00  0.0000000000000D+00  0.0000000000000D+00
287  2.8600000000000D+00  0.0000000000000D+00  0.0000000000000D+00
288  2.8700000000000D+00  0.0000000000000D+00  0.0000000000000D+00
289  2.8800000000000D+00  0.0000000000000D+00  0.0000000000000D+00
290  2.8900000000000D+00  0.0000000000000D+00  0.0000000000000D+00
291  2.9000000000000D+00  0.0000000000000D+00  0.0000000000000D+00
292  2.9100000000000D+00  0.0000000000000D+00  0.0000000000000D+00
293  2.9200000000000D+00  0.0000000000000D+00  0.0000000000000D+00
294  2.9300000000000D+00  0.0000000000000D+00  0.0000000000000D+00
295  2.9400000000000D+00  0.0000000000000D+00  0.0000000000000D+00
296  2.9500000000000D+00  0.0000000000000D+00  0.0000000000000D+00
297  2.9600000000000D+00  0.0000000000000D+00  0.0000000000000D+00
298  2.9700000000000D+00  0.0000000000000D+00  0.0000000000000D+00
299  2.9800000000000D+00  0.0000000000000D+00  0.0000000000000D+00
300  2.9900000000000D+00  0.0000000000000D+00  0.0000000000000D+00
301  3.0000000000000D+00  0.0000000000000D+00  0.0000000000000D+00
302  3.0100000000000D+00  0.0000000000000D+00  0.0000000000000D+00
303  3.0200000000000D+00  0.0000000000000D+00  0.0000000000000D+00
304  3.0300000000000D+00  0.0000000000000D+00  0.0000000000000D+00
305  3.0400000000000D+00  0.0000000000000D+00  0.0000000000000D+00
306  3.0500000000000D+00  0.0000000000000D+00  0.0000000000000D+00
307  3.0600000000000D+00  0.0000000000000D+00  0.0000000000000D+00
308  3.0700000000000D+00  0.0000000000000D+00  0.0000000000000D+00
309  3.0800000000000D+00  0.0000000000000D+00  0.0000000000000D+00
310  3.0900000000000D+00  0.0000000000000D+00  0.0000000000000D+00
311  3.1000000000000D+00  0.0000000000000D+00  0.0000000000000D+00
312  3.1100000000000D+00  0.0000000000000D+00  0.0000000000000D+00
313  3.1200000000000D+00  0.0000000000000D+00  0.0000000000000D+00
314  3.1300000000000D+00  0.0000000000000D+00  0.0000000000000D+00
315  3.1400000000000D+00  0.0000000000000D+00  0.0000000000000D+00
316  3.1500000000000D+00  0.0000000000000D+00  0.0000000000000D+00
317  3.1600000000000D+00  0.0000000000000D+00  0.0000000000000D+00
318  3.1700000000000D+00  0.0000000000000D+00  0.0000000000000D+00
319  3.1800000000000D+00  0.0000000000000D+00  0.0000000000000D+00
320  3.1900000000000D+00  0.0000000000000D+00  0.0000000000000D+00
321  3.2000000000000D+00  0.0000000000000D+00  0.0000000000000D+00
322  3.2100000000000D+00  0.0000000000000D+00  0.0000000000000D+00
323  3.2200000000000D+00  0.0000000000000D+00  0.0000000000000D+00
324  3.2300000000000D+00  0.0000000000000D+00  0.0000000000000D+00
325  3.2400000000000D+00  0.0000000000000D+00  0.0000000000000D+00
326  3.2500000000000D+00  0.0000000000000D+00  0.0000000000000D+00
327  3.2600000000000D+00  0.0000000000000D+00  0.0000000000000D+00
328  3.2700000000000D+00  0.0000000000000D+00  0.0000000000000D+00
329  3.2800000000000D+00  0.0000000000000D+00  0.0000000000000D+00
330  3.2900000000000D+00  0.0000000000000D+00  0.0000000000000D+00
331  3.3000000000000D+00  0.0000000000000D+00  0.0000000000000D+00
332  3.3100000000000D+00  0.0000000000000D+00  0.0000000000000D+00
333  3.3200000000000D+00  0.0000000000000D+00  0.0000000000000D+00
334  3.3300000000000D+00  0.0000000000000D+00  0.0000000000000D+00
335  3.3400000000000D+00  0.0000000000000D+00  0.0000000000000D+00
336  3.3500000000000D+00  0.0000000000000D+00  0.0000000000000D+00
337  3.3600000000000D+00  0.0000000000000D+00  0.0000000000000D+00
338  3.3700000000000D+00  0.0000000000000D+00  0.0000000000000D+00
339  3.3800000000000D+00  0.0000000000000D+00  0.0000000000000D+00
340  3.3900000000000D+00  0.0000000000000D+00  0.0000000000000D+00
341  3.4000000000000D+00  0.0000000000000D+00  0.0000000000000D+00
342  3.4100000000000D+00  0.0000000000000D+00  0.0000000000000D+00
343  3.4200000000000D+00  0.0000000000000D+00  0.0000000000000D+00
344  3.4300000000000D+00  0.0000000000000D+00  0.0000000000000D+00
345  3.4400000000000D+00  0.0000000000000D+00  0.0000000000000D+00
346  3.4500000000000D+00  0.0000000000000D+00  0.0000000000000D+00
347  3.4600000000000D+00  0.0000000000000D+00  0.0000000000000D+00
348  3.4700000000000D+00  0.0000000000000D+00  0.0000000000000D+00
349  3.4800000000000D+00  0.0000000000000D+00  0.0000000000000D+00
350  3.4900000000000D+00  0.0000000000000D+00  0.0000000000000D+00
351  3.5000000000000D+00  0.0000000000000D+00  0.0000000000000D+00
352  3.5100000000000D+00  0.0000000000000D+00  0.0000000000000D+00
353  3.5200000000000D+00  0.0000000000000D+00  0.0000000000000D+00
354  3.5300000000000D+00  0.0000000000000D+00  0.0000000000000D+00
355  3.5400000000000D+00  0.0000000000000D+00  0.0000000000000D+00
356  3.5500000000000D+00  0.0000000000000D+00  0.0000000000000D+00
357  3.5600000000000D+00  0.0000000000000D+00  0.0000000000000D+00
358  3.5700000000000D+00  0.0000000000000D+00  0.0000000000000D+00
359  3.5800000000000D+00  0.0000000000000D+00  0.0000000000000D+00
360  3.5900000000000D+00  0.0000000000000D+00  0.0000000000000D+00
361  3.6000000000000D+00  0.0000000000000D+00  0.0000000000000D+00
362  3.6100000000000D+00  0.0000000000000D+00  0.0000000000000D+00
363  3.6200000000000D+00  0.0000000000000D+00  0.0000000000000D+00
364  3.6300000000000D+00  0.0000000000000D+00  0.0000000000000D+00
365  3.6400000000000D+00  0.0000000000000D+00  0.0000000000000D+00
366  3.6500000000000D+00  0.0000000000000D+00  0.0000000000000D+00
367  3.6600000000000D+00  0.0000000000000D+00  0.0000000000000D+00
368  3.6700000000000D+00  0.0000000000000D+00  0.0000000000000D+00
369  3.6800000000000D+00  0.0000000000000D+00  0.0000000000000D+00
370  3.6900000000000D+00  0.0000000000000D+00  0.0000000000000D+00
371  3.7000000000000D+00  0.0000000000000D+00  0.0000000000000D+00
372  3.7100000000000D+00  0.0000000000000D+00  0.0000000000000D+00
373  3.7200000000000D+00  0.0000000000000D+00  0.0000000000000D+00
374  3.7300000000000D+00  0.0000000000000D+00  0.0000000000000D+00
375  3.7400000000000D+00  0.0000000000000D+00  0.0000000000000D+00
376  3.7500000000000D+00  0.0000000000000D+00  0.0000000000000D+00
377  3.7600000000000D+00  0.0000000000000D+00  0.0000000000000D+00
378  3.7700000000000D+00  0.0000000000000D+00  0.0000000000000D+00
379  3.7800000000000D+00  0.0000000000000D+00  0.0000000000000D+00
380  3.7900000000000D+00  0.0000000000000D+00  0.0000000000000D+00
381  3.8000000000000D+00  0.0000000000000D+00  0.0000000000000D+00
382  3.8100000000000D+00  0.0000000000000D+00  0.0000000000000D+00
383  3.8200000000000D+00  0.0000000000000D+00  0.0000000000000D+00
384  3.8300000000000D+00  0.0000000000000D+00  0.0000000000000D+00
385  3.8400000000000D+00  0.0000000000000D+00  0.0000000000000D+00
386  3.8500000000000D+00  0.0000000000000D+00  0.0000000000000D+00
387  3.8600000000000D+00  0.0000000000000D+00  0.0000000000000D+00
388  3.8700000000000D+00  0.0000000000000D+00  0.0000000000000D+00
389  3.8800000000000D+00  0.0000000000000D+00  0.0000000000000D+00
390  3.8900000000000D+00  0.0000000000000D+00  0.0000000000000D+00
391  3.9000000000000D+00  0.0000000000000D+00  0.0000000000000D+00
392  3.9100000000000D+00  0.0000000000000D+00  0.0000000000000D+00
393  3.9200000000000D+00  0.0000000000000D+00  0.0000000000000D+00
394  3.9300000000000D+00  0.0000000000000D+00  0.0000000000000D+00
395  3.9400000000000D+00  0.0000000000000D+00  0.0000000000000D+00
396  3.9500000000000D+00  0.0000000000000D+00  0.0000000000000D+00
397  3.9600000000000D+00  0.0000000000000D+00  0.0000000000000D+00
398  3.9700000000000D+00  0.0000000000000D+00  0.0000000000000D+00
399  3.9800000000000D+00  0.0000000000000D+00  0.0000000000000D+00
400  3.9900000000000D+00  0.0000000000000D+00  0.0000000000000D+00
401  4.0000000000000D+00  0.0000000000000D+00  0.0000000000000D+00
402  4.0100000000000D+00  0.0000000000000D+00  0.0000000000000D+00
403  4.0200000000000D+00  0.0000000000000D+00  0.0000000000000D+00
404  4.0300000000000D+00  0.0000000000000D+00  0.0000000000000D+00
405  4.0400000000000D+00  0.0000000000000D+00  0.0000000000000D+00
406  4.0500000000000D+00  0.0000000000000D+00  0.0000000000000D+00
407  4.0600000000000D+00  0.0000000000000D+00  0.0000000000000D+00
408  4.0700000000000D+00  0.0000000000000D+00  0.0000000000000D+00
409  4.0800000000000D+00  0.0000000000000D+00  0.0000000000000D+00
410  4.0900000000000D+00  0.0000000000000D+00  0.0000000000000D+00
411  4.1000000000000D+00  0.0000000000000D+00  0.0000000000000D+00
412  4.1100000000000D+00  0.0000000000000D+00  0.0000000000000D+00
413  4.1200000000000D+00  0.0000000000000D+00  0.0000000000000D+00
414  4.1300000000000D+00  0.0000000000000D+00  0.0000000000000D+00
415  4.1400000000000D+00  0.0000000000000D+00  0.0000000000000D+00
416  4.1500000000000D+00  0.0000000000000D+00  0.0000000000000D+00
417  4.1600000000000D+00  0.0000000000000D+00  0.0000000000000D+00
418  4.1700000000000D+00  0.0000000000000D+00  0.0000000000000D+00
419  4.1800000000000D+00  0.0000000000000D+00  0.0000000000000D+00
420  4.1900000000000D+00  0.0000000000000D+00  0.0000000000000D+00
421  4.2000000000000D+00  0.0000000000000D+00  0.0000000000000D+00
422  4.2100000000000D+00  0.0000000000000D+00  0.0000000000000D+00
423  4.2200000000000D+00  0.0000000000000D+00  0.0000000000000D+00
424  4.2300000000000D+00  0.0000000000000D+00  0.0000000000000D+00
425  4.2400000000000D+00  0.0000000000000D+00  0.0000000000000D+00
426  4.2500000000000D+00  0.0000000000000D+00  0.0000000000000D+00
427  4.2600000000000D+00  0.0000000000000D+00  0.0000000000000D+00
428  4.2700000000000D+00  0.0000000000000D+00  0.0000000000000D+00
429  4.2800000000000D+00  0.0000000000000D+00  0.0000000000000D+00
430  4.2900000000000D+00  0.0000000000000D+00  0.0000000000000D+00
431  4.3000000000000D+00  0.0000000000000D+00  0.0000000000000D+00
432  4.3100000000000D+00  0.0000000000000D+00  0.0000000000000D+00
433  4.3200000000000D+00  0.0000000000000D+00  0.0000000000000D+00
434  4.3300000000000D+00  0.0000000000000D+00  0.0000000000000D+00
435  4.3400000000000D+00  0.0000000000000D+00  0.0000000000000D+00
436  4.3500000000000D+00  0.0000000000000D+00  0.0000000000000D+00
437  4.3600000000000D+00  0.0000000000000D+00  0.0000000000000D+00
438  4.3700000000000D+00  0.0000000000000D+00  0.0000000000000D+00
439  4.3800000000000D+00  0.0000000000000D+00  0.0000000000000D+00
440  4.3900000000000D+00  0.0000000000000D+00  0.0000000000000D+00
441  4.4000000000000D+00  0.0000000000000D+00  0.0000000000000D+00
442  4.4100000000000D+00  0.0000000000000D+00  0.0000000000000D+00
443  4.4200000000000D+00  0.0000000000000D+00  0.0000000000000D+00
444  4.4300000000000D+00  0.0000000000000D+00  0.0000000000000D+00