Y     ONCVPSP  r_core=  1.61  1.51  1.57
39.0000     11.0000      161004    zatom,zion,pspd
8 -116133   2     4   600     0    pspcod,pspxc,lmax,lloc,mmax,r2well
5.99000000  4.00000000  0.00000000    rchrg fchrg qchrg
2     2     2     0     0    nproj
1                 extension_switch
0                         1.0169092379456D+01  8.6831364896148D-01
1  0.0000000000000D+00  6.8738459368944D-11 -2.4847376933756D-10
2  1.0000000000000D-02  4.9514318181641D-02 -1.0884075028483D-02
3  2.0000000000000D-02  9.8992529016495D-02 -2.1816864099626D-02
4  3.0000000000000D-02  1.4839833225445D-01 -3.2846173198461D-02
5  4.0000000000000D-02  1.9769504407295D-01 -4.4018000435399D-02
6  5.0000000000000D-02  2.4684541085890D-01 -5.5375652647242D-02
7  6.0000000000000D-02  2.9581142962341D-01 -6.6958886467703D-02
8  7.0000000000000D-02  3.4455417717934D-01 -7.8803081730987D-02
9  8.0000000000000D-02  3.9303365014286D-01 -9.0938454823531D-02
10  9.0000000000000D-02  4.4120861773524D-01 -1.0338931929180D-01
11  1.0000000000000D-01  4.8903648926022D-01 -1.1617340064967D-01
12  1.1000000000000D-01  5.3647319801678D-01 -1.2930121191095D-01
13  1.2000000000000D-01  5.8347310327716D-01 -1.4277549590274D-01
14  1.3000000000000D-01  6.2998891181665D-01 -1.5659073989766D-01
15  1.4000000000000D-01  6.7597162032638D-01 -1.7073276754118D-01
16  1.5000000000000D-01  7.2137047987337D-01 -1.8517841244729D-01
17  1.6000000000000D-01  7.6613298339577D-01 -1.9989527719742D-01
18  1.7000000000000D-01  8.1020487703511D-01 -2.1484158080666D-01
19  1.8000000000000D-01  8.5353019591513D-01 -2.2996609702406D-01
20  1.9000000000000D-01  8.9605132477683D-01 -2.4520818511423D-01
21  2.0000000000000D-01  9.3770908367658D-01 -2.6049791403142D-01
22  2.1000000000000D-01  9.7844283874608D-01 -2.7575628014897D-01
23  2.2000000000000D-01  1.0181906378052D+00 -2.9089551795370D-01
24  2.3000000000000D-01  1.0568893704095D+00 -3.0581950235987D-01
25  2.4000000000000D-01  1.0944749517059D+00 -3.2042424054800D-01
26  2.5000000000000D-01  1.1308825292669D+00 -3.3459845049480D-01
27  2.6000000000000D-01  1.1660467118722D+00 -3.4822422263739D-01
28  2.7000000000000D-01  1.1999018190112D+00 -3.6117776041337D-01
29  2.8000000000000D-01  1.2323821496960D+00 -3.7333019474405D-01
30  2.9000000000000D-01  1.2634222689924D+00 -3.8454846688481D-01
31  3.0000000000000D-01  1.2929573105102D+00 -3.9469627346180D-01
32  3.1000000000000D-01  1.3209232929380D+00 -4.0363506694973D-01
33  3.2000000000000D-01  1.3472574485620D+00 -4.1122510432895D-01
34  3.3000000000000D-01  1.3718985615793D+00 -4.1732653619272D-01
35  3.4000000000000D-01  1.3947873139019D+00 -4.2180052816419D-01
36  3.5000000000000D-01  1.4158666360457D+00 -4.2451040612873D-01
37  3.6000000000000D-01  1.4350820606216D+00 -4.2532281649446D-01
38  3.7000000000000D-01  1.4523820758749D+00 -4.2410889246645D-01
39  3.8000000000000D-01  1.4677184766791D+00 -4.2074541715770D-01
40  3.9000000000000D-01  1.4810467103581D+00 -4.1511597426730D-01
41  4.0000000000000D-01  1.4923262147048D+00 -4.0711207703275D-01
42  4.1000000000000D-01  1.5015207455761D+00 -3.9663426621057D-01
43  4.2000000000000D-01  1.5085986914716D+00 -3.8359316795816D-01
44  4.3000000000000D-01  1.5135333725582D+00 -3.6791050267943D-01
45  4.4000000000000D-01  1.5163033216686D+00 -3.4952003615626D-01
46  4.5000000000000D-01  1.5168925448937D+00 -3.2836846461760D-01
47  4.6000000000000D-01  1.5152907594944D+00 -3.0441622579410D-01
48  4.7000000000000D-01  1.5114936069837D+00 -2.7763822846823D-01
49  4.8000000000000D-01  1.5055028393752D+00 -2.4802449355418D-01
50  4.9000000000000D-01  1.4973264767515D+00 -2.1558070032524D-01
51  5.0000000000000D-01  1.4869789344802D+00 -1.8032863204564D-01
52  5.1000000000000D-01  1.4744811185968D+00 -1.4230651595380D-01
53  5.2000000000000D-01  1.4598604880746D+00 -1.0156925328091D-01
54  5.3000000000000D-01  1.4431510829142D+00 -5.8188535767922D-02
55  5.4000000000000D-01  1.4243935172134D+00 -1.2252845956851D-02
56  5.5000000000000D-01  1.4036349366071D+00  3.6132660620569D-02
57  5.6000000000000D-01  1.3809289397092D+00  8.6846392366992D-02
58  5.7000000000000D-01  1.3563354634344D+00  1.3975067777794D-01
59  5.8000000000000D-01  1.3299206323246D+00  1.9469224005946D-01
60  5.9000000000000D-01  1.3017565722577D+00  2.5150278852582D-01
61  6.0000000000000D-01  1.2719211891666D+00  3.0999972419986D-01
62  6.1000000000000D-01  1.2404979136451D+00  3.6998695614521D-01
63  6.2000000000000D-01  1.2075754125631D+00  4.3125582418862D-01
64  6.3000000000000D-01  1.1732472690513D+00  4.9358612283522D-01
65  6.4000000000000D-01  1.1376116324510D+00  5.5674722036286D-01
66  6.5000000000000D-01  1.1007708400431D+00  6.2049926629446D-01
67  6.6000000000000D-01  1.0628310125863D+00  6.8459447970689D-01
68  6.7000000000000D-01  1.0239016258889D+00  7.4877851014562D-01
69  6.8000000000000D-01  9.8409506082763D-01  8.1279186227591D-01
70  6.9000000000000D-01  9.4352613439262D-01  8.7637137482849D-01
71  7.0000000000000D-01  9.0231161448935D-01  9.3925174388811D-01
72  7.1000000000000D-01  8.6056972136213D-01  1.0011670801378D+00
73  7.2000000000000D-01  8.1841961861599D-01  1.0618524893071D+00
74  7.3000000000000D-01  7.7598089690604D-01  1.1210456647906D+00
75  7.4000000000000D-01  7.3337305343391D-01  1.1784884812016D+00
76  7.5000000000000D-01  6.9071497043924D-01  1.2339285775089D+00
77  7.6000000000000D-01  6.4812439589904D-01  1.2871209183734D+00
78  7.7000000000000D-01  6.0571742965004D-01  1.3378293223577D+00
79  7.8000000000000D-01  5.6360801812743D-01  1.3858279458281D+00
80  7.9000000000000D-01  5.2190746086822D-01  1.4309027115983D+00
81  8.0000000000000D-01  4.8072393185936D-01  1.4728526716862D+00
82  8.1000000000000D-01  4.4016201871909D-01  1.5114912939548D+00
83  8.2000000000000D-01  4.0032228258651D-01  1.5466476629007D+00
84  8.3000000000000D-01  3.6130084145873D-01  1.5781675854153D+00
85  8.4000000000000D-01  3.2318897955872D-01  1.6059145929897D+00
86  8.5000000000000D-01  2.8607278514108D-01  1.6297708325468D+00
87  8.6000000000000D-01  2.5003281894836D-01  1.6496378388668D+00
88  8.7000000000000D-01  2.1514381531923D-01  1.6654371824110D+00
89  8.8000000000000D-01  1.8147441772260D-01  1.6771109872506D+00
90  8.9000000000000D-01  1.4908695025097D-01  1.6846223147462D+00
91  9.0000000000000D-01  1.1803722635326D-01  1.6879554096147D+00
92  9.1000000000000D-01  8.8374395824728D-02  1.6871158060378D+00
93  9.2000000000000D-01  6.0140830799843D-02  1.6821302925088D+00
94  9.3000000000000D-01  3.3372051217582D-02  1.6730467351828D+00
95  9.4000000000000D-01  8.0966899471792D-03  1.6599337605586D+00
96  9.5000000000000D-01 -1.5663502519921D-02  1.6428802993997D+00
97  9.6000000000000D-01 -3.7893614187599D-02  1.6219949948569D+00
98  9.7000000000000D-01 -5.8585489139822D-02  1.5974054788153D+00
99  9.8000000000000D-01 -7.7737607517583D-02  1.5692575214821D+00
100  9.9000000000000D-01 -9.5354929087024D-02  1.5377140602459D+00
101  1.0000000000000D+00 -1.1144870185094D-01  1.5029541147654D+00
102  1.0100000000000D+00 -1.2603623740180D-01  1.4651715961409D+00
103  1.0200000000000D+00 -1.3914065494660D-01  1.4245740188547D+00
104  1.0300000000000D+00 -1.5079059615003D-01  1.3813811249367D+00
105  1.0400000000000D+00 -1.6101991314496D-01  1.3358234305153D+00
106  1.0500000000000D+00 -1.6986733222748D-01  1.2881407054948D+00
107  1.0600000000000D+00 -1.7737609593076D-01  1.2385803976881D+00
108  1.0700000000000D+00 -1.8359358629577D-01  1.1873960131322D+00
109  1.0800000000000D+00 -1.8857093227683D-01  1.1348454646815D+00
110  1.0900000000000D+00 -1.9236260431049D-01  1.0811894012181D+00
111  1.1000000000000D+00 -1.9502599913651D-01  1.0266895299684D+00
112  1.1100000000000D+00 -1.9662101800969D-01  9.7160694447961D-01
113  1.1200000000000D+00 -1.9720964144744D-01  9.1620047074216D-01
114  1.1300000000000D+00 -1.9685550364408D-01  8.6072504376261D-01
115  1.1400000000000D+00 -1.9562346965380D-01  8.0543012668711D-01
116  1.1500000000000D+00 -1.9357921837647D-01  7.5055818417726D-01
117  1.1600000000000D+00 -1.9078883429155D-01  6.9634322128788D-01
118  1.1700000000000D+00 -1.8731841075272D-01  6.4300939845166D-01
119  1.1800000000000D+00 -1.8323366757020D-01  5.9076973276165D-01
120  1.1900000000000D+00 -1.7859958539536D-01  5.3982489475803D-01
121  1.2000000000000D+00 -1.7348005925764D-01  4.9036210919254D-01
122  1.2100000000000D+00 -1.6793757339918D-01  4.4255416733237D-01
123  1.2200000000000D+00 -1.6203289938813D-01  3.9655855763449D-01
124  1.2300000000000D+00 -1.5582481916813D-01  3.5251672021584D-01
125  1.2400000000000D+00 -1.4936987445110D-01  3.1055342947874D-01
126  1.2500000000000D+00 -1.4272214377901D-01  2.7077630888820D-01
127  1.2600000000000D+00 -1.3593304805887D-01  2.3327547968261D-01
128  1.2700000000000D+00 -1.2905118518138D-01  1.9812334449772D-01
129  1.2800000000000D+00 -1.2212219423878D-01  1.6537450647109D-01
130  1.2900000000000D+00 -1.1518864928551D-01  1.3506582200478D-01
131  1.3000000000000D+00 -1.0828998236789D-01  1.0721658447985D-01
132  1.3100000000000D+00 -1.0146243554481D-01  8.1828836182668D-02
133  1.3200000000000D+00 -9.4739040916059D-02  5.8887802800580D-02
134  1.3300000000000D+00 -8.8149627601398D-02  3.8362444567337D-02
135  1.3400000000000D+00 -8.1720854575127D-02  2.0206117957409D-02
136  1.3500000000000D+00 -7.5476267508081D-02  4.3573387896836D-03
137  1.3600000000000D+00 -6.9436377959736D-02 -9.2593616116493D-03
138  1.3700000000000D+00 -6.3618762950650D-02 -2.0732496834170D-02
139  1.3800000000000D+00 -5.8038182465940D-02 -3.0162613873610D-02
140  1.3900000000000D+00 -5.2706712732769D-02 -3.7661220071198D-02
141  1.4000000000000D+00 -4.7633892514092D-02 -4.3349661212627D-02
142  1.4100000000000D+00 -4.2826879729677D-02 -4.7357963169472D-02
143  1.4200000000000D+00 -3.8290615675307D-02 -4.9823649707342D-02
144  1.4300000000000D+00 -3.4027993748951D-02 -5.0890550311524D-02
145  1.4400000000000D+00 -3.0040029852510D-02 -5.0707610984661D-02
146  1.4500000000000D+00 -2.6326031308697D-02 -4.9427722115254D-02
147  1.4600000000000D+00 -2.2883761089789D-02 -4.7206577912475D-02
148  1.4700000000000D+00 -1.9709594287972D-02 -4.4201581078499D-02
149  1.4800000000000D+00 -1.6798663927830D-02 -4.0570804405501D-02
150  1.4900000000000D+00 -1.4145005260874D-02 -3.6471967796015D-02
151  1.5000000000000D+00 -1.1741711270929D-02 -3.2061351744233D-02
152  1.5100000000000D+00 -9.5807914037869D-03 -2.7494207163772D-02
153  1.5200000000000D+00 -7.6536216457362D-03 -2.2922193923327D-02
154  1.5300000000000D+00 -5.9517372587314D-03 -1.8489053354845D-02
155  1.5400000000000D+00 -4.4675705069345D-03 -1.4326815036037D-02
156  1.5500000000000D+00 -3.1955573672105D-03 -1.0551535457445D-02
157  1.5600000000000D+00 -2.1322179908877D-03 -7.2631770907159D-03
158  1.5700000000000D+00 -1.2724740200196D-03 -4.5278177980037D-03
159  1.5800000000000D+00 -6.1943047610531D-04 -2.4214005459686D-03
160  1.5900000000000D+00 -1.8695681208321D-04 -1.0588279910398D-03
161  1.6000000000000D+00  3.2578358418481D-05 -3.8032372465802D-04
162  1.6100000000000D+00  7.6960649437217D-05 -1.0608079522683D-04
163  1.6200000000000D+00  2.6197284339184D-05 -1.2818375555838D-05
164  1.6300000000000D+00 -1.2688023057763D-05  2.9026997533013D-06
165  1.6400000000000D+00 -7.2951264075349D-06  3.7115458727546D-07
166  1.6500000000000D+00  2.5865131145981D-06 -1.3179888428233D-06
167  1.6600000000000D+00  1.5007203639483D-06 -6.3146874609162D-07
168  1.6700000000000D+00 -1.8859344286484D-07  5.2550011764473D-07
169  1.6800000000000D+00 -1.0956029184869D-07  3.0528074243249D-07
170  1.6900000000000D+00  0.0000000000000D+00  0.0000000000000D+00
171  1.7000000000000D+00  0.0000000000000D+00  0.0000000000000D+00
172  1.7100000000000D+00  0.0000000000000D+00  0.0000000000000D+00
173  1.7200000000000D+00  0.0000000000000D+00  0.0000000000000D+00
174  1.7300000000000D+00  0.0000000000000D+00  0.0000000000000D+00
175  1.7400000000000D+00  0.0000000000000D+00  0.0000000000000D+00
176  1.7500000000000D+00  0.0000000000000D+00  0.0000000000000D+00
177  1.7600000000000D+00  0.0000000000000D+00  0.0000000000000D+00
178  1.7700000000000D+00  0.0000000000000D+00  0.0000000000000D+00
179  1.7800000000000D+00  0.0000000000000D+00  0.0000000000000D+00
180  1.7900000000000D+00  0.0000000000000D+00  0.0000000000000D+00
181  1.8000000000000D+00  0.0000000000000D+00  0.0000000000000D+00
182  1.8100000000000D+00  0.0000000000000D+00  0.0000000000000D+00
183  1.8200000000000D+00  0.0000000000000D+00  0.0000000000000D+00
184  1.8300000000000D+00  0.0000000000000D+00  0.0000000000000D+00
185  1.8400000000000D+00  0.0000000000000D+00  0.0000000000000D+00
186  1.8500000000000D+00  0.0000000000000D+00  0.0000000000000D+00
187  1.8600000000000D+00  0.0000000000000D+00  0.0000000000000D+00
188  1.8700000000000D+00  0.0000000000000D+00  0.0000000000000D+00
189  1.8800000000000D+00  0.0000000000000D+00  0.0000000000000D+00
190  1.8900000000000D+00  0.0000000000000D+00  0.0000000000000D+00
191  1.9000000000000D+00  0.0000000000000D+00  0.0000000000000D+00
192  1.9100000000000D+00  0.0000000000000D+00  0.0000000000000D+00
193  1.9200000000000D+00  0.0000000000000D+00  0.0000000000000D+00
194  1.9300000000000D+00  0.0000000000000D+00  0.0000000000000D+00
195  1.9400000000000D+00  0.0000000000000D+00  0.0000000000000D+00
196  1.9500000000000D+00  0.0000000000000D+00  0.0000000000000D+00
197  1.9600000000000D+00  0.0000000000000D+00  0.0000000000000D+00
198  1.9700000000000D+00  0.0000000000000D+00  0.0000000000000D+00
199  1.9800000000000D+00  0.0000000000000D+00  0.0000000000000D+00
200  1.9900000000000D+00  0.0000000000000D+00  0.0000000000000D+00
201  2.0000000000000D+00  0.0000000000000D+00  0.0000000000000D+00
202  2.0100000000000D+00  0.0000000000000D+00  0.0000000000000D+00
203  2.0200000000000D+00  0.0000000000000D+00  0.0000000000000D+00
204  2.0300000000000D+00  0.0000000000000D+00  0.0000000000000D+00
205  2.0400000000000D+00  0.0000000000000D+00  0.0000000000000D+00
206  2.0500000000000D+00  0.0000000000000D+00  0.0000000000000D+00
207  2.0600000000000D+00  0.0000000000000D+00  0.0000000000000D+00
208  2.0700000000000D+00  0.0000000000000D+00  0.0000000000000D+00
209  2.0800000000000D+00  0.0000000000000D+00  0.0000000000000D+00
210  2.0900000000000D+00  0.0000000000000D+00  0.0000000000000D+00
211  2.1000000000000D+00  0.0000000000000D+00  0.0000000000000D+00
212  2.1100000000000D+00  0.0000000000000D+00  0.0000000000000D+00
213  2.1200000000000D+00  0.0000000000000D+00  0.0000000000000D+00
214  2.1300000000000D+00  0.0000000000000D+00  0.0000000000000D+00
215  2.1400000000000D+00  0.0000000000000D+00  0.0000000000000D+00
216  2.1500000000000D+00  0.0000000000000D+00  0.0000000000000D+00
217  2.1600000000000D+00  0.0000000000000D+00  0.0000000000000D+00
218  2.1700000000000D+00  0.0000000000000D+00  0.0000000000000D+00
219  2.1800000000000D+00  0.0000000000000D+00  0.0000000000000D+00
220  2.1900000000000D+00  0.0000000000000D+00  0.0000000000000D+00
221  2.2000000000000D+00  0.0000000000000D+00  0.0000000000000D+00
222  2.2100000000000D+00  0.0000000000000D+00  0.0000000000000D+00
223  2.2200000000000D+00  0.0000000000000D+00  0.0000000000000D+00
224  2.2300000000000D+00  0.0000000000000D+00  0.0000000000000D+00
225  2.2400000000000D+00  0.0000000000000D+00  0.0000000000000D+00
226  2.2500000000000D+00  0.0000000000000D+00  0.0000000000000D+00
227  2.2600000000000D+00  0.0000000000000D+00  0.0000000000000D+00
228  2.2700000000000D+00  0.0000000000000D+00  0.0000000000000D+00
229  2.2800000000000D+00  0.0000000000000D+00  0.0000000000000D+00
230  2.2900000000000D+00  0.0000000000000D+00  0.0000000000000D+00
231  2.3000000000000D+00  0.0000000000000D+00  0.0000000000000D+00
232  2.3100000000000D+00  0.0000000000000D+00  0.0000000000000D+00
233  2.3200000000000D+00  0.0000000000000D+00  0.0000000000000D+00
234  2.3300000000000D+00  0.0000000000000D+00  0.0000000000000D+00
235  2.3400000000000D+00  0.0000000000000D+00  0.0000000000000D+00
236  2.3500000000000D+00  0.0000000000000D+00  0.0000000000000D+00
237  2.3600000000000D+00  0.0000000000000D+00  0.0000000000000D+00
238  2.3700000000000D+00  0.0000000000000D+00  0.0000000000000D+00
239  2.3800000000000D+00  0.0000000000000D+00  0.0000000000000D+00
240  2.3900000000000D+00  0.0000000000000D+00  0.0000000000000D+00
241  2.4000000000000D+00  0.0000000000000D+00  0.0000000000000D+00
242  2.4100000000000D+00  0.0000000000000D+00  0.0000000000000D+00
243  2.4200000000000D+00  0.0000000000000D+00  0.0000000000000D+00
244  2.4300000000000D+00  0.0000000000000D+00  0.0000000000000D+00
245  2.4400000000000D+00  0.0000000000000D+00  0.0000000000000D+00
246  2.4500000000000D+00  0.0000000000000D+00  0.0000000000000D+00
247  2.4600000000000D+00  0.0000000000000D+00  0.0000000000000D+00
248  2.4700000000000D+00  0.0000000000000D+00  0.0000000000000D+00
249  2.4800000000000D+00  0.0000000000000D+00  0.0000000000000D+00
250  2.4900000000000D+00  0.0000000000000D+00  0.0000000000000D+00
251  2.5000000000000D+00  0.0000000000000D+00  0.0000000000000D+00
252  2.5100000000000D+00  0.0000000000000D+00  0.0000000000000D+00
253  2.5200000000000D+00  0.0000000000000D+00  0.0000000000000D+00
254  2.5300000000000D+00  0.0000000000000D+00  0.0000000000000D+00
255  2.5400000000000D+00  0.0000000000000D+00  0.0000000000000D+00
256  2.5500000000000D+00  0.0000000000000D+00  0.0000000000000D+00
257  2.5600000000000D+00  0.0000000000000D+00  0.0000000000000D+00
258  2.5700000000000D+00  0.0000000000000D+00  0.0000000000000D+00
259  2.5800000000000D+00  0.0000000000000D+00  0.0000000000000D+00
260  2.5900000000000D+00  0.0000000000000D+00  0.0000000000000D+00
261  2.6000000000000D+00  0.0000000000000D+00  0.0000000000000D+00
262  2.6100000000000D+00  0.0000000000000D+00  0.0000000000000D+00
263  2.6200000000000D+00  0.0000000000000D+00  0.0000000000000D+00
264  2.6300000000000D+00  0.0000000000000D+00  0.0000000000000D+00
265  2.6400000000000D+00  0.0000000000000D+00  0.0000000000000D+00
266  2.6500000000000D+00  0.0000000000000D+00  0.0000000000000D+00
267  2.6600000000000D+00  0.0000000000000D+00  0.0000000000000D+00
268  2.6700000000000D+00  0.0000000000000D+00  0.0000000000000D+00
269  2.6800000000000D+00  0.0000000000000D+00  0.0000000000000D+00
270  2.6900000000000D+00  0.0000000000000D+00  0.0000000000000D+00
271  2.7000000000000D+00  0.0000000000000D+00  0.0000000000000D+00
272  2.7100000000000D+00  0.0000000000000D+00  0.0000000000000D+00
273  2.7200000000000D+00  0.0000000000000D+00  0.0000000000000D+00
274  2.7300000000000D+00  0.0000000000000D+00  0.0000000000000D+00
275  2.7400000000000D+00  0.0000000000000D+00  0.0000000000000D+00
276  2.7500000000000D+00  0.0000000000000D+00  0.0000000000000D+00
277  2.7600000000000D+00  0.0000000000000D+00  0.0000000000000D+00
278  2.7700000000000D+00  0.0000000000000D+00  0.0000000000000D+00
279  2.7800000000000D+00  0.0000000000000D+00  0.0000000000000D+00
280  2.7900000000000D+00  0.0000000000000D+00  0.0000000000000D+00
281  2.8000000000000D+00  0.0000000000000D+00  0.0000000000000D+00
282  2.8100000000000D+00  0.0000000000000D+00  0.0000000000000D+00
283  2.8200000000000D+00  0.0000000000000D+00  0.0000000000000D+00
284  2.8300000000000D+00  0.0000000000000D+00  0.0000000000000D+00
285  2.8400000000000D+00  0.0000000000000D+00  0.0000000000000D+00
286  2.8500000000000D+00  0.0000000000000D+00  0.0000000000000D+00
287  2.8600000000000D+00  0.0000000000000D+00  0.0000000000000D+00
288  2.8700000000000D+00  0.0000000000000D+00  0.0000000000000D+00
289  2.8800000000000D+00  0.0000000000000D+00  0.0000000000000D+00
290  2.8900000000000D+00  0.0000000000000D+00  0.0000000000000D+00
291  2.9000000000000D+00  0.0000000000000D+00  0.0000000000000D+00
292  2.9100000000000D+00  0.0000000000000D+00  0.0000000000000D+00
293  2.9200000000000D+00  0.0000000000000D+00  0.0000000000000D+00
294  2.9300000000000D+00  0.0000000000000D+00  0.0000000000000D+00
295  2.9400000000000D+00  0.0000000000000D+00  0.0000000000000D+00
296  2.9500000000000D+00  0.0000000000000D+00  0.0000000000000D+00
297  2.9600000000000D+00  0.0000000000000D+00  0.0000000000000D+00
298  2.9700000000000D+00  0.0000000000000D+00  0.0000000000000D+00
299  2.9800000000000D+00  0.0000000000000D+00  0.0000000000000D+00
300  2.9900000000000D+00  0.0000000000000D+00  0.0000000000000D+00
301  3.0000000000000D+00  0.0000000000000D+00  0.0000000000000D+00
302  3.0100000000000D+00  0.0000000000000D+00  0.0000000000000D+00
303  3.0200000000000D+00  0.0000000000000D+00  0.0000000000000D+00
304  3.0300000000000D+00  0.0000000000000D+00  0.0000000000000D+00
305  3.0400000000000D+00  0.0000000000000D+00  0.0000000000000D+00
306  3.0500000000000D+00  0.0000000000000D+00  0.0000000000000D+00
307  3.0600000000000D+00  0.0000000000000D+00  0.0000000000000D+00
308  3.0700000000000D+00  0.0000000000000D+00  0.0000000000000D+00
309  3.0800000000000D+00  0.0000000000000D+00  0.0000000000000D+00
310  3.0900000000000D+00  0.0000000000000D+00  0.0000000000000D+00
311  3.1000000000000D+00  0.0000000000000D+00  0.0000000000000D+00
312  3.1100000000000D+00  0.0000000000000D+00  0.0000000000000D+00
313  3.1200000000000D+00  0.0000000000000D+00  0.0000000000000D+00
314  3.1300000000000D+00  0.0000000000000D+00  0.0000000000000D+00
315  3.1400000000000D+00  0.0000000000000D+00  0.0000000000000D+00
316  3.1500000000000D+00  0.0000000000000D+00  0.0000000000000D+00
317  3.1600000000000D+00  0.0000000000000D+00  0.0000000000000D+00
318  3.1700000000000D+00  0.0000000000000D+00  0.0000000000000D+00
319  3.1800000000000D+00  0.0000000000000D+00  0.0000000000000D+00
320  3.1900000000000D+00  0.0000000000000D+00  0.0000000000000D+00
321  3.2000000000000D+00  0.0000000000000D+00  0.0000000000000D+00
322  3.2100000000000D+00  0.0000000000000D+00  0.0000000000000D+00
323  3.2200000000000D+00  0.0000000000000D+00  0.0000000000000D+00
324  3.2300000000000D+00  0.0000000000000D+00  0.0000000000000D+00
325  3.2400000000000D+00  0.0000000000000D+00  0.0000000000000D+00
326  3.2500000000000D+00  0.0000000000000D+00  0.0000000000000D+00
327  3.2600000000000D+00  0.0000000000000D+00  0.0000000000000D+00
328  3.2700000000000D+00  0.0000000000000D+00  0.0000000000000D+00
329  3.2800000000000D+00  0.0000000000000D+00  0.0000000000000D+00
330  3.2900000000000D+00  0.0000000000000D+00  0.0000000000000D+00
331  3.3000000000000D+00  0.0000000000000D+00  0.0000000000000D+00
332  3.3100000000000D+00  0.0000000000000D+00  0.0000000000000D+00
333  3.3200000000000D+00  0.0000000000000D+00  0.0000000000000D+00
334  3.3300000000000D+00  0.0000000000000D+00  0.0000000000000D+00
335  3.3400000000000D+00  0.0000000000000D+00  0.0000000000000D+00
336  3.3500000000000D+00  0.0000000000000D+00  0.0000000000000D+00
337  3.3600000000000D+00  0.0000000000000D+00  0.0000000000000D+00
338  3.3700000000000D+00  0.0000000000000D+00  0.0000000000000D+00
339  3.3800000000000D+00  0.0000000000000D+00  0.0000000000000D+00
340  3.3900000000000D+00  0.0000000000000D+00  0.0000000000000D+00
341  3.4000000000000D+00  0.0000000000000D+00  0.0000000000000D+00
342  3.4100000000000D+00  0.0000000000000D+00  0.0000000000000D+00
343  3.4200000000000D+00  0.0000000000000D+00  0.0000000000000D+00
344  3.4300000000000D+00  0.0000000000000D+00  0.0000000000000D+00
345  3.4400000000000D+00  0.0000000000000D+00  0.0000000000000D+00
346  3.4500000000000D+00  0.0000000000000D+00  0.0000000000000D+00
347  3.4600000000000D+00  0.0000000000000D+00  0.0000000000000D+00
348  3.4700000000000D+00  0.0000000000000D+00  0.0000000000000D+00
349  3.4800000000000D+00  0.0000000000000D+00  0.0000000000000D+00
350  3.4900000000000D+00  0.0000000000000D+00  0.0000000000000D+00
351  3.5000000000000D+00  0.0000000000000D+00  0.0000000000000D+00
352  3.5100000000000D+00  0.0000000000000D+00  0.0000000000000D+00
353  3.5200000000000D+00  0.0000000000000D+00  0.0000000000000D+00
354  3.5300000000000D+00  0.0000000000000D+00  0.0000000000000D+00
355  3.5400000000000D+00  0.0000000000000D+00  0.0000000000000D+00
356  3.5500000000000D+00  0.0000000000000D+00  0.0000000000000D+00
357  3.5600000000000D+00  0.0000000000000D+00  0.0000000000000D+00
358  3.5700000000000D+00  0.0000000000000D+00  0.0000000000000D+00
359  3.5800000000000D+00  0.0000000000000D+00  0.0000000000000D+00
360  3.5900000000000D+00  0.0000000000000D+00  0.0000000000000D+00
361  3.6000000000000D+00  0.0000000000000D+00  0.0000000000000D+00
362  3.6100000000000D+00  0.0000000000000D+00  0.0000000000000D+00
363  3.6200000000000D+00  0.0000000000000D+00  0.0000000000000D+00
364  3.6300000000000D+00  0.0000000000000D+00  0.0000000000000D+00
365  3.6400000000000D+00  0.0000000000000D+00  0.0000000000000D+00
366  3.6500000000000D+00  0.0000000000000D+00  0.0000000000000D+00
367  3.6600000000000D+00  0.0000000000000D+00  0.0000000000000D+00
368  3.6700000000000D+00  0.0000000000000D+00  0.0000000000000D+00
369  3.6800000000000D+00  0.0000000000000D+00  0.0000000000000D+00
370  3.6900000000000D+00  0.0000000000000D+00  0.0000000000000D+00
371  3.7000000000000D+00  0.0000000000000D+00  0.0000000000000D+00
372  3.7100000000000D+00  0.0000000000000D+00  0.0000000000000D+00
373  3.7200000000000D+00  0.0000000000000D+00  0.0000000000000D+00
374  3.7300000000000D+00  0.0000000000000D+00  0.0000000000000D+00
375  3.7400000000000D+00  0.0000000000000D+00  0.0000000000000D+00
376  3.7500000000000D+00  0.0000000000000D+00  0.0000000000000D+00
377  3.7600000000000D+00  0.0000000000000D+00  0.0000000000000D+00
378  3.7700000000000D+00  0.0000000000000D+00  0.0000000000000D+00
379  3.7800000000000D+00  0.0000000000000D+00  0.0000000000000D+00
380  3.7900000000000D+00  0.0000000000000D+00  0.0000000000000D+00
381  3.8000000000000D+00  0.0000000000000D+00  0.0000000000000D+00
382  3.8100000000000D+00  0.0000000000000D+00  0.0000000000000D+00
383  3.8200000000000D+00  0.0000000000000D+00  0.0000000000000D+00
384  3.8300000000000D+00  0.0000000000000D+00  0.0000000000000D+00
385  3.8400000000000D+00  0.0000000000000D+00  0.0000000000000D+00
386  3.8500000000000D+00  0.0000000000000D+00  0.0000000000000D+00
387  3.8600000000000D+00  0.0000000000000D+00  0.0000000000000D+00
388  3.8700000000000D+00  0.0000000000000D+00  0.0000000000000D+00
389  3.8800000000000D+00  0.0000000000000D+00  0.0000000000000D+00
390  3.8900000000000D+00  0.0000000000000D+00  0.0000000000000D+00
391  3.9000000000000D+00  0.0000000000000D+00  0.0000000000000D+00
392  3.9100000000000D+00  0.0000000000000D+00  0.0000000000000D+00
393  3.9200000000000D+00  0.0000000000000D+00  0.0000000000000D+00
394  3.9300000000000D+00  0.0000000000000D+00  0.0000000000000D+00
395  3.9400000000000D+00  0.0000000000000D+00  0.0000000000000D+00
396  3.9500000000000D+00  0.0000000000000D+00  0.0000000000000D+00
397  3.9600000000000D+00  0.0000000000000D+00  0.0000000000000D+00
398  3.9700000000000D+00  0.0000000000000D+00  0.0000000000000D+00
399  3.9800000000000D+00  0.0000000000000D+00  0.0000000000000D+00
400  3.9900000000000D+00  0.0000000000000D+00  0.0000000000000D+00
401  4.0000000000000D+00  0.0000000000000D+00  0.0000000000000D+00
402  4.0100000000000D+00  0.0000000000000D+00  0.0000000000000D+00
403  4.0200000000000D+00  0.0000000000000D+00  0.0000000000000D+00
404  4.0300000000000D+00  0.0000000000000D+00  0.0000000000000D+00
405  4.0400000000000D+00  0.0000000000000D+00  0.0000000000000D+00
406  4.0500000000000D+00  0.0000000000000D+00  0.0000000000000D+00
407  4.0600000000000D+00  0.0000000000000D+00  0.0000000000000D+00
408  4.0700000000000D+00  0.0000000000000D+00  0.0000000000000D+00
409  4.0800000000000D+00  0.0000000000000D+00  0.0000000000000D+00
410  4.0900000000000D+00  0.0000000000000D+00  0.0000000000000D+00
411  4.1000000000000D+00  0.0000000000000D+00  0.0000000000000D+00
412  4.1100000000000D+00  0.0000000000000D+00  0.0000000000000D+00
413  4.1200000000000D+00  0.0000000000000D+00  0.0000000000000D+00
414  4.1300000000000D+00  0.0000000000000D+00  0.0000000000000D+00
415  4.1400000000000D+00  0.0000000000000D+00  0.0000000000000D+00
416  4.1500000000000D+00  0.0000000000000D+00  0.0000000000000D+00
417  4.1600000000000D+00  0.0000000000000D+00  0.0000000000000D+00
418  4.1700000000000D+00  0.0000000000000D+00  0.0000000000000D+00
419  4.1800000000000D+00  0.0000000000000D+00  0.0000000000000D+00
420  4.1900000000000D+00  0.0000000000000D+00  0.0000000000000D+00
421  4.2000000000000D+00  0.0000000000000D+00  0.0000000000000D+00
422  4.2100000000000D+00  0.0000000000000D+00  0.0000000000000D+00
423  4.2200000000000D+00  0.0000000000000D+00  0.0000000000000D+00
424  4.2300000000000D+00  0.0000000000000D+00  0.0000000000000D+00
425  4.2400000000000D+00  0.0000000000000D+00  0.0000000000000D+00
426  4.2500000000000D+00  0.0000000000000D+00  0.0000000000000D+00
427  4.2600000000000D+00  0.0000000000000D+00  0.0000000000000D+00
428  4.2700000000000D+00  0.0000000000000D+00  0.0000000000000D+00
429  4.2800000000000D+00  0.0000000000000D+00  0.0000000000000D+00
430  4.2900000000000D+00  0.0000000000000D+00  0.0000000000000D+00
431  4.3000000000000D+00  0.0000000000000D+00  0.0000000000000D+00
432  4.3100000000000D+00  0.0000000000000D+00  0.0000000000000D+00
433  4.3200000000000D+00  0.0000000000000D+00  0.0000000000000D+00
434  4.3300000000000D+00  0.0000000000000D+00  0.0000000000000D+00
435  4.3400000000000D+00  0.0000000000000D+00  0.0000000000000D+00
436  4.3500000000000D+00  0.0000000000000D+00  0.0000000000000D+00
437  4.3600000000000D+00  0.0000000000000D+00  0.0000000000000D+00
438  4.3700000000000D+00  0.0000000000000D+00  0.0000000000000D+00
439  4.3800000000000D+00  0.0000000000000D+00  0.0000000000000D+00
440  4.3900000000000D+00  0.0000000000000D+00  0.0000000000000D+00
441  4.4000000000000D+00  0.0000000000000D+00  0.0000000000000D+00
442  4.4100000000000D+00  0.0000000000000D+00  0.0000000000000D+00
443  4.4200000000000D+00  0.0000000000000D+00  0.0000000000000D+00
444  4.4300000000000D+00  0.0000000000000D+00  0.0000000000000D+00