Tl    ONCVPSP-3.2.3  r_core=   2.00701   2.60929   2.00701
81.0000     13.0000      161007    zatom,zion,pspd
8   -1012   2     4   600     0    pspcod,pspxc,lmax,lloc,mmax,r2well
5.99000000  7.00000000  0.00000000    rchrg fchrg qchrg
2     2     2     0     0    nproj
1     1           extension_switch
0                         6.9889344614277D+00  9.8367672091116D-01
1  0.0000000000000D+00 -3.9833081277862D-11  5.3963111756872D-11
2  1.0000000000000D-02  3.5509149473710D-02 -3.4181963906809D-02
3  2.0000000000000D-02  7.0917114545795D-02 -6.8218048525533D-02
4  3.0000000000000D-02  1.0612319298000D-01 -1.0196304505061D-01
5  4.0000000000000D-02  1.4102764459413D-01 -1.3527308253352D-01
6  5.0000000000000D-02  1.7553216660555D-01 -1.6800628905487D-01
7  6.0000000000000D-02  2.0954036218684D-01 -2.0002344362694D-01
8  7.0000000000000D-02  2.4295820001522D-01 -2.3118861580006D-01
9  8.0000000000000D-02  2.7569446263907D-01 -2.6136979000037D-01
10  9.0000000000000D-02  3.0766118153431D-01 -2.9043947169349D-01
11  1.0000000000000D-01  3.3877405678254D-01 -3.1827527254847D-01
12  1.1000000000000D-01  3.6895285937085D-01 -3.4476047186905D-01
13  1.2000000000000D-01  3.9812181419063D-01 -3.6978455166348D-01
14  1.3000000000000D-01  4.2620996189809D-01 -3.9324370284103D-01
15  1.4000000000000D-01  4.5315149789389D-01 -4.1504130015020D-01
16  1.5000000000000D-01  4.7888608678074D-01 -4.3508834361295D-01
17  1.6000000000000D-01  5.0335915076786D-01 -4.5330386435691D-01
18  1.7000000000000D-01  5.2652213060760D-01 -4.6961529290673D-01
19  1.8000000000000D-01  5.4833271777268D-01 -4.8395878816223D-01
20  1.9000000000000D-01  5.6875505671220D-01 -4.9627952546712D-01
21  2.0000000000000D-01  5.8775991615899D-01 -5.0653194235496D-01
22  2.1000000000000D-01  6.0532482860134D-01 -5.1467994074927D-01
23  2.2000000000000D-01  6.2143419717596D-01 -5.2069704459066D-01
24  2.3000000000000D-01  6.3607936938773D-01 -5.2456651206572D-01
25  2.4000000000000D-01  6.4925867721282D-01 -5.2628140181754D-01
26  2.5000000000000D-01  6.6097744329598D-01 -5.2584459272820D-01
27  2.6000000000000D-01  6.7124795310871D-01 -5.2326875707478D-01
28  2.7000000000000D-01  6.8008939309218D-01 -5.1857628707525D-01
29  2.8000000000000D-01  6.8752775496646D-01 -5.1179917505493D-01
30  2.9000000000000D-01  6.9359570654561D-01 -5.0297884767941D-01
31  3.0000000000000D-01  6.9833242955480D-01 -4.9216595491370D-01
32  3.1000000000000D-01  7.0178342510122D-01 -4.7942011457937D-01
33  3.2000000000000D-01  7.0400028760399D-01 -4.6480961359055D-01
34  3.3000000000000D-01  7.0504044813843D-01 -4.4841106715545D-01
35  3.4000000000000D-01  7.0496688829737D-01 -4.3030903743047D-01
36  3.5000000000000D-01  7.0384782581463D-01 -4.1059561330936D-01
37  3.6000000000000D-01  7.0175637333397D-01 -3.8936995321850D-01
38  3.7000000000000D-01  6.9877017183911D-01 -3.6673779297072D-01
39  3.8000000000000D-01  6.9497100038664D-01 -3.4281092090286D-01
40  3.9000000000000D-01  6.9044436390357D-01 -3.1770662268681D-01
41  4.0000000000000D-01  6.8527906092298D-01 -2.9154709835708D-01
42  4.1000000000000D-01  6.7956673323636D-01 -2.6445885424211D-01
43  4.2000000000000D-01  6.7340139953637D-01 -2.3657207261798D-01
44  4.3000000000000D-01  6.6687897521171D-01 -2.0801996202369D-01
45  4.4000000000000D-01  6.6009678053288D-01 -1.7893809128379D-01
46  4.5000000000000D-01  6.5315303953587D-01 -1.4946371037867D-01
47  4.6000000000000D-01  6.4614637196857D-01 -1.1973506138251D-01
48  4.7000000000000D-01  6.3917528071170D-01 -8.9890682754460D-02
49  4.8000000000000D-01  6.3233763712273D-01 -6.0068710319903D-02
50  4.9000000000000D-01  6.2573016677640D-01 -3.0406178314124D-02
51  5.0000000000000D-01  6.1944793808923D-01 -1.0383238807780D-03
52  5.1000000000000D-01  6.1358385631826D-01  2.7902101577612D-02
53  5.2000000000000D-01  6.0822816541488D-01  5.6285510811314D-02
54  5.3000000000000D-01  6.0346796019370D-01  8.3986145539163D-02
55  5.4000000000000D-01  5.9938671124429D-01  1.1088272435331D-01
56  5.5000000000000D-01  5.9606380496918D-01  1.3685907045737D-01
57  5.6000000000000D-01  5.9357410107584D-01  1.6180471605821D-01
58  5.7000000000000D-01  5.9198750978365D-01  1.8561548032150D-01
59  5.8000000000000D-01  5.9136859092789D-01  2.0819401790883D-01
60  5.9000000000000D-01  5.9177617705448D-01  2.2945033523462D-01
61  6.0000000000000D-01  5.9326302249833D-01  2.4930227171813D-01
62  6.1000000000000D-01  5.9587548032894D-01  2.6767594345534D-01
63  6.2000000000000D-01  5.9965320892631D-01  2.8450614690027D-01
64  6.3000000000000D-01  6.0462890982097D-01  2.9973672032206D-01
65  6.4000000000000D-01  6.1082809829408D-01  3.1332086099270D-01
66  6.5000000000000D-01  6.1826890808627D-01  3.2522139626258D-01
67  6.6000000000000D-01  6.2696193141040D-01  3.3541100689092D-01
68  6.7000000000000D-01  6.3691009530173D-01  3.4387240122052D-01
69  6.8000000000000D-01  6.4810857517142D-01  3.5059843901565D-01
70  6.9000000000000D-01  6.6054474625590D-01  3.5559220402096D-01
71  7.0000000000000D-01  6.7419817347739D-01  3.5886702454184D-01
72  7.1000000000000D-01  6.8904064004752D-01  3.6044644159941D-01
73  7.2000000000000D-01  7.0503621496175D-01  3.6036412446663D-01
74  7.3000000000000D-01  7.2214135934425D-01  3.5866373365041D-01
75  7.4000000000000D-01  7.4030507141383D-01  3.5539873164508D-01
76  7.5000000000000D-01  7.5946906965233D-01  3.5063214204325D-01
77  7.6000000000000D-01  7.7956801356692D-01  3.4443625785091D-01
78  7.7000000000000D-01  8.0052976125053D-01  3.3689230011259D-01
79  7.8000000000000D-01  8.2227566275844D-01  3.2809002820795D-01
80  7.9000000000000D-01  8.4472088813673D-01  3.1812730343284D-01
81  8.0000000000000D-01  8.6777478875968D-01  3.0710960772419D-01
82  8.1000000000000D-01  8.9134129045964D-01  2.9514951962639D-01
83  8.2000000000000D-01  9.1531931676540D-01  2.8236614982883D-01
84  8.3000000000000D-01  9.3960324040414D-01  2.6888453882482D-01
85  8.4000000000000D-01  9.6408336106875D-01  2.5483501945394D-01
86  8.5000000000000D-01  9.8864640730780D-01  2.4035254728858D-01
87  8.6000000000000D-01  1.0131760602595D+00  2.2557600201240D-01
88  8.7000000000000D-01  1.0375534968263D+00  2.1064746310988D-01
89  8.8000000000000D-01  1.0616579497713D+00  1.9571146334538D-01
90  8.9000000000000D-01  1.0853672821144D+00  1.8091422364943D-01
91  9.0000000000000D-01  1.1085585731163D+00  1.6640287315713D-01
92  9.1000000000000D-01  1.1311087130578D+00  1.5232465824853D-01
93  9.2000000000000D-01  1.1528950039582D+00  1.3882614453151D-01
94  9.3000000000000D-01  1.1737957633236D+00  1.2605241577626D-01
95  9.4000000000000D-01  1.1936909279797D+00  1.1414627386134D-01
96  9.5000000000000D-01  1.2124626550184D+00  1.0324744382147D-01
97  9.6000000000000D-01  1.2299959168797D+00  9.3491788096915D-02
98  9.7000000000000D-01  1.2461790875971D+00  8.5010534073733D-02
99  9.8000000000000D-01  1.2609045172534D+00  7.7929518972863D-02
100  9.9000000000000D-01  1.2740690917328D+00  7.2368456091970D-02
101  1.0000000000000D+00  1.2855747749020D+00  6.8440226333294D-02
102  1.0100000000000D+00  1.2953291304214D+00  6.6250198854845D-02
103  1.0200000000000D+00  1.3032458204680D+00  6.5895584568091D-02
104  1.0300000000000D+00  1.3092450787418D+00  6.7464826071444D-02
105  1.0400000000000D+00  1.3132541552410D+00  7.1037027455418D-02
106  1.0500000000000D+00  1.3152077304119D+00  7.6681427237277D-02
107  1.0600000000000D+00  1.3150482964116D+00  8.4456917501140D-02
108  1.0700000000000D+00  1.3127265033695D+00  9.4411612105100D-02
109  1.0800000000000D+00  1.3082014686983D+00  1.0658246658854D-01
110  1.0900000000000D+00  1.3014410476679D+00  1.2099495218097D-01
111  1.1000000000000D+00  1.2924220636500D+00  1.3766278603791D-01
112  1.1100000000000D+00  1.2811304966059D+00  1.5658771959979D-01
113  1.1200000000000D+00  1.2675616286167D+00  1.7775938664799D-01
114  1.1300000000000D+00  1.2517201454458D+00  2.0115521236376D-01
115  1.1400000000000D+00  1.2336201933533D+00  2.2674038437271D-01
116  1.1500000000000D+00  1.2132853905709D+00  2.5446788648973D-01
117  1.1600000000000D+00  1.1907487930942D+00  2.8427859553168D-01
118  1.1700000000000D+00  1.1660528146737D+00  3.1610144124838D-01
119  1.1800000000000D+00  1.1392491011329D+00  3.4985362907375D-01
120  1.1900000000000D+00  1.1103983592990D+00  3.8544092517951D-01
121  1.2000000000000D+00  1.0795701411577D+00  4.2275800285624D-01
122  1.2100000000000D+00  1.0468425840287D+00  4.6168884898344D-01
123  1.2200000000000D+00  1.0123021077791D+00  5.0210722904506D-01
124  1.2300000000000D+00  9.7604307029669D-01  5.4387720885577D-01
125  1.2400000000000D+00  9.3816738273508D-01  5.8685373075811D-01
126  1.2500000000000D+00  8.9878408621470D-01  6.3088324181185D-01
127  1.2600000000000D+00  8.5800889178787D-01  6.7580437131894D-01
128  1.2700000000000D+00  8.1596368583646D-01  7.2144865452727D-01
129  1.2800000000000D+00  7.7277600316972D-01  7.6764129921714D-01
130  1.2900000000000D+00  7.2857847017550D-01  8.1420199175472D-01
131  1.3000000000000D+00  6.8350822074996D-01  8.6094573867938D-01
132  1.3100000000000D+00  6.3770628774402D-01  9.0768373987519D-01
133  1.3200000000000D+00  5.9131697276332D-01  9.5422428923854D-01
134  1.3300000000000D+00  5.4448719746604D-01  1.0003736983305D+00
135  1.3400000000000D+00  4.9736583943765D-01  1.0459372385944D+00
136  1.3500000000000D+00  4.5010305587813D-01  1.0907200975014D+00
137  1.3600000000000D+00  4.0284959848510D-01  1.1345283437919D+00
138  1.3700000000000D+00  3.5575612284468D-01  1.1771698970756D+00
139  1.3800000000000D+00  3.0897249582072D-01  1.2184554968126D+00
140  1.3900000000000D+00  2.6264710436478D-01  1.2581996658058D+00
141  1.4000000000000D+00  2.1692616924425D-01  1.2962216632171D+00
142  1.4100000000000D+00  1.7195306714063D-01  1.3323464222137D+00
143  1.4200000000000D+00  1.2786766453749D-01  1.3664054673862D+00
144  1.4300000000000D+00  8.4805666887358D-02  1.3982378069899D+00
145  1.4400000000000D+00  4.2897986194841D-02  1.4276907955856D+00
146  1.4500000000000D+00  2.2701305682668D-03  1.4546209620371D+00
147  1.4600000000000D+00 -3.6958381405442D-02  1.4788947988642D+00
148  1.4700000000000D+00 -7.4674578202332D-02  1.5003895083444D+00
149  1.4800000000000D+00 -1.1077256191694D-01  1.5189937012906D+00
150  1.4900000000000D+00 -1.4515400129265D-01  1.5346080449580D+00
151  1.5000000000000D+00 -1.7772858808393D-01  1.5471458556585D+00
152  1.5100000000000D+00 -2.0841445510521D-01  1.5565336338399D+00
153  1.5200000000000D+00 -2.3713855274165D-01  1.5627115370911D+00
154  1.5300000000000D+00 -2.6383698283288D-01  1.5656337896412D+00
155  1.5400000000000D+00 -2.8845528730903D-01  1.5652690246912D+00
156  1.5500000000000D+00 -3.1094869043043D-01  1.5616005580612D+00
157  1.5600000000000D+00 -3.3128229313934D-01  1.5546265911296D+00
158  1.5700000000000D+00 -3.4943121807195D-01  1.5443603411072D+00
159  1.5800000000000D+00 -3.6538070506565D-01  1.5308300985464D+00
160  1.5900000000000D+00 -3.7912615532902D-01  1.5140792095746D+00
161  1.6000000000000D+00 -3.9067312551719D-01  1.4941659847893D+00
162  1.6100000000000D+00 -4.0003726950306D-01  1.4711635317611D+00
163  1.6200000000000D+00 -4.0724423046468D-01  1.4451595150661D+00
164  1.6300000000000D+00 -4.1232948087448D-01  1.4162558405054D+00
165  1.6400000000000D+00 -4.1533811399192D-01  1.3845682688434D+00
166  1.6500000000000D+00 -4.1632458484427D-01  1.3502259563010D+00
167  1.6600000000000D+00 -4.1535240468594D-01  1.3133709276918D+00
168  1.6700000000000D+00 -4.1249378763192D-01  1.2741574804666D+00
169  1.6800000000000D+00 -4.0782925374850D-01  1.2327515259698D+00
170  1.6900000000000D+00 -4.0144718793692D-01  1.1893298670979D+00
171  1.7000000000000D+00 -3.9344335923006D-01  1.1440794191430D+00
172  1.7100000000000D+00 -3.8392040035740D-01  1.0971963737644D+00
173  1.7200000000000D+00 -3.7298725257496D-01  1.0488853134033D+00
174  1.7300000000000D+00 -3.6075857601911D-01  9.9935827667021D-01
175  1.7400000000000D+00 -3.4735413095237D-01  9.4883378254363D-01
176  1.7500000000000D+00 -3.3289813049847D-01  8.9753581440280D-01
177  1.7600000000000D+00 -3.1751857050605D-01  8.4569277210752D-01
178  1.7700000000000D+00 -3.0134653752865D-01  7.9353639372157D-01
179  1.7800000000000D+00 -2.8451550054656D-01  7.4130065504924D-01
180  1.7900000000000D+00 -2.6716058808480D-01  6.8922064955467D-01
181  1.8000000000000D+00 -2.4941785581206D-01  6.3753145603549D-01
182  1.8100000000000D+00 -2.3142354734103D-01  5.8646699815632D-01
183  1.8200000000000D+00 -2.1331335237111D-01  5.3625890184892D-01
184  1.8300000000000D+00 -1.9522166593482D-01  4.8713535616916D-01
185  1.8400000000000D+00 -1.7728085210789D-01  4.3931998250083D-01
186  1.8500000000000D+00 -1.5962051641902D-01  3.9303071834846D-01
187  1.8600000000000D+00 -1.4236679017532D-01  3.4847872042876D-01
188  1.8700000000000D+00 -1.2564163038926D-01  3.0586729245577D-01
189  1.8800000000000D+00 -1.0956213947985D-01  2.6539084375795D-01
190  1.8900000000000D+00 -9.4239906449661D-02  2.2723388118421D-01
191  1.9000000000000D+00 -7.9780375942742D-02  1.9157004372252D-01
192  1.9100000000000D+00 -6.6282243889205D-02  1.5856117788755D-01
193  1.9200000000000D+00 -5.3836888239628D-02  1.2835646636778D-01
194  1.9300000000000D+00 -4.2527832065138D-02  1.0109160590731D-01
195  1.9400000000000D+00 -3.2434029840993D-02  7.6896960645182D-02
196  1.9500000000000D+00 -2.3619293979554D-02  5.5873022706094D-02
197  1.9600000000000D+00 -1.6123829627238D-02  3.8070812681525D-02
198  1.9700000000000D+00 -9.9710420563547D-03  2.3508376642252D-02
199  1.9800000000000D+00 -5.3124607287110D-03  1.2511761586510D-02
200  1.9900000000000D+00 -2.2268808100417D-03  5.2428796560992D-03
201  2.0000000000000D+00 -5.2795318173828D-04  1.2468718067869D-03
202  2.0100000000000D+00  1.4527706502209D-04 -3.3556828629402D-04
203  2.0200000000000D+00  2.0114588824615D-04 -4.6911024369633D-04
204  2.0300000000000D+00  2.0744801887548D-05 -4.8420451317693D-05
205  2.0400000000000D+00 -6.5723330883748D-05  1.5366323493462D-04
206  2.0500000000000D+00 -3.9414121295478D-05  9.2167680034723D-05
207  2.0600000000000D+00  7.5812057956326D-06 -1.7745096438079D-05
208  2.0700000000000D+00  1.1679725686728D-05 -2.7345952590502D-05
209  2.0800000000000D+00  2.0340974802955D-07 -4.7634319437389D-07
210  2.0900000000000D+00 -7.4705580708846D-08  1.5857015360788D-07
211  2.1000000000000D+00 -4.3574527186069D-08  9.2491342731340D-08
212  2.1100000000000D+00  0.0000000000000D+00  0.0000000000000D+00
213  2.1200000000000D+00  0.0000000000000D+00  0.0000000000000D+00
214  2.1300000000000D+00  0.0000000000000D+00  0.0000000000000D+00
215  2.1400000000000D+00  0.0000000000000D+00  0.0000000000000D+00
216  2.1500000000000D+00  0.0000000000000D+00  0.0000000000000D+00
217  2.1600000000000D+00  0.0000000000000D+00  0.0000000000000D+00
218  2.1700000000000D+00  0.0000000000000D+00  0.0000000000000D+00
219  2.1800000000000D+00  0.0000000000000D+00  0.0000000000000D+00
220  2.1900000000000D+00  0.0000000000000D+00  0.0000000000000D+00
221  2.2000000000000D+00  0.0000000000000D+00  0.0000000000000D+00
222  2.2100000000000D+00  0.0000000000000D+00  0.0000000000000D+00
223  2.2200000000000D+00  0.0000000000000D+00  0.0000000000000D+00
224  2.2300000000000D+00  0.0000000000000D+00  0.0000000000000D+00
225  2.2400000000000D+00  0.0000000000000D+00  0.0000000000000D+00
226  2.2500000000000D+00  0.0000000000000D+00  0.0000000000000D+00
227  2.2600000000000D+00  0.0000000000000D+00  0.0000000000000D+00
228  2.2700000000000D+00  0.0000000000000D+00  0.0000000000000D+00
229  2.2800000000000D+00  0.0000000000000D+00  0.0000000000000D+00
230  2.2900000000000D+00  0.0000000000000D+00  0.0000000000000D+00
231  2.3000000000000D+00  0.0000000000000D+00  0.0000000000000D+00
232  2.3100000000000D+00  0.0000000000000D+00  0.0000000000000D+00
233  2.3200000000000D+00  0.0000000000000D+00  0.0000000000000D+00
234  2.3300000000000D+00  0.0000000000000D+00  0.0000000000000D+00
235  2.3400000000000D+00  0.0000000000000D+00  0.0000000000000D+00
236  2.3500000000000D+00  0.0000000000000D+00  0.0000000000000D+00
237  2.3600000000000D+00  0.0000000000000D+00  0.0000000000000D+00
238  2.3700000000000D+00  0.0000000000000D+00  0.0000000000000D+00
239  2.3800000000000D+00  0.0000000000000D+00  0.0000000000000D+00
240  2.3900000000000D+00  0.0000000000000D+00  0.0000000000000D+00
241  2.4000000000000D+00  0.0000000000000D+00  0.0000000000000D+00
242  2.4100000000000D+00  0.0000000000000D+00  0.0000000000000D+00
243  2.4200000000000D+00  0.0000000000000D+00  0.0000000000000D+00
244  2.4300000000000D+00  0.0000000000000D+00  0.0000000000000D+00
245  2.4400000000000D+00  0.0000000000000D+00  0.0000000000000D+00
246  2.4500000000000D+00  0.0000000000000D+00  0.0000000000000D+00
247  2.4600000000000D+00  0.0000000000000D+00  0.0000000000000D+00
248  2.4700000000000D+00  0.0000000000000D+00  0.0000000000000D+00
249  2.4800000000000D+00  0.0000000000000D+00  0.0000000000000D+00
250  2.4900000000000D+00  0.0000000000000D+00  0.0000000000000D+00
251  2.5000000000000D+00  0.0000000000000D+00  0.0000000000000D+00
252  2.5100000000000D+00  0.0000000000000D+00  0.0000000000000D+00
253  2.5200000000000D+00  0.0000000000000D+00  0.0000000000000D+00
254  2.5300000000000D+00  0.0000000000000D+00  0.0000000000000D+00
255  2.5400000000000D+00  0.0000000000000D+00  0.0000000000000D+00
256  2.5500000000000D+00  0.0000000000000D+00  0.0000000000000D+00
257  2.5600000000000D+00  0.0000000000000D+00  0.0000000000000D+00
258  2.5700000000000D+00  0.0000000000000D+00  0.0000000000000D+00
259  2.5800000000000D+00  0.0000000000000D+00  0.0000000000000D+00
260  2.5900000000000D+00  0.0000000000000D+00  0.0000000000000D+00
261  2.6000000000000D+00  0.0000000000000D+00  0.0000000000000D+00
262  2.6100000000000D+00  0.0000000000000D+00  0.0000000000000D+00
263  2.6200000000000D+00  0.0000000000000D+00  0.0000000000000D+00
264  2.6300000000000D+00  0.0000000000000D+00  0.0000000000000D+00
265  2.6400000000000D+00  0.0000000000000D+00  0.0000000000000D+00
266  2.6500000000000D+00  0.0000000000000D+00  0.0000000000000D+00
267  2.6600000000000D+00  0.0000000000000D+00  0.0000000000000D+00
268  2.6700000000000D+00  0.0000000000000D+00  0.0000000000000D+00
269  2.6800000000000D+00  0.0000000000000D+00  0.0000000000000D+00
270  2.6900000000000D+00  0.0000000000000D+00  0.0000000000000D+00
271  2.7000000000000D+00  0.0000000000000D+00  0.0000000000000D+00
272  2.7100000000000D+00  0.0000000000000D+00  0.0000000000000D+00
273  2.7200000000000D+00  0.0000000000000D+00  0.0000000000000D+00
274  2.7300000000000D+00  0.0000000000000D+00  0.0000000000000D+00
275  2.7400000000000D+00  0.0000000000000D+00  0.0000000000000D+00
276  2.7500000000000D+00  0.0000000000000D+00  0.0000000000000D+00
277  2.7600000000000D+00  0.0000000000000D+00  0.0000000000000D+00
278  2.7700000000000D+00  0.0000000000000D+00  0.0000000000000D+00
279  2.7800000000000D+00  0.0000000000000D+00  0.0000000000000D+00
280  2.7900000000000D+00  0.0000000000000D+00  0.0000000000000D+00
281  2.8000000000000D+00  0.0000000000000D+00  0.0000000000000D+00
282  2.8100000000000D+00  0.0000000000000D+00  0.0000000000000D+00
283  2.8200000000000D+00  0.0000000000000D+00  0.0000000000000D+00
284  2.8300000000000D+00  0.0000000000000D+00  0.0000000000000D+00
285  2.8400000000000D+00  0.0000000000000D+00  0.0000000000000D+00
286  2.8500000000000D+00  0.0000000000000D+00  0.0000000000000D+00
287  2.8600000000000D+00  0.0000000000000D+00  0.0000000000000D+00
288  2.8700000000000D+00  0.0000000000000D+00  0.0000000000000D+00
289  2.8800000000000D+00  0.0000000000000D+00  0.0000000000000D+00
290  2.8900000000000D+00  0.0000000000000D+00  0.0000000000000D+00
291  2.9000000000000D+00  0.0000000000000D+00  0.0000000000000D+00
292  2.9100000000000D+00  0.0000000000000D+00  0.0000000000000D+00
293  2.9200000000000D+00  0.0000000000000D+00  0.0000000000000D+00
294  2.9300000000000D+00  0.0000000000000D+00  0.0000000000000D+00
295  2.9400000000000D+00  0.0000000000000D+00  0.0000000000000D+00
296  2.9500000000000D+00  0.0000000000000D+00  0.0000000000000D+00
297  2.9600000000000D+00  0.0000000000000D+00  0.0000000000000D+00
298  2.9700000000000D+00  0.0000000000000D+00  0.0000000000000D+00
299  2.9800000000000D+00  0.0000000000000D+00  0.0000000000000D+00
300  2.9900000000000D+00  0.0000000000000D+00  0.0000000000000D+00
301  3.0000000000000D+00  0.0000000000000D+00  0.0000000000000D+00
302  3.0100000000000D+00  0.0000000000000D+00  0.0000000000000D+00
303  3.0200000000000D+00  0.0000000000000D+00  0.0000000000000D+00
304  3.0300000000000D+00  0.0000000000000D+00  0.0000000000000D+00
305  3.0400000000000D+00  0.0000000000000D+00  0.0000000000000D+00
306  3.0500000000000D+00  0.0000000000000D+00  0.0000000000000D+00
307  3.0600000000000D+00  0.0000000000000D+00  0.0000000000000D+00
308  3.0700000000000D+00  0.0000000000000D+00  0.0000000000000D+00
309  3.0800000000000D+00  0.0000000000000D+00  0.0000000000000D+00
310  3.0900000000000D+00  0.0000000000000D+00  0.0000000000000D+00
311  3.1000000000000D+00  0.0000000000000D+00  0.0000000000000D+00
312  3.1100000000000D+00  0.0000000000000D+00  0.0000000000000D+00
313  3.1200000000000D+00  0.0000000000000D+00  0.0000000000000D+00
314  3.1300000000000D+00  0.0000000000000D+00  0.0000000000000D+00
315  3.1400000000000D+00  0.0000000000000D+00  0.0000000000000D+00
316  3.1500000000000D+00  0.0000000000000D+00  0.0000000000000D+00
317  3.1600000000000D+00  0.0000000000000D+00  0.0000000000000D+00
318  3.1700000000000D+00  0.0000000000000D+00  0.0000000000000D+00
319  3.1800000000000D+00  0.0000000000000D+00  0.0000000000000D+00
320  3.1900000000000D+00  0.0000000000000D+00  0.0000000000000D+00
321  3.2000000000000D+00  0.0000000000000D+00  0.0000000000000D+00
322  3.2100000000000D+00  0.0000000000000D+00  0.0000000000000D+00
323  3.2200000000000D+00  0.0000000000000D+00  0.0000000000000D+00
324  3.2300000000000D+00  0.0000000000000D+00  0.0000000000000D+00
325  3.2400000000000D+00  0.0000000000000D+00  0.0000000000000D+00
326  3.2500000000000D+00  0.0000000000000D+00  0.0000000000000D+00
327  3.2600000000000D+00  0.0000000000000D+00  0.0000000000000D+00
328  3.2700000000000D+00  0.0000000000000D+00  0.0000000000000D+00
329  3.2800000000000D+00  0.0000000000000D+00  0.0000000000000D+00
330  3.2900000000000D+00  0.0000000000000D+00  0.0000000000000D+00
331  3.3000000000000D+00  0.0000000000000D+00  0.0000000000000D+00
332  3.3100000000000D+00  0.0000000000000D+00  0.0000000000000D+00
333  3.3200000000000D+00  0.0000000000000D+00  0.0000000000000D+00
334  3.3300000000000D+00  0.0000000000000D+00  0.0000000000000D+00
335  3.3400000000000D+00  0.0000000000000D+00  0.0000000000000D+00
336  3.3500000000000D+00  0.0000000000000D+00  0.0000000000000D+00
337  3.3600000000000D+00  0.0000000000000D+00  0.0000000000000D+00
338  3.3700000000000D+00  0.0000000000000D+00  0.0000000000000D+00
339  3.3800000000000D+00  0.0000000000000D+00  0.0000000000000D+00
340  3.3900000000000D+00  0.0000000000000D+00  0.0000000000000D+00
341  3.4000000000000D+00  0.0000000000000D+00  0.0000000000000D+00
342  3.4100000000000D+00  0.0000000000000D+00  0.0000000000000D+00
343  3.4200000000000D+00  0.0000000000000D+00  0.0000000000000D+00
344  3.4300000000000D+00  0.0000000000000D+00  0.0000000000000D+00
345  3.4400000000000D+00  0.0000000000000D+00  0.0000000000000D+00
346  3.4500000000000D+00  0.0000000000000D+00  0.0000000000000D+00
347  3.4600000000000D+00  0.0000000000000D+00  0.0000000000000D+00
348  3.4700000000000D+00  0.0000000000000D+00  0.0000000000000D+00
349  3.4800000000000D+00  0.0000000000000D+00  0.0000000000000D+00
350  3.4900000000000D+00  0.0000000000000D+00  0.0000000000000D+00
351  3.5000000000000D+00  0.0000000000000D+00  0.0000000000000D+00
352  3.5100000000000D+00  0.0000000000000D+00  0.0000000000000D+00
353  3.5200000000000D+00  0.0000000000000D+00  0.0000000000000D+00
354  3.5300000000000D+00  0.0000000000000D+00  0.0000000000000D+00
355  3.5400000000000D+00  0.0000000000000D+00  0.0000000000000D+00
356  3.5500000000000D+00  0.0000000000000D+00  0.0000000000000D+00
357  3.5600000000000D+00  0.0000000000000D+00  0.0000000000000D+00
358  3.5700000000000D+00  0.0000000000000D+00  0.0000000000000D+00
359  3.5800000000000D+00  0.0000000000000D+00  0.0000000000000D+00
360  3.5900000000000D+00  0.0000000000000D+00  0.0000000000000D+00
361  3.6000000000000D+00  0.0000000000000D+00  0.0000000000000D+00
362  3.6100000000000D+00  0.0000000000000D+00  0.0000000000000D+00
363  3.6200000000000D+00  0.0000000000000D+00  0.0000000000000D+00
364  3.6300000000000D+00  0.0000000000000D+00  0.0000000000000D+00
365  3.6400000000000D+00  0.0000000000000D+00  0.0000000000000D+00
366  3.6500000000000D+00  0.0000000000000D+00  0.0000000000000D+00
367  3.6600000000000D+00  0.0000000000000D+00  0.0000000000000D+00
368  3.6700000000000D+00  0.0000000000000D+00  0.0000000000000D+00
369  3.6800000000000D+00  0.0000000000000D+00  0.0000000000000D+00
370  3.6900000000000D+00  0.0000000000000D+00  0.0000000000000D+00
371  3.7000000000000D+00  0.0000000000000D+00  0.0000000000000D+00
372  3.7100000000000D+00  0.0000000000000D+00  0.0000000000000D+00
373  3.7200000000000D+00  0.0000000000000D+00  0.0000000000000D+00
374  3.7300000000000D+00  0.0000000000000D+00  0.0000000000000D+00
375  3.7400000000000D+00  0.0000000000000D+00  0.0000000000000D+00
376  3.7500000000000D+00  0.0000000000000D+00  0.0000000000000D+00
377  3.7600000000000D+00  0.0000000000000D+00  0.0000000000000D+00
378  3.7700000000000D+00  0.0000000000000D+00  0.0000000000000D+00
379  3.7800000000000D+00  0.0000000000000D+00  0.0000000000000D+00
380  3.7900000000000D+00  0.0000000000000D+00  0.0000000000000D+00
381  3.8000000000000D+00  0.0000000000000D+00  0.0000000000000D+00
382  3.8100000000000D+00  0.0000000000000D+00  0.0000000000000D+00
383  3.8200000000000D+00  0.0000000000000D+00  0.0000000000000D+00
384  3.8300000000000D+00  0.0000000000000D+00  0.0000000000000D+00
385  3.8400000000000D+00  0.0000000000000D+00  0.0000000000000D+00
386  3.8500000000000D+00  0.0000000000000D+00  0.0000000000000D+00
387  3.8600000000000D+00  0.0000000000000D+00  0.0000000000000D+00
388  3.8700000000000D+00  0.0000000000000D+00  0.0000000000000D+00
389  3.8800000000000D+00  0.0000000000000D+00  0.0000000000000D+00
390  3.8900000000000D+00  0.0000000000000D+00  0.0000000000000D+00
391  3.9000000000000D+00  0.0000000000000D+00  0.0000000000000D+00
392  3.9100000000000D+00  0.0000000000000D+00  0.0000000000000D+00
393  3.9200000000000D+00  0.0000000000000D+00  0.0000000000000D+00
394  3.9300000000000D+00  0.0000000000000D+00  0.0000000000000D+00
395  3.9400000000000D+00  0.0000000000000D+00  0.0000000000000D+00
396  3.9500000000000D+00  0.0000000000000D+00  0.0000000000000D+00
397  3.9600000000000D+00  0.0000000000000D+00  0.0000000000000D+00
398  3.9700000000000D+00  0.0000000000000D+00  0.0000000000000D+00
399  3.9800000000000D+00  0.0000000000000D+00  0.0000000000000D+00
400  3.9900000000000D+00  0.0000000000000D+00  0.0000000000000D+00
401  4.0000000000000D+00  0.0000000000000D+00  0.0000000000000D+00
402  4.0100000000000D+00  0.0000000000000D+00  0.0000000000000D+00
403  4.0200000000000D+00  0.0000000000000D+00  0.0000000000000D+00
404  4.0300000000000D+00  0.0000000000000D+00  0.0000000000000D+00
405  4.0400000000000D+00  0.0000000000000D+00  0.0000000000000D+00
406  4.0500000000000D+00  0.0000000000000D+00  0.0000000000000D+00
407  4.0600000000000D+00  0.0000000000000D+00  0.0000000000000D+00
408  4.0700000000000D+00  0.0000000000000D+00  0.0000000000000D+00
409  4.0800000000000D+00  0.0000000000000D+00  0.0000000000000D+00
410  4.0900000000000D+00  0.0000000000000D+00  0.0000000000000D+00
411  4.1000000000000D+00  0.0000000000000D+00  0.0000000000000D+00
412  4.1100000000000D+00  0.0000000000000D+00  0.0000000000000D+00
413  4.1200000000000D+00  0.0000000000000D+00  0.0000000000000D+00
414  4.1300000000000D+00  0.0000000000000D+00  0.0000000000000D+00
415  4.1400000000000D+00  0.0000000000000D+00  0.0000000000000D+00
416  4.1500000000000D+00  0.0000000000000D+00  0.0000000000000D+00
417  4.1600000000000D+00  0.0000000000000D+00  0.0000000000000D+00
418  4.1700000000000D+00  0.0000000000000D+00  0.0000000000000D+00
419  4.1800000000000D+00  0.0000000000000D+00  0.0000000000000D+00
420  4.1900000000000D+00  0.0000000000000D+00  0.0000000000000D+00
421  4.2000000000000D+00  0.0000000000000D+00  0.0000000000000D+00
422  4.2100000000000D+00  0.0000000000000D+00  0.0000000000000D+00
423  4.2200000000000D+00  0.0000000000000D+00  0.0000000000000D+00
424  4.2300000000000D+00  0.0000000000000D+00  0.0000000000000D+00
425  4.2400000000000D+00  0.0000000000000D+00  0.0000000000000D+00
426  4.2500000000000D+00  0.0000000000000D+00  0.0000000000000D+00
427  4.2600000000000D+00  0.0000000000000D+00  0.0000000000000D+00
428  4.2700000000000D+00  0.0000000000000D+00  0.0000000000000D+00
429  4.2800000000000D+00  0.0000000000000D+00  0.0000000000000D+00
430  4.2900000000000D+00  0.0000000000000D+00  0.0000000000000D+00
431  4.3000000000000D+00  0.0000000000000D+00  0.0000000000000D+00
432  4.3100000000000D+00  0.0000000000000D+00  0.0000000000000D+00
433  4.3200000000000D+00  0.0000000000000D+00  0.0000000000000D+00
434  4.3300000000000D+00  0.0000000000000D+00  0.0000000000000D+00
435  4.3400000000000D+00  0.0000000000000D+00  0.0000000000000D+00
436  4.3500000000000D+00  0.0000000000000D+00  0.0000000000000D+00
437  4.3600000000000D+00  0.0000000000000D+00  0.0000000000000D+00
438  4.3700000000000D+00  0.0000000000000D+00  0.0000000000000D+00
439  4.3800000000000D+00  0.0000000000000D+00  0.0000000000000D+00
440  4.3900000000000D+00  0.0000000000000D+00  0.0000000000000D+00
441  4.4000000000000D+00  0.0000000000000D+00  0.0000000000000D+00
442  4.4100000000000D+00  0.0000000000000D+00  0.0000000000000D+00
443  4.4200000000000D+00  0.0000000000000D+00  0.0000000000000D+00