Na    ONCVPSP-3.3.0  r_core=   1.20708   1.55069
11.0000      9.0000      171101    zatom,zion,pspd
8   -1012   1     4   400     0    pspcod,pspxc,lmax,lloc,mmax,r2well
3.99000000  0.00000000  0.00000000    rchrg fchrg qchrg
2     2     0     0     0    nproj
1     1           extension_switch
0                         2.6647407252552D+00 -6.7431385751214D-01
1  0.0000000000000D+00  2.4798127995496D-09  5.6058091502109D-10
2  1.0000000000000D-02  9.3470196139278D-02  2.1046542248701D-02
3  2.0000000000000D-02  1.8671296971788D-01  4.2173911045185D-02
4  3.0000000000000D-02  2.7949966857910D-01  6.3461938631078D-02
5  4.0000000000000D-02  3.7159921967479D-01  8.4988480151895D-02
6  5.0000000000000D-02  4.6277701372802D-01  1.0682845375470D-01
7  6.0000000000000D-02  5.5279390223379D-01  1.2905291465703D-01
8  7.0000000000000D-02  6.4140534128572D-01  1.5172817384377D-01
9  8.0000000000000D-02  7.2836071423645D-01  1.7491497148818D-01
10  9.0000000000000D-02  8.1340286216917D-01  1.9866771450634D-01
11  1.0000000000000D-01  8.9626784762004D-01  2.2303378684992D-01
12  1.1000000000000D-01  9.7668497300024D-01  2.4805294023107D-01
13  1.2000000000000D-01  1.0543770707792D+00  2.7375677196681D-01
14  1.3000000000000D-01  1.1290610777736D+00  3.0016829554208D-01
15  1.4000000000000D-01  1.2004489009090D+00  3.2730160833443D-01
16  1.5000000000000D-01  1.2682485766572D+00  3.5516165973454D-01
17  1.6000000000000D-01  1.3321657210801D+00  3.8374412165072D-01
18  1.7000000000000D-01  1.3919052621085D+00  4.1303536211883D-01
19  1.8000000000000D-01  1.4471734404323D+00  4.4301252146782D-01
20  1.9000000000000D-01  1.4976800602584D+00  4.7364368923219D-01
21  2.0000000000000D-01  1.5431409662811D+00  5.0488817877217D-01
22  2.1000000000000D-01  1.5832807185829D+00  5.3669689537638D-01
23  2.2000000000000D-01  1.6178354329165D+00  5.6901279249566D-01
24  2.3000000000000D-01  1.6465557499765D+00  6.0177140970518D-01
25  2.4000000000000D-01  1.6692098939167D+00  6.3490148502832D-01
26  2.5000000000000D-01  1.6855867775602D+00  6.6832563339286D-01
27  2.6000000000000D-01  1.6954991095333D+00  7.0196108223843D-01
28  2.7000000000000D-01  1.6987864569728D+00  7.3572045466422D-01
29  2.8000000000000D-01  1.6953182165414D+00  7.6951259000470D-01
30  2.9000000000000D-01  1.6849964462551D+00  8.0324339135589D-01
31  3.0000000000000D-01  1.6677585111002D+00  8.3681668934894D-01
32  3.1000000000000D-01  1.6435794965962D+00  8.7013511138513D-01
33  3.2000000000000D-01  1.6124743463324D+00  9.0310094560664D-01
34  3.3000000000000D-01  1.5744996820605D+00  9.3561698907978D-01
35  3.4000000000000D-01  1.5297552681361D+00  9.6758737000873D-01
36  3.5000000000000D-01  1.4783850859244D+00  9.9891833427329D-01
37  3.6000000000000D-01  1.4205779881816D+00  1.0295189871859D+00
38  3.7000000000000D-01  1.3565679083421D+00  1.0593019820850D+00
39  3.8000000000000D-01  1.2866336050062D+00  1.0881841482101D+00
40  3.9000000000000D-01  1.2110979276845D+00  1.1160870512312D+00
41  4.0000000000000D-01  1.1303265959190D+00  1.1429374808152D+00
42  4.1000000000000D-01  1.0447264902019D+00  1.1686678606906D+00
43  4.2000000000000D-01  9.5474345955519D-01  1.1932165778093D+00
44  4.3000000000000D-01  8.6085965713742D-01  1.2165282283768D+00
45  4.4000000000000D-01  7.6359042171082D-01  1.2385537797182D+00
46  4.5000000000000D-01  6.6348072915292D-01  1.2592506481524D+00
47  4.6000000000000D-01  5.6110124432895D-01  1.2785826942379D+00
48  4.7000000000000D-01  4.5704400947828D-01  1.2965201379199D+00
49  4.8000000000000D-01  3.5191781071814D-01  1.3130393972276D+00
50  4.9000000000000D-01  2.4634326925354D-01  1.3281228552389D+00
51  5.0000000000000D-01  1.4094770832729D-01  1.3417585610113D+00
52  5.1000000000000D-01  3.6359850781481D-02  1.3539398710858D+00
53  5.2000000000000D-01 -6.6795594730447D-02  1.3646650389675D+00
54  5.3000000000000D-01 -1.6790339839628D-01  1.3739367606762D+00
55  5.4000000000000D-01 -2.6636326259422D-01  1.3817616850305D+00
56  5.5000000000000D-01 -3.6159520088683D-01  1.3881498977660D+00
57  5.6000000000000D-01 -4.5304477954072D-01  1.3931143888904D+00
58  5.7000000000000D-01 -5.4018815922051D-01  1.3966705128465D+00
59  5.8000000000000D-01 -6.2253687609648D-01  1.3988354510686D+00
60  5.9000000000000D-01 -6.9964230402703D-01  1.3996276864037D+00
61  6.0000000000000D-01 -7.7109974267595D-01  1.3990664986027D+00
62  6.1000000000000D-01 -8.3655208041559D-01  1.3971714896894D+00
63  6.2000000000000D-01 -8.9569298553089D-01  1.3939621474854D+00
64  6.3000000000000D-01 -9.4826958461946D-01  1.3894574549134D+00
65  6.4000000000000D-01 -9.9408459301235D-01  1.3836755519333D+00
66  6.5000000000000D-01 -1.0329978685133D+00  1.3766334560940D+00
67  6.6000000000000D-01 -1.0649273666853D+00  1.3683468467173D+00
68  6.7000000000000D-01 -1.0898494831635D+00  1.3588299166923D+00
69  6.8000000000000D-01 -1.1077987759996D+00  1.3480952947539D+00
70  6.9000000000000D-01 -1.1188670687459D+00  1.3361540399690D+00
71  7.0000000000000D-01 -1.1232019427230D+00  1.3230157089743D+00
72  7.1000000000000D-01 -1.1210046346072D+00  1.3086884953184D+00
73  7.2000000000000D-01 -1.1125273630332D+00  1.2931794390745D+00
74  7.3000000000000D-01 -1.0980701152111D+00  1.2764947037208D+00
75  7.4000000000000D-01 -1.0779769314922D+00  1.2586399161652D+00
76  7.5000000000000D-01 -1.0526317323160D+00  1.2396205647171D+00
77  7.6000000000000D-01 -1.0224537379390D+00  1.2194424488142D+00
78  7.7000000000000D-01 -9.8789253665116D-01  1.1981121734008D+00
79  7.8000000000000D-01 -9.4942286184634D-01  1.1756376800443D+00
80  7.9000000000000D-01 -9.0753914215091D-01  1.1520288061785D+00
81  8.0000000000000D-01 -8.6274989185525D-01  1.1272978632930D+00
82  8.1000000000000D-01 -8.1557201104961D-01  1.1014602244459D+00
83  8.2000000000000D-01 -7.6652506611480D-01  1.0745349111788D+00
84  8.3000000000000D-01 -7.1612562153463D-01  1.0465451697604D+00
85  8.4000000000000D-01 -6.6488169336976D-01  1.0175190266796D+00
86  8.5000000000000D-01 -6.1328739316596D-01  9.8748981345407D-01
87  8.6000000000000D-01 -5.6181782857720D-01  9.5649665111473D-01
88  8.7000000000000D-01 -5.1092432359462D-01  9.2458488516552D-01
89  8.8000000000000D-01 -4.6103001702741D-01  8.9180646239702D-01
90  8.9000000000000D-01 -4.1252589283242D-01  8.5822024164407D-01
91  9.0000000000000D-01 -3.6576729010161D-01  8.2389223141275D-01
92  9.1000000000000D-01 -3.2107093406361D-01  7.8889574824851D-01
93  9.2000000000000D-01 -2.7871252242331D-01  7.5331149076303D-01
94  9.3000000000000D-01 -2.3892489384344D-01  7.1722752536782D-01
95  9.4000000000000D-01 -2.0189679746502D-01  6.8073918096130D-01
96  9.5000000000000D-01 -1.6777227418777D-01  6.4394885106575D-01
97  9.6000000000000D-01 -1.3665065200638D-01  6.0696570320630D-01
98  9.7000000000000D-01 -1.0858714942117D-01  5.6990529660426D-01
99  9.8000000000000D-01 -8.3594072451224D-02  5.3288911057731D-01
100  9.9000000000000D-01 -6.1642582631620D-02  4.9604398731114D-01
101  1.0000000000000D+00 -4.2665005500624D-02  4.5950149390249D-01
102  1.0100000000000D+00 -2.6557641551446D-02  4.2339720975888D-01
103  1.0200000000000D+00 -1.3184034634585D-02  3.8786994654451D-01
104  1.0300000000000D+00 -2.3786462862683D-03  3.5306090889381D-01
105  1.0400000000000D+00  6.0491210311313D-03  3.1911280498734D-01
106  1.0500000000000D+00  1.2310614018606D-02  2.8616891691847D-01
107  1.0600000000000D+00  1.6633398207402D-02  2.5437214142146D-01
108  1.0700000000000D+00  1.9256576661551D-02  2.2386401204773D-01
109  1.0800000000000D+00  2.0426029488630D-02  1.9478371425177D-01
110  1.0900000000000D+00  2.0389647160029D-02  1.6726710504967D-01
111  1.1000000000000D+00  1.9392631131360D-02  1.4144574899696D-01
112  1.1100000000000D+00  1.7672934404169D-02  1.1744598210206D-01
113  1.1200000000000D+00  1.5456913067902D-02  9.5388015039372D-02
114  1.1300000000000D+00  1.2955256788764D-02  7.5385086537817D-02
115  1.1400000000000D+00  1.0359263692108D-02  5.7542677419539D-02
116  1.1500000000000D+00  7.8375192921869D-03  4.1957794836837D-02
117  1.1600000000000D+00  5.5330345497503D-03  2.8718335521503D-02
118  1.1700000000000D+00  3.5621698962319D-03  1.7907798755855D-02
119  1.1800000000000D+00  2.0036888190487D-03  9.5692308318712D-03
120  1.1900000000000D+00  9.1689154434184D-04  3.7791165043025D-03
121  1.2000000000000D+00  3.7887640662846D-04  7.4777648860823D-04
122  1.2100000000000D+00  1.5910049665180D-04 -1.3733865496114D-04
123  1.2200000000000D+00  1.4292468755742D-05 -3.4022267495592D-05
124  1.2300000000000D+00 -1.3598336505675D-05  4.2511766746798D-05
125  1.2400000000000D+00  3.0439371470743D-06 -6.5866893938617D-06
126  1.2500000000000D+00  7.3169962149672D-07 -1.7587368733439D-06
127  1.2600000000000D+00 -5.7082364353882D-07  9.1248762398048D-08
128  1.2700000000000D+00  0.0000000000000D+00  0.0000000000000D+00
129  1.2800000000000D+00  0.0000000000000D+00  0.0000000000000D+00
130  1.2900000000000D+00  0.0000000000000D+00  0.0000000000000D+00
131  1.3000000000000D+00  0.0000000000000D+00  0.0000000000000D+00
132  1.3100000000000D+00  0.0000000000000D+00  0.0000000000000D+00
133  1.3200000000000D+00  0.0000000000000D+00  0.0000000000000D+00
134  1.3300000000000D+00  0.0000000000000D+00  0.0000000000000D+00
135  1.3400000000000D+00  0.0000000000000D+00  0.0000000000000D+00
136  1.3500000000000D+00  0.0000000000000D+00  0.0000000000000D+00
137  1.3600000000000D+00  0.0000000000000D+00  0.0000000000000D+00
138  1.3700000000000D+00  0.0000000000000D+00  0.0000000000000D+00
139  1.3800000000000D+00  0.0000000000000D+00  0.0000000000000D+00
140  1.3900000000000D+00  0.0000000000000D+00  0.0000000000000D+00
141  1.4000000000000D+00  0.0000000000000D+00  0.0000000000000D+00
142  1.4100000000000D+00  0.0000000000000D+00  0.0000000000000D+00
143  1.4200000000000D+00  0.0000000000000D+00  0.0000000000000D+00
144  1.4300000000000D+00  0.0000000000000D+00  0.0000000000000D+00
145  1.4400000000000D+00  0.0000000000000D+00  0.0000000000000D+00
146  1.4500000000000D+00  0.0000000000000D+00  0.0000000000000D+00
147  1.4600000000000D+00  0.0000000000000D+00  0.0000000000000D+00
148  1.4700000000000D+00  0.0000000000000D+00  0.0000000000000D+00
149  1.4800000000000D+00  0.0000000000000D+00  0.0000000000000D+00
150  1.4900000000000D+00  0.0000000000000D+00  0.0000000000000D+00
151  1.5000000000000D+00  0.0000000000000D+00  0.0000000000000D+00
152  1.5100000000000D+00  0.0000000000000D+00  0.0000000000000D+00
153  1.5200000000000D+00  0.0000000000000D+00  0.0000000000000D+00
154  1.5300000000000D+00  0.0000000000000D+00  0.0000000000000D+00
155  1.5400000000000D+00  0.0000000000000D+00  0.0000000000000D+00
156  1.5500000000000D+00  0.0000000000000D+00  0.0000000000000D+00
157  1.5600000000000D+00  0.0000000000000D+00  0.0000000000000D+00
158  1.5700000000000D+00  0.0000000000000D+00  0.0000000000000D+00
159  1.5800000000000D+00  0.0000000000000D+00  0.0000000000000D+00
160  1.5900000000000D+00  0.0000000000000D+00  0.0000000000000D+00
161  1.6000000000000D+00  0.0000000000000D+00  0.0000000000000D+00
162  1.6100000000000D+00  0.0000000000000D+00  0.0000000000000D+00
163  1.6200000000000D+00  0.0000000000000D+00  0.0000000000000D+00
164  1.6300000000000D+00  0.0000000000000D+00  0.0000000000000D+00
165  1.6400000000000D+00  0.0000000000000D+00  0.0000000000000D+00
166  1.6500000000000D+00  0.0000000000000D+00  0.0000000000000D+00
167  1.6600000000000D+00  0.0000000000000D+00  0.0000000000000D+00
168  1.6700000000000D+00  0.0000000000000D+00  0.0000000000000D+00
169  1.6800000000000D+00  0.0000000000000D+00  0.0000000000000D+00
170  1.6900000000000D+00  0.0000000000000D+00  0.0000000000000D+00
171  1.7000000000000D+00  0.0000000000000D+00  0.0000000000000D+00
172  1.7100000000000D+00  0.0000000000000D+00  0.0000000000000D+00
173  1.7200000000000D+00  0.0000000000000D+00  0.0000000000000D+00
174  1.7300000000000D+00  0.0000000000000D+00  0.0000000000000D+00
175  1.7400000000000D+00  0.0000000000000D+00  0.0000000000000D+00
176  1.7500000000000D+00  0.0000000000000D+00  0.0000000000000D+00
177  1.7600000000000D+00  0.0000000000000D+00  0.0000000000000D+00
178  1.7700000000000D+00  0.0000000000000D+00  0.0000000000000D+00
179  1.7800000000000D+00  0.0000000000000D+00  0.0000000000000D+00
180  1.7900000000000D+00  0.0000000000000D+00  0.0000000000000D+00
181  1.8000000000000D+00  0.0000000000000D+00  0.0000000000000D+00
182  1.8100000000000D+00  0.0000000000000D+00  0.0000000000000D+00
183  1.8200000000000D+00  0.0000000000000D+00  0.0000000000000D+00
184  1.8300000000000D+00  0.0000000000000D+00  0.0000000000000D+00
185  1.8400000000000D+00  0.0000000000000D+00  0.0000000000000D+00
186  1.8500000000000D+00  0.0000000000000D+00  0.0000000000000D+00
187  1.8600000000000D+00  0.0000000000000D+00  0.0000000000000D+00
188  1.8700000000000D+00  0.0000000000000D+00  0.0000000000000D+00
189  1.8800000000000D+00  0.0000000000000D+00  0.0000000000000D+00
190  1.8900000000000D+00  0.0000000000000D+00  0.0000000000000D+00
191  1.9000000000000D+00  0.0000000000000D+00  0.0000000000000D+00
192  1.9100000000000D+00  0.0000000000000D+00  0.0000000000000D+00
193  1.9200000000000D+00  0.0000000000000D+00  0.0000000000000D+00
194  1.9300000000000D+00  0.0000000000000D+00  0.0000000000000D+00
195  1.9400000000000D+00  0.0000000000000D+00  0.0000000000000D+00
196  1.9500000000000D+00  0.0000000000000D+00  0.0000000000000D+00
197  1.9600000000000D+00  0.0000000000000D+00  0.0000000000000D+00
198  1.9700000000000D+00  0.0000000000000D+00  0.0000000000000D+00
199  1.9800000000000D+00  0.0000000000000D+00  0.0000000000000D+00
200  1.9900000000000D+00  0.0000000000000D+00  0.0000000000000D+00
201  2.0000000000000D+00  0.0000000000000D+00  0.0000000000000D+00
202  2.0100000000000D+00  0.0000000000000D+00  0.0000000000000D+00
203  2.0200000000000D+00  0.0000000000000D+00  0.0000000000000D+00
204  2.0300000000000D+00  0.0000000000000D+00  0.0000000000000D+00
205  2.0400000000000D+00  0.0000000000000D+00  0.0000000000000D+00
206  2.0500000000000D+00  0.0000000000000D+00  0.0000000000000D+00
207  2.0600000000000D+00  0.0000000000000D+00  0.0000000000000D+00
208  2.0700000000000D+00  0.0000000000000D+00  0.0000000000000D+00
209  2.0800000000000D+00  0.0000000000000D+00  0.0000000000000D+00
210  2.0900000000000D+00  0.0000000000000D+00  0.0000000000000D+00
211  2.1000000000000D+00  0.0000000000000D+00  0.0000000000000D+00
212  2.1100000000000D+00  0.0000000000000D+00  0.0000000000000D+00
213  2.1200000000000D+00  0.0000000000000D+00  0.0000000000000D+00
214  2.1300000000000D+00  0.0000000000000D+00  0.0000000000000D+00
215  2.1400000000000D+00  0.0000000000000D+00  0.0000000000000D+00
216  2.1500000000000D+00  0.0000000000000D+00  0.0000000000000D+00
217  2.1600000000000D+00  0.0000000000000D+00  0.0000000000000D+00
218  2.1700000000000D+00  0.0000000000000D+00  0.0000000000000D+00
219  2.1800000000000D+00  0.0000000000000D+00  0.0000000000000D+00
220  2.1900000000000D+00  0.0000000000000D+00  0.0000000000000D+00
221  2.2000000000000D+00  0.0000000000000D+00  0.0000000000000D+00
222  2.2100000000000D+00  0.0000000000000D+00  0.0000000000000D+00
223  2.2200000000000D+00  0.0000000000000D+00  0.0000000000000D+00
224  2.2300000000000D+00  0.0000000000000D+00  0.0000000000000D+00
225  2.2400000000000D+00  0.0000000000000D+00  0.0000000000000D+00
226  2.2500000000000D+00  0.0000000000000D+00  0.0000000000000D+00
227  2.2600000000000D+00  0.0000000000000D+00  0.0000000000000D+00
228  2.2700000000000D+00  0.0000000000000D+00  0.0000000000000D+00
229  2.2800000000000D+00  0.0000000000000D+00  0.0000000000000D+00
230  2.2900000000000D+00  0.0000000000000D+00  0.0000000000000D+00
231  2.3000000000000D+00  0.0000000000000D+00  0.0000000000000D+00
232  2.3100000000000D+00  0.0000000000000D+00  0.0000000000000D+00
233  2.3200000000000D+00  0.0000000000000D+00  0.0000000000000D+00
234  2.3300000000000D+00  0.0000000000000D+00  0.0000000000000D+00
235  2.3400000000000D+00  0.0000000000000D+00  0.0000000000000D+00
236  2.3500000000000D+00  0.0000000000000D+00  0.0000000000000D+00
237  2.3600000000000D+00  0.0000000000000D+00  0.0000000000000D+00
238  2.3700000000000D+00  0.0000000000000D+00  0.0000000000000D+00
239  2.3800000000000D+00  0.0000000000000D+00  0.0000000000000D+00
240  2.3900000000000D+00  0.0000000000000D+00  0.0000000000000D+00
241  2.4000000000000D+00  0.0000000000000D+00  0.0000000000000D+00
242  2.4100000000000D+00  0.0000000000000D+00  0.0000000000000D+00
243  2.4200000000000D+00  0.0000000000000D+00  0.0000000000000D+00
244  2.4300000000000D+00  0.0000000000000D+00  0.0000000000000D+00
245  2.4400000000000D+00  0.0000000000000D+00  0.0000000000000D+00
246  2.4500000000000D+00  0.0000000000000D+00  0.0000000000000D+00
247  2.4600000000000D+00  0.0000000000000D+00  0.0000000000000D+00
248  2.4700000000000D+00  0.0000000000000D+00  0.0000000000000D+00
249  2.4800000000000D+00  0.0000000000000D+00  0.0000000000000D+00
250  2.4900000000000D+00  0.0000000000000D+00  0.0000000000000D+00
251  2.5000000000000D+00  0.0000000000000D+00  0.0000000000000D+00
252  2.5100000000000D+00  0.0000000000000D+00  0.0000000000000D+00
253  2.5200000000000D+00  0.0000000000000D+00  0.0000000000000D+00
254  2.5300000000000D+00  0.0000000000000D+00  0.0000000000000D+00
255  2.5400000000000D+00  0.0000000000000D+00  0.0000000000000D+00
256  2.5500000000000D+00  0.0000000000000D+00  0.0000000000000D+00
257  2.5600000000000D+00  0.0000000000000D+00  0.0000000000000D+00
258  2.5700000000000D+00  0.0000000000000D+00  0.0000000000000D+00
259  2.5800000000000D+00  0.0000000000000D+00  0.0000000000000D+00
260  2.5900000000000D+00  0.0000000000000D+00  0.0000000000000D+00
261  2.6000000000000D+00  0.0000000000000D+00  0.0000000000000D+00
262  2.6100000000000D+00  0.0000000000000D+00  0.0000000000000D+00
263  2.6200000000000D+00  0.0000000000000D+00  0.0000000000000D+00
264  2.6300000000000D+00  0.0000000000000D+00  0.0000000000000D+00
265  2.6400000000000D+00  0.0000000000000D+00  0.0000000000000D+00
266  2.6500000000000D+00  0.0000000000000D+00  0.0000000000000D+00
267  2.6600000000000D+00  0.0000000000000D+00  0.0000000000000D+00
268  2.6700000000000D+00  0.0000000000000D+00  0.0000000000000D+00
269  2.6800000000000D+00  0.0000000000000D+00  0.0000000000000D+00
270  2.6900000000000D+00  0.0000000000000D+00  0.0000000000000D+00
271  2.7000000000000D+00  0.0000000000000D+00  0.0000000000000D+00
272  2.7100000000000D+00  0.0000000000000D+00  0.0000000000000D+00
273  2.7200000000000D+00  0.0000000000000D+00  0.0000000000000D+00
274  2.7300000000000D+00  0.0000000000000D+00  0.0000000000000D+00
275  2.7400000000000D+00  0.0000000000000D+00  0.0000000000000D+00
276  2.7500000000000D+00  0.0000000000000D+00  0.0000000000000D+00
277  2.7600000000000D+00  0.0000000000000D+00  0.0000000000000D+00
278  2.7700000000000D+00  0.0000000000000D+00  0.0000000000000D+00
279  2.7800000000000D+00  0.0000000000000D+00  0.0000000000000D+00
280  2.7900000000000D+00  0.0000000000000D+00  0.0000000000000D+00
281  2.8000000000000D+00  0.0000000000000D+00  0.0000000000000D+00
282  2.8100000000000D+00  0.0000000000000D+00  0.0000000000000D+00
283  2.8200000000000D+00  0.0000000000000D+00  0.0000000000000D+00
284  2.8300000000000D+00  0.0000000000000D+00  0.0000000000000D+00
285  2.8400000000000D+00  0.0000000000000D+00  0.0000000000000D+00
286  2.8500000000000D+00  0.0000000000000D+00  0.0000000000000D+00
287  2.8600000000000D+00  0.0000000000000D+00  0.0000000000000D+00
288  2.8700000000000D+00  0.0000000000000D+00  0.0000000000000D+00
289  2.8800000000000D+00  0.0000000000000D+00  0.0000000000000D+00
290  2.8900000000000D+00  0.0000000000000D+00  0.0000000000000D+00
291  2.9000000000000D+00  0.0000000000000D+00  0.0000000000000D+00
292  2.9100000000000D+00  0.0000000000000D+00  0.0000000000000D+00
293  2.9200000000000D+00  0.0000000000000D+00  0.0000000000000D+00
294  2.9300000000000D+00  0.0000000000000D+00  0.0000000000000D+00
295  2.9400000000000D+00  0.0000000000000D+00  0.0000000000000D+00
296  2.9500000000000D+00  0.0000000000000D+00  0.0000000000000D+00
297  2.9600000000000D+00  0.0000000000000D+00  0.0000000000000D+00
298  2.9700000000000D+00  0.0000000000000D+00  0.0000000000000D+00
299  2.9800000000000D+00  0.0000000000000D+00  0.0000000000000D+00
300  2.9900000000000D+00  0.0000000000000D+00  0.0000000000000D+00
301  3.0000000000000D+00  0.0000000000000D+00  0.0000000000000D+00
302  3.0100000000000D+00  0.0000000000000D+00  0.0000000000000D+00
303  3.0200000000000D+00  0.0000000000000D+00  0.0000000000000D+00
304  3.0300000000000D+00  0.0000000000000D+00  0.0000000000000D+00
305  3.0400000000000D+00  0.0000000000000D+00  0.0000000000000D+00
306  3.0500000000000D+00  0.0000000000000D+00  0.0000000000000D+00
307  3.0600000000000D+00  0.0000000000000D+00  0.0000000000000D+00
308  3.0700000000000D+00  0.0000000000000D+00  0.0000000000000D+00
309  3.0800000000000D+00  0.0000000000000D+00  0.0000000000000D+00
310  3.0900000000000D+00  0.0000000000000D+00  0.0000000000000D+00
311  3.1000000000000D+00  0.0000000000000D+00  0.0000000000000D+00
312  3.1100000000000D+00  0.0000000000000D+00  0.0000000000000D+00
313  3.1200000000000D+00  0.0000000000000D+00  0.0000000000000D+00
314  3.1300000000000D+00  0.0000000000000D+00  0.0000000000000D+00
315  3.1400000000000D+00  0.0000000000000D+00  0.0000000000000D+00
316  3.1500000000000D+00  0.0000000000000D+00  0.0000000000000D+00
317  3.1600000000000D+00  0.0000000000000D+00  0.0000000000000D+00
318  3.1700000000000D+00  0.0000000000000D+00  0.0000000000000D+00
319  3.1800000000000D+00  0.0000000000000D+00  0.0000000000000D+00
320  3.1900000000000D+00  0.0000000000000D+00  0.0000000000000D+00
321  3.2000000000000D+00  0.0000000000000D+00  0.0000000000000D+00
322  3.2100000000000D+00  0.0000000000000D+00  0.0000000000000D+00
323  3.2200000000000D+00  0.0000000000000D+00  0.0000000000000D+00
324  3.2300000000000D+00  0.0000000000000D+00  0.0000000000000D+00
325  3.2400000000000D+00  0.0000000000000D+00  0.0000000000000D+00
326  3.2500000000000D+00  0.0000000000000D+00  0.0000000000000D+00
327  3.2600000000000D+00  0.0000000000000D+00  0.0000000000000D+00
328  3.2700000000000D+00  0.0000000000000D+00  0.0000000000000D+00
329  3.2800000000000D+00  0.0000000000000D+00  0.0000000000000D+00
330  3.2900000000000D+00  0.0000000000000D+00  0.0000000000000D+00
331  3.3000000000000D+00  0.0000000000000D+00  0.0000000000000D+00
332  3.3100000000000D+00  0.0000000000000D+00  0.0000000000000D+00
333  3.3200000000000D+00  0.0000000000000D+00  0.0000000000000D+00
334  3.3300000000000D+00  0.0000000000000D+00  0.0000000000000D+00
335  3.3400000000000D+00  0.0000000000000D+00  0.0000000000000D+00
336  3.3500000000000D+00  0.0000000000000D+00  0.0000000000000D+00
337  3.3600000000000D+00  0.0000000000000D+00  0.0000000000000D+00
338  3.3700000000000D+00  0.0000000000000D+00  0.0000000000000D+00
339  3.3800000000000D+00  0.0000000000000D+00  0.0000000000000D+00
340  3.3900000000000D+00  0.0000000000000D+00  0.0000000000000D+00
341  3.4000000000000D+00  0.0000000000000D+00  0.0000000000000D+00
342  3.4100000000000D+00  0.0000000000000D+00  0.0000000000000D+00
343  3.4200000000000D+00  0.0000000000000D+00  0.0000000000000D+00
344  3.4300000000000D+00  0.0000000000000D+00  0.0000000000000D+00
345  3.4400000000000D+00  0.0000000000000D+00  0.0000000000000D+00
346  3.4500000000000D+00  0.0000000000000D+00  0.0000000000000D+00
347  3.4600000000000D+00  0.0000000000000D+00  0.0000000000000D+00
348  3.4700000000000D+00  0.0000000000000D+00  0.0000000000000D+00
349  3.4800000000000D+00  0.0000000000000D+00  0.0000000000000D+00
350  3.4900000000000D+00  0.0000000000000D+00  0.0000000000000D+00
351  3.5000000000000D+00  0.0000000000000D+00  0.0000000000000D+00
352  3.5100000000000D+00  0.0000000000000D+00  0.0000000000000D+00
353  3.5200000000000D+00  0.0000000000000D+00  0.0000000000000D+00
354  3.5300000000000D+00  0.0000000000000D+00  0.0000000000000D+00
355  3.5400000000000D+00  0.0000000000000D+00  0.0000000000000D+00
356  3.5500000000000D+00  0.0000000000000D+00  0.0000000000000D+00
357  3.5600000000000D+00  0.0000000000000D+00  0.0000000000000D+00
358  3.5700000000000D+00  0.0000000000000D+00  0.0000000000000D+00
359  3.5800000000000D+00  0.0000000000000D+00  0.0000000000000D+00
360  3.5900000000000D+00  0.0000000000000D+00  0.0000000000000D+00
361  3.6000000000000D+00  0.0000000000000D+00  0.0000000000000D+00
362  3.6100000000000D+00  0.0000000000000D+00  0.0000000000000D+00
363  3.6200000000000D+00  0.0000000000000D+00  0.0000000000000D+00
364  3.6300000000000D+00  0.0000000000000D+00  0.0000000000000D+00
365  3.6400000000000D+00  0.0000000000000D+00  0.0000000000000D+00
366  3.6500000000000D+00  0.0000000000000D+00  0.0000000000000D+00
367  3.6600000000000D+00  0.0000000000000D+00  0.0000000000000D+00
368  3.6700000000000D+00  0.0000000000000D+00  0.0000000000000D+00
369  3.6800000000000D+00  0.0000000000000D+00  0.0000000000000D+00
370  3.6900000000000D+00  0.0000000000000D+00  0.0000000000000D+00
371  3.7000000000000D+00  0.0000000000000D+00  0.0000000000000D+00
372  3.7100000000000D+00  0.0000000000000D+00  0.0000000000000D+00
373  3.7200000000000D+00  0.0000000000000D+00  0.0000000000000D+00
374  3.7300000000000D+00  0.0000000000000D+00  0.0000000000000D+00
375  3.7400000000000D+00  0.0000000000000D+00  0.0000000000000D+00
376  3.7500000000000D+00  0.0000000000000D+00  0.0000000000000D+00
377  3.7600000000000D+00  0.0000000000000D+00  0.0000000000000D+00
378  3.7700000000000D+00  0.0000000000000D+00  0.0000000000000D+00
379  3.7800000000000D+00  0.0000000000000D+00  0.0000000000000D+00
380  3.7900000000000D+00  0.0000000000000D+00  0.0000000000000D+00
381  3.8000000000000D+00  0.0000000000000D+00  0.0000000000000D+00
382  3.8100000000000D+00  0.0000000000000D+00  0.0000000000000D+00
383  3.8200000000000D+00  0.0000000000000D+00  0.0000000000000D+00
384  3.8300000000000D+00  0.0000000000000D+00  0.0000000000000D+00
385  3.8400000000000D+00  0.0000000000000D+00  0.0000000000000D+00
386  3.8500000000000D+00  0.0000000000000D+00  0.0000000000000D+00
387  3.8600000000000D+00  0.0000000000000D+00  0.0000000000000D+00
388  3.8700000000000D+00  0.0000000000000D+00  0.0000000000000D+00
389  3.8800000000000D+00  0.0000000000000D+00  0.0000000000000D+00
390  3.8900000000000D+00  0.0000000000000D+00  0.0000000000000D+00
391  3.9000000000000D+00  0.0000000000000D+00  0.0000000000000D+00
392  3.9100000000000D+00  0.0000000000000D+00  0.0000000000000D+00
393  3.9200000000000D+00  0.0000000000000D+00  0.0000000000000D+00
394  3.9300000000000D+00  0.0000000000000D+00  0.0000000000000D+00
395  3.9400000000000D+00  0.0000000000000D+00  0.0000000000000D+00
396  3.9500000000000D+00  0.0000000000000D+00  0.0000000000000D+00
397  3.9600000000000D+00  0.0000000000000D+00  0.0000000000000D+00
398  3.9700000000000D+00  0.0000000000000D+00  0.0000000000000D+00
399  3.9800000000000D+00  0.0000000000000D+00  0.0000000000000D+00
400  3.9900000000000D+00  0.0000000000000D+00  0.0000000000000D+00
1                        -6.7965560070720D+00 -2.4197738795971D+00
1  0.0000000000000D+00  5.1197665551506D-10 -6.6375907548100D-10
2  1.0000000000000D-02  2.2095849491908D-03 -9.8925017356466D-04
3  2.0000000000000D-02  8.8270495565102D-03 -3.9476656970322D-03
4  3.0000000000000D-02  1.9818579188596D-02 -8.8473023818861D-03
5  4.0000000000000D-02  3.5128002817665D-02 -1.5641788913422D-02
6  5.0000000000000D-02  5.4677072141939D-02 -2.4266629146181D-02
7  6.0000000000000D-02  7.8365850515005D-02 -3.4639622915579D-02
8  7.0000000000000D-02  1.0607320985281D-01 -4.6661402977006D-02
9  8.0000000000000D-02  1.3765743317505D-01 -6.0216085019882D-02
10  9.0000000000000D-02  1.7295691993431D-01 -7.5172027054647D-02
11  1.0000000000000D-01  2.1179099079337D-01 -9.1382693838086D-02
12  1.1000000000000D-01  2.5396078803024D-01 -1.0868762139022D-01
13  1.2000000000000D-01  2.9925026728434D-01 -1.2691347606684D-01
14  1.3000000000000D-01  3.4742727590663D-01 -1.4587520208887D-01
15  1.4000000000000D-01  3.9824471274462D-01 -1.6537725089603D-01
16  1.5000000000000D-01  4.5144176378088D-01 -1.8521488519005D-01
17  1.6000000000000D-01  5.0674520765339D-01 -2.0517555006592D-01
18  1.7000000000000D-01  5.6387078471997D-01 -2.2504030319918D-01
19  1.8000000000000D-01  6.2252462298808D-01 -2.4458529566785D-01
20  1.9000000000000D-01  6.8240471391845D-01 -2.6358329463953D-01
21  2.0000000000000D-01  7.4320243082739D-01 -2.8180523885176D-01
22  2.1000000000000D-01  8.0460408236006D-01 -2.9902181755731D-01
23  2.2000000000000D-01  8.6629249328766D-01 -3.1500506339939D-01
24  2.3000000000000D-01  9.2794860469643D-01 -3.2952994952522D-01
25  2.4000000000000D-01  9.8925308548758D-01 -3.4237598114253D-01
26  2.5000000000000D-01  1.0498879469959D+00 -3.5332877167359D-01
27  2.6000000000000D-01  1.1095381524621D+00 -3.6218159366630D-01
28  2.7000000000000D-01  1.1678932130628D+00 -3.6873689468267D-01
29  2.8000000000000D-01  1.2246487622089D+00 -3.7280776850302D-01
30  2.9000000000000D-01  1.2795080998753D+00 -3.7421937215855D-01
31  3.0000000000000D-01  1.3321836988189D+00 -3.7281027953734D-01
32  3.1000000000000D-01  1.3823986646767D+00 -3.6843376259719D-01
33  3.2000000000000D-01  1.4298881421175D+00 -3.6095899156481D-01
34  3.3000000000000D-01  1.4744006594443D+00 -3.5027214590120D-01
35  3.4000000000000D-01  1.5156994043118D+00 -3.3627742826892D-01
36  3.5000000000000D-01  1.5535634235317D+00 -3.1889797424491D-01
37  3.6000000000000D-01  1.5877887402946D+00 -2.9807665108174D-01
38  3.7000000000000D-01  1.6181893825269D+00 -2.7377673942774D-01
39  3.8000000000000D-01  1.6445983165371D+00 -2.4598249257016D-01
40  3.9000000000000D-01  1.6668682805771D+00 -2.1469956846195D-01
41  4.0000000000000D-01  1.6848725134544D+00 -1.7995533052889D-01
42  4.1000000000000D-01  1.6985053738705D+00 -1.4179901402558D-01
43  4.2000000000000D-01  1.7076828467414D+00 -1.0030175551241D-01