Na    ONCVPSP  r_core=  1.21  1.55
11.0000      9.0000      150901    zatom,zion,pspd
8      11   1     4   400     0    pspcod,pspxc,lmax,lloc,mmax,r2well
3.99000000  0.00000000  0.00000000    rchrg fchrg qchrg
2     2     0     0     0    nproj
1                 extension_switch
0                         2.5039867977359D+00 -6.7711956722831D-01
1  0.0000000000000D+00  4.1961317753803D-09  7.6657494241239D-10
2  1.0000000000000D-02  7.0690198547833D-02  1.7807549896823D-02
3  2.0000000000000D-02  1.4140443234487D-01  3.5727316103950D-02
4  3.0000000000000D-02  2.1216259118542D-01  5.3870168869531D-02
5  4.0000000000000D-02  2.8297634764452D-01  7.2344302076808D-02
6  5.0000000000000D-02  3.5384523160796D-01  9.1253934262138D-02
7  6.0000000000000D-02  4.2475292154320D-01  1.1069805612175D-01
8  7.0000000000000D-02  4.9566381975816D-01  1.3076923909138D-01
9  8.0000000000000D-02  5.6651997469881D-01  1.5155251881624D-01
10  9.0000000000000D-02  6.3723840820123D-01  1.7312436638952D-01
11  1.0000000000000D-01  7.0770889961155D-01  1.9555175913706D-01
12  1.1000000000000D-01  7.7779227189993D-01  2.1889136147953D-01
13  1.2000000000000D-01  8.4731921741911D-01  2.4318882502598D-01
14  1.3000000000000D-01  9.1608969289599D-01  2.6847821556341D-01
15  1.4000000000000D-01  9.8387290471015D-01  2.9478157302382D-01
16  1.5000000000000D-01  1.0504078966256D+00  3.2210860885476D-01
17  1.6000000000000D-01  1.1154047430252D+00  3.5045654351224D-01
18  1.7000000000000D-01  1.1785463414788D+00  3.7981008505863D-01
19  1.8000000000000D-01  1.2394907892898D+00  4.1014154810506D-01
20  1.9000000000000D-01  1.2978743196345D+00  4.4141111061023D-01
21  2.0000000000000D-01  1.3533147641668D+00  4.7356720435841D-01
22  2.1000000000000D-01  1.4054155006353D+00  5.0654703330967D-01
23  2.2000000000000D-01  1.4537698362566D+00  5.4027721246674D-01
24  2.3000000000000D-01  1.4979657704450D+00  5.7467451845519D-01
25  2.4000000000000D-01  1.5375910740868D+00  6.0964674168517D-01
26  2.5000000000000D-01  1.5722386169951D+00  6.4509362877129D-01
27  2.6000000000000D-01  1.6015118705448D+00  6.8090790284700D-01
28  2.7000000000000D-01  1.6250305088532D+00  7.1697634853526D-01
29  2.8000000000000D-01  1.6424360292941D+00  7.5318094763796D-01
30  2.9000000000000D-01  1.6533973116497D+00  7.8940005109316D-01
31  3.0000000000000D-01  1.6576160348533D+00  8.2550957242592D-01
32  3.1000000000000D-01  1.6548318710598D+00  8.6138418779105D-01
33  3.2000000000000D-01  1.6448273787047D+00  8.9689852777401D-01
34  3.3000000000000D-01  1.6274325192543D+00  9.3192834637921D-01
35  3.4000000000000D-01  1.6025287264735D+00  9.6635165308872D-01
36  3.5000000000000D-01  1.5700524622040D+00  1.0000497945115D+00
37  3.6000000000000D-01  1.5299981987724D+00  1.0329084729563D+00
38  3.7000000000000D-01  1.4824207751827D+00  1.0648186902378D+00
39  3.8000000000000D-01  1.4274370820727D+00  1.0956776061516D+00
40  3.9000000000000D-01  1.3652270389521D+00  1.1253893023145D+00
41  4.0000000000000D-01  1.2960338363605D+00  1.1538654434459D+00
42  4.1000000000000D-01  1.2201634251747D+00  1.1810258296405D+00
43  4.2000000000000D-01  1.1379832452283D+00  1.2067988347386D+00
44  4.3000000000000D-01  1.0499201955389D+00  1.2311217275093D+00
45  4.4000000000000D-01  9.5645785864705D-01  1.2539408740086D+00
46  4.5000000000000D-01  8.5813300170157D-01  1.2752118211305D+00
47  4.6000000000000D-01  7.5553138684616D-01  1.2948992630156D+00
48  4.7000000000000D-01  6.4928293303583D-01  1.3129768935940D+00
49  4.8000000000000D-01  5.4005628049841D-01  1.3294271500968D+00
50  4.9000000000000D-01  4.2855281753365D-01  1.3442408538498D+00
51  5.0000000000000D-01  3.1550023708566D-01  1.3574167560455D+00
52  5.1000000000000D-01  2.0164569742613D-01  1.3689609974565D+00
53  5.2000000000000D-01  8.7748667240750D-02  1.3788864921838D+00
54  5.3000000000000D-01 -2.5426459667099D-02  1.3872122465179D+00
55  5.4000000000000D-01 -1.3711789102489D-01  1.3939626248106D+00
56  5.5000000000000D-01 -2.4657401241557D-01  1.3991665748994D+00
57  5.6000000000000D-01 -3.5306092016727D-01  1.4028568260915D+00
58  5.7000000000000D-01 -4.5586981750451D-01  1.4050690729860D+00
59  5.8000000000000D-01 -5.5432418171154D-01  1.4058411584954D+00
60  5.9000000000000D-01 -6.4778661236926D-01  1.4052122693111D+00
61  6.0000000000000D-01 -7.3566527423990D-01  1.4032221567573D+00
62  6.1000000000000D-01 -8.1741985310432D-01  1.3999103954770D+00
63  6.2000000000000D-01 -8.9256694865783D-01  1.3953156917303D+00
64  6.3000000000000D-01 -9.6068483549356D-01  1.3894752522291D+00
65  6.4000000000000D-01 -1.0214175310289D+00  1.3824242234391D+00
66  6.5000000000000D-01 -1.0744781179463D+00  1.3741952101276D+00
67  6.6000000000000D-01 -1.1196512782080D+00  1.3648178806592D+00
68  6.7000000000000D-01 -1.1567950057694D+00  1.3543186651586D+00
69  6.8000000000000D-01 -1.1858414756940D+00  1.3427205511867D+00
70  6.9000000000000D-01 -1.2067970583226D+00  1.3300429800271D+00
71  7.0000000000000D-01 -1.2197414782598D+00  1.3163018450947D+00
72  7.1000000000000D-01 -1.2248261291089D+00  1.3015095923666D+00
73  7.2000000000000D-01 -1.2222715659603D+00  1.2856754211186D+00
74  7.3000000000000D-01 -1.2123642084649D+00  1.2688055816653D+00
75  7.4000000000000D-01 -1.1954522977067D+00  1.2509037652552D+00
76  7.5000000000000D-01 -1.1719411599491D+00  1.2319715798040D+00
77  7.6000000000000D-01 -1.1422878395011D+00  1.2120091037609D+00
78  7.7000000000000D-01 -1.1069951712607D+00  1.1910155091382D+00
79  7.8000000000000D-01 -1.0666053709354D+00  1.1689897435854D+00
80  7.9000000000000D-01 -1.0216932272716D+00  1.1459312604013D+00
81  8.0000000000000D-01 -9.7285898585571D-01  1.1218407845407D+00
82  8.1000000000000D-01 -9.2072101806020D-01  1.0967211020173D+00
83  8.2000000000000D-01 -8.6590837144191D-01  1.0705778596300D+00
84  8.3000000000000D-01 -8.0905329932362D-01  1.0434203616601D+00
85  8.4000000000000D-01 -7.5078386736897D-01  1.0152623501028D+00
86  8.5000000000000D-01 -6.9171673369705D-01  9.8612275511268D-01
87  8.6000000000000D-01 -6.3245019648534D-01  9.5602640265694D-01
88  8.7000000000000D-01 -5.7355759911200D-01  9.2500466687832D-01
89  8.8000000000000D-01 -5.1558117773982D-01  8.9309605536592D-01
90  8.9000000000000D-01 -4.5902642991367D-01  8.6034671640728D-01
91  9.0000000000000D-01 -4.0435707531482D-01  8.2681085833589D-01
92  9.1000000000000D-01 -3.5199067139059D-01  7.9255107228181D-01
93  9.2000000000000D-01 -3.0229493727148D-01  7.5763855096173D-01
94  9.3000000000000D-01 -2.5558482932748D-01  7.2215319758986D-01
95  9.4000000000000D-01 -2.1212040104127D-01  6.8618362053250D-01
96  9.5000000000000D-01 -1.7210546875179D-01  6.4982701094223D-01
97  9.6000000000000D-01 -1.3568709327846D-01  6.1318890228753D-01
98  9.7000000000000D-01 -1.0295587602624D-01  5.7638281235932D-01
99  9.8000000000000D-01 -7.3947056400318D-02  5.3952977005856D-01
100  9.9000000000000D-01 -4.8642385999586D-02  5.0275773093591D-01
101  1.0000000000000D+00 -2.6972744017816D-02  4.6620088707677D-01
102  1.0100000000000D+00 -8.8214476655954D-03  4.2999887848830D-01
103  1.0200000000000D+00  5.9717984823765D-03  3.9429591460583D-01
104  1.0300000000000D+00  1.7606379605016D-02  3.5923981590781D-01
105  1.0400000000000D+00  2.6315747500064D-02  3.2498098679475D-01
106  1.0500000000000D+00  3.2361978063770D-02  2.9167133200771D-01
107  1.0600000000000D+00  3.6029996150414D-02  2.5946312973425D-01
108  1.0700000000000D+00  3.7621559385565D-02  2.2850787525864D-01
109  1.0800000000000D+00  3.7449096103228D-02  1.9895510954281D-01
110  1.0900000000000D+00  3.5829494643473D-02  1.7095124742560D-01
111  1.1000000000000D+00  3.3077942312571D-02  1.4463842027927D-01
112  1.1100000000000D+00  2.9501911526934D-02  1.2015334783727D-01
113  1.1200000000000D+00  2.5395388791595D-02  9.7626253618953D-02
114  1.1300000000000D+00  2.1033438300027D-02  7.7179837788545D-02
115  1.1400000000000D+00  1.6667188732872D-02  5.8928320797399D-02
116  1.1500000000000D+00  1.2519324238797D-02  4.2976570007265D-02
117  1.1600000000000D+00  8.7801544976687D-03  2.9419320570815D-02
118  1.1700000000000D+00  5.6062015707406D-03  1.8345887662179D-02
119  1.1800000000000D+00  3.1044169515763D-03  9.8031611231047D-03
120  1.1900000000000D+00  1.3581972694769D-03  3.8711755886693D-03
121  1.2000000000000D+00  4.7665631396904D-04  7.6590458447028D-04
122  1.2100000000000D+00  1.5365125283696D-04 -1.4060500850003D-04
123  1.2200000000000D+00  1.1578536425708D-05 -3.4834097120120D-05
124  1.2300000000000D+00 -9.9503248692090D-06  4.3534955548029D-05
125  1.2400000000000D+00  2.5293454885551D-06 -6.7456130450172D-06
126  1.2500000000000D+00  5.8986125783486D-07 -1.8011933374942D-06
127  1.2600000000000D+00 -5.9261587575982D-07  9.3309185618269D-08
128  1.2700000000000D+00  0.0000000000000D+00  0.0000000000000D+00
129  1.2800000000000D+00  0.0000000000000D+00  0.0000000000000D+00
130  1.2900000000000D+00  0.0000000000000D+00  0.0000000000000D+00
131  1.3000000000000D+00  0.0000000000000D+00  0.0000000000000D+00
132  1.3100000000000D+00  0.0000000000000D+00  0.0000000000000D+00
133  1.3200000000000D+00  0.0000000000000D+00  0.0000000000000D+00
134  1.3300000000000D+00  0.0000000000000D+00  0.0000000000000D+00
135  1.3400000000000D+00  0.0000000000000D+00  0.0000000000000D+00
136  1.3500000000000D+00  0.0000000000000D+00  0.0000000000000D+00
137  1.3600000000000D+00  0.0000000000000D+00  0.0000000000000D+00
138  1.3700000000000D+00  0.0000000000000D+00  0.0000000000000D+00
139  1.3800000000000D+00  0.0000000000000D+00  0.0000000000000D+00
140  1.3900000000000D+00  0.0000000000000D+00  0.0000000000000D+00
141  1.4000000000000D+00  0.0000000000000D+00  0.0000000000000D+00
142  1.4100000000000D+00  0.0000000000000D+00  0.0000000000000D+00
143  1.4200000000000D+00  0.0000000000000D+00  0.0000000000000D+00
144  1.4300000000000D+00  0.0000000000000D+00  0.0000000000000D+00
145  1.4400000000000D+00  0.0000000000000D+00  0.0000000000000D+00
146  1.4500000000000D+00  0.0000000000000D+00  0.0000000000000D+00
147  1.4600000000000D+00  0.0000000000000D+00  0.0000000000000D+00
148  1.4700000000000D+00  0.0000000000000D+00  0.0000000000000D+00
149  1.4800000000000D+00  0.0000000000000D+00  0.0000000000000D+00
150  1.4900000000000D+00  0.0000000000000D+00  0.0000000000000D+00
151  1.5000000000000D+00  0.0000000000000D+00  0.0000000000000D+00
152  1.5100000000000D+00  0.0000000000000D+00  0.0000000000000D+00
153  1.5200000000000D+00  0.0000000000000D+00  0.0000000000000D+00
154  1.5300000000000D+00  0.0000000000000D+00  0.0000000000000D+00
155  1.5400000000000D+00  0.0000000000000D+00  0.0000000000000D+00
156  1.5500000000000D+00  0.0000000000000D+00  0.0000000000000D+00
157  1.5600000000000D+00  0.0000000000000D+00  0.0000000000000D+00
158  1.5700000000000D+00  0.0000000000000D+00  0.0000000000000D+00
159  1.5800000000000D+00  0.0000000000000D+00  0.0000000000000D+00
160  1.5900000000000D+00  0.0000000000000D+00  0.0000000000000D+00
161  1.6000000000000D+00  0.0000000000000D+00  0.0000000000000D+00
162  1.6100000000000D+00  0.0000000000000D+00  0.0000000000000D+00
163  1.6200000000000D+00  0.0000000000000D+00  0.0000000000000D+00
164  1.6300000000000D+00  0.0000000000000D+00  0.0000000000000D+00
165  1.6400000000000D+00  0.0000000000000D+00  0.0000000000000D+00
166  1.6500000000000D+00  0.0000000000000D+00  0.0000000000000D+00
167  1.6600000000000D+00  0.0000000000000D+00  0.0000000000000D+00
168  1.6700000000000D+00  0.0000000000000D+00  0.0000000000000D+00
169  1.6800000000000D+00  0.0000000000000D+00  0.0000000000000D+00
170  1.6900000000000D+00  0.0000000000000D+00  0.0000000000000D+00
171  1.7000000000000D+00  0.0000000000000D+00  0.0000000000000D+00
172  1.7100000000000D+00  0.0000000000000D+00  0.0000000000000D+00
173  1.7200000000000D+00  0.0000000000000D+00  0.0000000000000D+00
174  1.7300000000000D+00  0.0000000000000D+00  0.0000000000000D+00
175  1.7400000000000D+00  0.0000000000000D+00  0.0000000000000D+00
176  1.7500000000000D+00  0.0000000000000D+00  0.0000000000000D+00
177  1.7600000000000D+00  0.0000000000000D+00  0.0000000000000D+00
178  1.7700000000000D+00  0.0000000000000D+00  0.0000000000000D+00
179  1.7800000000000D+00  0.0000000000000D+00  0.0000000000000D+00
180  1.7900000000000D+00  0.0000000000000D+00  0.0000000000000D+00
181  1.8000000000000D+00  0.0000000000000D+00  0.0000000000000D+00
182  1.8100000000000D+00  0.0000000000000D+00  0.0000000000000D+00
183  1.8200000000000D+00  0.0000000000000D+00  0.0000000000000D+00
184  1.8300000000000D+00  0.0000000000000D+00  0.0000000000000D+00
185  1.8400000000000D+00  0.0000000000000D+00  0.0000000000000D+00
186  1.8500000000000D+00  0.0000000000000D+00  0.0000000000000D+00
187  1.8600000000000D+00  0.0000000000000D+00  0.0000000000000D+00
188  1.8700000000000D+00  0.0000000000000D+00  0.0000000000000D+00
189  1.8800000000000D+00  0.0000000000000D+00  0.0000000000000D+00
190  1.8900000000000D+00  0.0000000000000D+00  0.0000000000000D+00
191  1.9000000000000D+00  0.0000000000000D+00  0.0000000000000D+00
192  1.9100000000000D+00  0.0000000000000D+00  0.0000000000000D+00
193  1.9200000000000D+00  0.0000000000000D+00  0.0000000000000D+00
194  1.9300000000000D+00  0.0000000000000D+00  0.0000000000000D+00
195  1.9400000000000D+00  0.0000000000000D+00  0.0000000000000D+00
196  1.9500000000000D+00  0.0000000000000D+00  0.0000000000000D+00
197  1.9600000000000D+00  0.0000000000000D+00  0.0000000000000D+00
198  1.9700000000000D+00  0.0000000000000D+00  0.0000000000000D+00
199  1.9800000000000D+00  0.0000000000000D+00  0.0000000000000D+00
200  1.9900000000000D+00  0.0000000000000D+00  0.0000000000000D+00
201  2.0000000000000D+00  0.0000000000000D+00  0.0000000000000D+00
202  2.0100000000000D+00  0.0000000000000D+00  0.0000000000000D+00
203  2.0200000000000D+00  0.0000000000000D+00  0.0000000000000D+00
204  2.0300000000000D+00  0.0000000000000D+00  0.0000000000000D+00
205  2.0400000000000D+00  0.0000000000000D+00  0.0000000000000D+00
206  2.0500000000000D+00  0.0000000000000D+00  0.0000000000000D+00
207  2.0600000000000D+00  0.0000000000000D+00  0.0000000000000D+00
208  2.0700000000000D+00  0.0000000000000D+00  0.0000000000000D+00
209  2.0800000000000D+00  0.0000000000000D+00  0.0000000000000D+00
210  2.0900000000000D+00  0.0000000000000D+00  0.0000000000000D+00
211  2.1000000000000D+00  0.0000000000000D+00  0.0000000000000D+00
212  2.1100000000000D+00  0.0000000000000D+00  0.0000000000000D+00
213  2.1200000000000D+00  0.0000000000000D+00  0.0000000000000D+00
214  2.1300000000000D+00  0.0000000000000D+00  0.0000000000000D+00
215  2.1400000000000D+00  0.0000000000000D+00  0.0000000000000D+00
216  2.1500000000000D+00  0.0000000000000D+00  0.0000000000000D+00
217  2.1600000000000D+00  0.0000000000000D+00  0.0000000000000D+00
218  2.1700000000000D+00  0.0000000000000D+00  0.0000000000000D+00
219  2.1800000000000D+00  0.0000000000000D+00  0.0000000000000D+00
220  2.1900000000000D+00  0.0000000000000D+00  0.0000000000000D+00
221  2.2000000000000D+00  0.0000000000000D+00  0.0000000000000D+00
222  2.2100000000000D+00  0.0000000000000D+00  0.0000000000000D+00
223  2.2200000000000D+00  0.0000000000000D+00  0.0000000000000D+00
224  2.2300000000000D+00  0.0000000000000D+00  0.0000000000000D+00
225  2.2400000000000D+00  0.0000000000000D+00  0.0000000000000D+00
226  2.2500000000000D+00  0.0000000000000D+00  0.0000000000000D+00
227  2.2600000000000D+00  0.0000000000000D+00  0.0000000000000D+00
228  2.2700000000000D+00  0.0000000000000D+00  0.0000000000000D+00
229  2.2800000000000D+00  0.0000000000000D+00  0.0000000000000D+00
230  2.2900000000000D+00  0.0000000000000D+00  0.0000000000000D+00
231  2.3000000000000D+00  0.0000000000000D+00  0.0000000000000D+00
232  2.3100000000000D+00  0.0000000000000D+00  0.0000000000000D+00
233  2.3200000000000D+00  0.0000000000000D+00  0.0000000000000D+00
234  2.3300000000000D+00  0.0000000000000D+00  0.0000000000000D+00
235  2.3400000000000D+00  0.0000000000000D+00  0.0000000000000D+00
236  2.3500000000000D+00  0.0000000000000D+00  0.0000000000000D+00
237  2.3600000000000D+00  0.0000000000000D+00  0.0000000000000D+00
238  2.3700000000000D+00  0.0000000000000D+00  0.0000000000000D+00
239  2.3800000000000D+00  0.0000000000000D+00  0.0000000000000D+00
240  2.3900000000000D+00  0.0000000000000D+00  0.0000000000000D+00
241  2.4000000000000D+00  0.0000000000000D+00  0.0000000000000D+00
242  2.4100000000000D+00  0.0000000000000D+00  0.0000000000000D+00
243  2.4200000000000D+00  0.0000000000000D+00  0.0000000000000D+00
244  2.4300000000000D+00  0.0000000000000D+00  0.0000000000000D+00
245  2.4400000000000D+00  0.0000000000000D+00  0.0000000000000D+00
246  2.4500000000000D+00  0.0000000000000D+00  0.0000000000000D+00
247  2.4600000000000D+00  0.0000000000000D+00  0.0000000000000D+00
248  2.4700000000000D+00  0.0000000000000D+00  0.0000000000000D+00
249  2.4800000000000D+00  0.0000000000000D+00  0.0000000000000D+00
250  2.4900000000000D+00  0.0000000000000D+00  0.0000000000000D+00
251  2.5000000000000D+00  0.0000000000000D+00  0.0000000000000D+00
252  2.5100000000000D+00  0.0000000000000D+00  0.0000000000000D+00
253  2.5200000000000D+00  0.0000000000000D+00  0.0000000000000D+00
254  2.5300000000000D+00  0.0000000000000D+00  0.0000000000000D+00
255  2.5400000000000D+00  0.0000000000000D+00  0.0000000000000D+00
256  2.5500000000000D+00  0.0000000000000D+00  0.0000000000000D+00
257  2.5600000000000D+00  0.0000000000000D+00  0.0000000000000D+00
258  2.5700000000000D+00  0.0000000000000D+00  0.0000000000000D+00
259  2.5800000000000D+00  0.0000000000000D+00  0.0000000000000D+00
260  2.5900000000000D+00  0.0000000000000D+00  0.0000000000000D+00
261  2.6000000000000D+00  0.0000000000000D+00  0.0000000000000D+00
262  2.6100000000000D+00  0.0000000000000D+00  0.0000000000000D+00
263  2.6200000000000D+00  0.0000000000000D+00  0.0000000000000D+00
264  2.6300000000000D+00  0.0000000000000D+00  0.0000000000000D+00
265  2.6400000000000D+00  0.0000000000000D+00  0.0000000000000D+00
266  2.6500000000000D+00  0.0000000000000D+00  0.0000000000000D+00
267  2.6600000000000D+00  0.0000000000000D+00  0.0000000000000D+00
268  2.6700000000000D+00  0.0000000000000D+00  0.0000000000000D+00
269  2.6800000000000D+00  0.0000000000000D+00  0.0000000000000D+00
270  2.6900000000000D+00  0.0000000000000D+00  0.0000000000000D+00
271  2.7000000000000D+00  0.0000000000000D+00  0.0000000000000D+00
272  2.7100000000000D+00  0.0000000000000D+00  0.0000000000000D+00
273  2.7200000000000D+00  0.0000000000000D+00  0.0000000000000D+00
274  2.7300000000000D+00  0.0000000000000D+00  0.0000000000000D+00
275  2.7400000000000D+00  0.0000000000000D+00  0.0000000000000D+00
276  2.7500000000000D+00  0.0000000000000D+00  0.0000000000000D+00
277  2.7600000000000D+00  0.0000000000000D+00  0.0000000000000D+00
278  2.7700000000000D+00  0.0000000000000D+00  0.0000000000000D+00
279  2.7800000000000D+00  0.0000000000000D+00  0.0000000000000D+00
280  2.7900000000000D+00  0.0000000000000D+00  0.0000000000000D+00
281  2.8000000000000D+00  0.0000000000000D+00  0.0000000000000D+00
282  2.8100000000000D+00  0.0000000000000D+00  0.0000000000000D+00
283  2.8200000000000D+00  0.0000000000000D+00  0.0000000000000D+00
284  2.8300000000000D+00  0.0000000000000D+00  0.0000000000000D+00
285  2.8400000000000D+00  0.0000000000000D+00  0.0000000000000D+00
286  2.8500000000000D+00  0.0000000000000D+00  0.0000000000000D+00
287  2.8600000000000D+00  0.0000000000000D+00  0.0000000000000D+00
288  2.8700000000000D+00  0.0000000000000D+00  0.0000000000000D+00
289  2.8800000000000D+00  0.0000000000000D+00  0.0000000000000D+00
290  2.8900000000000D+00  0.0000000000000D+00  0.0000000000000D+00
291  2.9000000000000D+00  0.0000000000000D+00  0.0000000000000D+00
292  2.9100000000000D+00  0.0000000000000D+00  0.0000000000000D+00
293  2.9200000000000D+00  0.0000000000000D+00  0.0000000000000D+00
294  2.9300000000000D+00  0.0000000000000D+00  0.0000000000000D+00
295  2.9400000000000D+00  0.0000000000000D+00  0.0000000000000D+00
296  2.9500000000000D+00  0.0000000000000D+00  0.0000000000000D+00
297  2.9600000000000D+00  0.0000000000000D+00  0.0000000000000D+00
298  2.9700000000000D+00  0.0000000000000D+00  0.0000000000000D+00
299  2.9800000000000D+00  0.0000000000000D+00  0.0000000000000D+00
300  2.9900000000000D+00  0.0000000000000D+00  0.0000000000000D+00
301  3.0000000000000D+00  0.0000000000000D+00  0.0000000000000D+00
302  3.0100000000000D+00  0.0000000000000D+00  0.0000000000000D+00
303  3.0200000000000D+00  0.0000000000000D+00  0.0000000000000D+00
304  3.0300000000000D+00  0.0000000000000D+00  0.0000000000000D+00
305  3.0400000000000D+00  0.0000000000000D+00  0.0000000000000D+00
306  3.0500000000000D+00  0.0000000000000D+00  0.0000000000000D+00
307  3.0600000000000D+00  0.0000000000000D+00  0.0000000000000D+00
308  3.0700000000000D+00  0.0000000000000D+00  0.0000000000000D+00
309  3.0800000000000D+00  0.0000000000000D+00  0.0000000000000D+00
310  3.0900000000000D+00  0.0000000000000D+00  0.0000000000000D+00
311  3.1000000000000D+00  0.0000000000000D+00  0.0000000000000D+00
312  3.1100000000000D+00  0.0000000000000D+00  0.0000000000000D+00
313  3.1200000000000D+00  0.0000000000000D+00  0.0000000000000D+00
314  3.1300000000000D+00  0.0000000000000D+00  0.0000000000000D+00
315  3.1400000000000D+00  0.0000000000000D+00  0.0000000000000D+00
316  3.1500000000000D+00  0.0000000000000D+00  0.0000000000000D+00
317  3.1600000000000D+00  0.0000000000000D+00  0.0000000000000D+00
318  3.1700000000000D+00  0.0000000000000D+00  0.0000000000000D+00
319  3.1800000000000D+00  0.0000000000000D+00  0.0000000000000D+00
320  3.1900000000000D+00  0.0000000000000D+00  0.0000000000000D+00
321  3.2000000000000D+00  0.0000000000000D+00  0.0000000000000D+00
322  3.2100000000000D+00  0.0000000000000D+00  0.0000000000000D+00
323  3.2200000000000D+00  0.0000000000000D+00  0.0000000000000D+00
324  3.2300000000000D+00  0.0000000000000D+00  0.0000000000000D+00
325  3.2400000000000D+00  0.0000000000000D+00  0.0000000000000D+00
326  3.2500000000000D+00  0.0000000000000D+00  0.0000000000000D+00
327  3.2600000000000D+00  0.0000000000000D+00  0.0000000000000D+00
328  3.2700000000000D+00  0.0000000000000D+00  0.0000000000000D+00
329  3.2800000000000D+00  0.0000000000000D+00  0.0000000000000D+00
330  3.2900000000000D+00  0.0000000000000D+00  0.0000000000000D+00
331  3.3000000000000D+00  0.0000000000000D+00  0.0000000000000D+00
332  3.3100000000000D+00  0.0000000000000D+00  0.0000000000000D+00
333  3.3200000000000D+00  0.0000000000000D+00  0.0000000000000D+00
334  3.3300000000000D+00  0.0000000000000D+00  0.0000000000000D+00
335  3.3400000000000D+00  0.0000000000000D+00  0.0000000000000D+00
336  3.3500000000000D+00  0.0000000000000D+00  0.0000000000000D+00
337  3.3600000000000D+00  0.0000000000000D+00  0.0000000000000D+00
338  3.3700000000000D+00  0.0000000000000D+00  0.0000000000000D+00
339  3.3800000000000D+00  0.0000000000000D+00  0.0000000000000D+00
340  3.3900000000000D+00  0.0000000000000D+00  0.0000000000000D+00
341  3.4000000000000D+00  0.0000000000000D+00  0.0000000000000D+00
342  3.4100000000000D+00  0.0000000000000D+00  0.0000000000000D+00
343  3.4200000000000D+00  0.0000000000000D+00  0.0000000000000D+00
344  3.4300000000000D+00  0.0000000000000D+00  0.0000000000000D+00
345  3.4400000000000D+00  0.0000000000000D+00  0.0000000000000D+00
346  3.4500000000000D+00  0.0000000000000D+00  0.0000000000000D+00
347  3.4600000000000D+00  0.0000000000000D+00  0.0000000000000D+00
348  3.4700000000000D+00  0.0000000000000D+00  0.0000000000000D+00
349  3.4800000000000D+00  0.0000000000000D+00  0.0000000000000D+00
350  3.4900000000000D+00  0.0000000000000D+00  0.0000000000000D+00
351  3.5000000000000D+00  0.0000000000000D+00  0.0000000000000D+00
352  3.5100000000000D+00  0.0000000000000D+00  0.0000000000000D+00
353  3.5200000000000D+00  0.0000000000000D+00  0.0000000000000D+00
354  3.5300000000000D+00  0.0000000000000D+00  0.0000000000000D+00
355  3.5400000000000D+00  0.0000000000000D+00  0.0000000000000D+00
356  3.5500000000000D+00  0.0000000000000D+00  0.0000000000000D+00
357  3.5600000000000D+00  0.0000000000000D+00  0.0000000000000D+00
358  3.5700000000000D+00  0.0000000000000D+00  0.0000000000000D+00
359  3.5800000000000D+00  0.0000000000000D+00  0.0000000000000D+00
360  3.5900000000000D+00  0.0000000000000D+00  0.0000000000000D+00
361  3.6000000000000D+00  0.0000000000000D+00  0.0000000000000D+00
362  3.6100000000000D+00  0.0000000000000D+00  0.0000000000000D+00
363  3.6200000000000D+00  0.0000000000000D+00  0.0000000000000D+00
364  3.6300000000000D+00  0.0000000000000D+00  0.0000000000000D+00
365  3.6400000000000D+00  0.0000000000000D+00  0.0000000000000D+00
366  3.6500000000000D+00  0.0000000000000D+00  0.0000000000000D+00
367  3.6600000000000D+00  0.0000000000000D+00  0.0000000000000D+00
368  3.6700000000000D+00  0.0000000000000D+00  0.0000000000000D+00
369  3.6800000000000D+00  0.0000000000000D+00  0.0000000000000D+00
370  3.6900000000000D+00  0.0000000000000D+00  0.0000000000000D+00
371  3.7000000000000D+00  0.0000000000000D+00  0.0000000000000D+00
372  3.7100000000000D+00  0.0000000000000D+00  0.0000000000000D+00
373  3.7200000000000D+00  0.0000000000000D+00  0.0000000000000D+00
374  3.7300000000000D+00  0.0000000000000D+00  0.0000000000000D+00
375  3.7400000000000D+00  0.0000000000000D+00  0.0000000000000D+00
376  3.7500000000000D+00  0.0000000000000D+00  0.0000000000000D+00
377  3.7600000000000D+00  0.0000000000000D+00  0.0000000000000D+00
378  3.7700000000000D+00  0.0000000000000D+00  0.0000000000000D+00
379  3.7800000000000D+00  0.0000000000000D+00  0.0000000000000D+00
380  3.7900000000000D+00  0.0000000000000D+00  0.0000000000000D+00
381  3.8000000000000D+00  0.0000000000000D+00  0.0000000000000D+00
382  3.8100000000000D+00  0.0000000000000D+00  0.0000000000000D+00
383  3.8200000000000D+00  0.0000000000000D+00  0.0000000000000D+00
384  3.8300000000000D+00  0.0000000000000D+00  0.0000000000000D+00
385  3.8400000000000D+00  0.0000000000000D+00  0.0000000000000D+00
386  3.8500000000000D+00  0.0000000000000D+00  0.0000000000000D+00
387  3.8600000000000D+00  0.0000000000000D+00  0.0000000000000D+00
388  3.8700000000000D+00  0.0000000000000D+00  0.0000000000000D+00
389  3.8800000000000D+00  0.0000000000000D+00  0.0000000000000D+00
390  3.8900000000000D+00  0.0000000000000D+00  0.0000000000000D+00
391  3.9000000000000D+00  0.0000000000000D+00  0.0000000000000D+00
392  3.9100000000000D+00  0.0000000000000D+00  0.0000000000000D+00
393  3.9200000000000D+00  0.0000000000000D+00  0.0000000000000D+00
394  3.9300000000000D+00  0.0000000000000D+00  0.0000000000000D+00
395  3.9400000000000D+00  0.0000000000000D+00  0.0000000000000D+00
396  3.9500000000000D+00  0.0000000000000D+00  0.0000000000000D+00
397  3.9600000000000D+00  0.0000000000000D+00  0.0000000000000D+00
398  3.9700000000000D+00  0.0000000000000D+00  0.0000000000000D+00
399  3.9800000000000D+00  0.0000000000000D+00  0.0000000000000D+00
400  3.9900000000000D+00  0.0000000000000D+00  0.0000000000000D+00
1                        -6.7914965519590D+00 -2.4535027858218D+00
1  0.0000000000000D+00  6.1866606282379D-10 -8.3155199392948D-10
2  1.0000000000000D-02  2.2700622419598D-03 -1.0481404813709D-03
3  2.0000000000000D-02  9.0683009749919D-03 -4.1824032914734D-03
4  3.0000000000000D-02  2.0358934537719D-02 -9.3723823358362D-03
5  4.0000000000000D-02  3.6082534230745D-02 -1.6567633046925D-02
6  5.0000000000000D-02  5.6156334298940D-02 -2.5698019247967D-02
7  6.0000000000000D-02  8.0474663667806D-02 -3.6674195729052D-02
8  7.0000000000000D-02  1.0890949720732D-01 -4.9388223522689D-02
9  8.0000000000000D-02  1.4131112367805D-01 -6.3714314034460D-02
10  9.0000000000000D-02  1.7750892690855D-01 -7.9509697374424D-02
11  1.0000000000000D-01  2.1731227616362D-01 -9.6615609451415D-02
12  1.1000000000000D-01  2.6051152109158D-01 -1.1485839163963D-01
13  1.2000000000000D-01  3.0687908608949D-01 -1.3405069610943D-01
14  1.3000000000000D-01  3.5617065839954D-01 -1.5399278923637D-01
15  1.4000000000000D-01  4.0812646375109D-01 -1.7447394486776D-01
16  1.5000000000000D-01  4.6247262289368D-01 -1.9527391863916D-01
17  1.6000000000000D-01  5.1892258192826D-01 -2.1616449399688D-01
18  1.7000000000000D-01  5.7717860894058D-01 -2.3691109010088D-01
19  1.8000000000000D-01  6.3693334907334D-01 -2.5727442135801D-01
20  1.9000000000000D-01  6.9787142984500D-01 -2.7701219797186D-01
21  2.0000000000000D-01  7.5967110823476D-01 -2.9588085659402D-01
22  2.1000000000000D-01  8.2200595080742D-01 -3.1363730992613D-01
23  2.2000000000000D-01  8.8454653794963D-01 -3.3004070395261D-01
24  2.3000000000000D-01  9.4696218313266D-01 -3.4485417138413D-01
25  2.4000000000000D-01  1.0089226580073D+00 -3.5784656986083D-01
26  2.5000000000000D-01  1.0700999140741D+00 -3.6879419350461D-01
27  2.6000000000000D-01  1.1301697916607D+00 -3.7748244652027D-01
28  2.7000000000000D-01  1.1888137069724D+00 -3.8370746772732D-01
29  2.8000000000000D-01  1.2457203080706D+00 -3.8727769515660D-01
30  2.9000000000000D-01  1.3005870907698D+00 -3.8801536016756D-01
31  3.0000000000000D-01  1.3531219656305D+00 -3.8575790093267D-01
32  3.1000000000000D-01  1.4030447674612D+00 -3.8035928559250D-01
33  3.2000000000000D-01  1.4500886990295D+00 -3.7169123590647D-01
34  3.3000000000000D-01  1.4940017010159D+00 -3.5964434280816D-01
35  3.4000000000000D-01  1.5345477406231D+00 -3.4412906591686D-01
36  3.5000000000000D-01  1.5715080116816D+00 -3.2507660975519D-01
37  3.6000000000000D-01  1.6046820395629D+00 -3.0243967017329D-01
38  3.7000000000000D-01  1.6338886847198D+00 -2.7619304527782D-01
39  3.8000000000000D-01  1.6589670392296D+00 -2.4633410600534D-01
40  3.9000000000000D-01  1.6797772112978D+00 -2.1288312235890D-01
41  4.0000000000000D-01  1.6962009933068D+00 -1.7588344223938D-01
42  4.1000000000000D-01  1.7081424096412D+00 -1.3540152074295D-01
43  4.2000000000000D-01  1.7155281412025D+00 -9.1526798757719D-02