Rn    ONCVPSP-3.3.0  r_core=   2.20741   2.00650   1.80225
86.0000     18.0000      171114    zatom,zion,pspd
8   -1012   2     4   600     0    pspcod,pspxc,lmax,lloc,mmax,r2well
5.99000000  6.00000000  0.00000000    rchrg fchrg qchrg
2     2     2     0     0    nproj
1     1           extension_switch
0                         8.1034171605641D+00  1.6561382206110D+00
1  0.0000000000000D+00  1.3517797992080D-12 -4.7655213109010D-12
2  1.0000000000000D-02  1.1620252821834D-02  1.9033140830214D-02
3  2.0000000000000D-02  2.3273588780447D-02  3.7985124708684D-02
4  3.0000000000000D-02  3.4992956208954D-02  5.6775097182635D-02
5  4.0000000000000D-02  4.6811034186099D-02  7.5322807926579D-02
6  5.0000000000000D-02  5.8760098791146D-02  9.3548910630488D-02
7  6.0000000000000D-02  7.0871890416350D-02  1.1137526028066D-01
8  7.0000000000000D-02  8.3177482487994D-02  1.2872520696965D-01
9  8.0000000000000D-02  9.5707151945653D-02  1.4552388537638D-01
10  9.0000000000000D-02  1.0849025182761D-01  1.6169849906353D-01
11  1.0000000000000D-01  1.2155508630824D-01  1.7717859874668D-01
12  1.1000000000000D-01  1.3492878853069D-01  1.9189635369829D-01
13  1.2000000000000D-01  1.4863720157510D-01  2.0578681545974D-01
14  1.3000000000000D-01  1.6270476289921D-01  2.1878817304628D-01
15  1.4000000000000D-01  1.7715439258427D-01  2.3084199884286D-01
16  1.5000000000000D-01  1.9200738571437D-01  2.4189348440380D-01
17  1.6000000000000D-01  2.0728330921237D-01  2.5189166538549D-01
18  1.7000000000000D-01  2.2299990344969D-01  2.6078963486014D-01
19  1.8000000000000D-01  2.3917298894074D-01  2.6854474427858D-01
20  1.9000000000000D-01  2.5581637842533D-01  2.7511879137251D-01
21  2.0000000000000D-01  2.7294179463474D-01  2.8047819431091D-01
22  2.1000000000000D-01  2.9055879402782D-01  2.8459415145204D-01
23  2.2000000000000D-01  3.0867469677410D-01  2.8744278606084D-01
24  2.3000000000000D-01  3.2729452325000D-01  2.8900527539308D-01
25  2.4000000000000D-01  3.4642093730286D-01  2.8926796358052D-01
26  2.5000000000000D-01  3.6605419652457D-01  2.8822245778755D-01
27  2.6000000000000D-01  3.8619210976361D-01  2.8586570714797D-01
28  2.7000000000000D-01  4.0683000208887D-01  2.8220006403106D-01
29  2.8000000000000D-01  4.2796068740379D-01  2.7723332722988D-01
30  2.9000000000000D-01  4.4957444889184D-01  2.7097876670995D-01
31  3.0000000000000D-01  4.7165902745722D-01  2.6345512960513D-01
32  3.1000000000000D-01  4.9419961830517D-01  2.5468662719795D-01
33  3.2000000000000D-01  5.1717887578671D-01  2.4470290267494D-01
34  3.3000000000000D-01  5.4057692661135D-01  2.3353897950289D-01
35  3.4000000000000D-01  5.6437139150937D-01  2.2123519032959D-01
36  3.5000000000000D-01  5.8853741540200D-01  2.0783708637278D-01
37  3.6000000000000D-01  6.1304770611400D-01  1.9339532732250D-01
38  3.7000000000000D-01  6.3787258163783D-01  1.7796555184626D-01
39  3.8000000000000D-01  6.6298002593297D-01  1.6160822885164D-01
40  3.9000000000000D-01  6.8833575321717D-01  1.4438848972807D-01
41  4.0000000000000D-01  7.1390328067888D-01  1.2637594185806D-01
42  4.1000000000000D-01  7.3964400951215D-01  1.0764446375748D-01
43  4.2000000000000D-01  7.6551731414645D-01  8.8271982274818D-02
44  4.3000000000000D-01  7.9148063951489D-01  6.8340232350566D-02
45  4.4000000000000D-01  8.1748960617459D-01  4.7934499908881D-02
46  4.5000000000000D-01  8.4349812306321D-01  2.7143348525250D-02
47  4.6000000000000D-01  8.6945850764586D-01  6.0583305848168D-03
48  4.7000000000000D-01  8.9532161317622D-01 -1.5226316283374D-02
49  4.8000000000000D-01  9.2103696276642D-01 -3.6613986641528D-02
50  4.9000000000000D-01  9.4655288992989D-01 -5.8006037624507D-02
51  5.0000000000000D-01  9.7181668523291D-01 -7.9302131277823D-02
52  5.1000000000000D-01  9.9677474866114D-01 -1.0040058779772D-01
53  5.2000000000000D-01  1.0213727472800D+00 -1.2119874855663D-01
54  5.3000000000000D-01  1.0455557777396D+00 -1.4159334773739D-01
55  5.4000000000000D-01  1.0692685331508D+00 -1.6148089134337D-01
56  5.5000000000000D-01  1.0924554738297D+00 -1.8075804229815D-01
57  5.6000000000000D-01  1.1150610013899D+00 -1.9932201029926D-01
58  5.7000000000000D-01  1.1370296356332D+00 -2.1707094504511D-01
59  5.8000000000000D-01  1.1583061936732D+00 -2.3390433141378D-01
60  5.9000000000000D-01  1.1788359707057D+00 -2.4972338513591D-01
61  6.0000000000000D-01  1.1985649218200D+00 -2.6443144747383D-01
62  6.1000000000000D-01  1.2174398442347D+00 -2.7793437739298D-01
63  6.2000000000000D-01  1.2354085593248D+00 -2.9014093969275D-01
64  6.3000000000000D-01  1.2524200937955D+00 -3.0096318754957D-01
65  6.4000000000000D-01  1.2684248593537D+00 -3.1031683791808D-01
66  6.5000000000000D-01  1.2833748302167D+00 -3.1812163823501D-01
67  6.6000000000000D-01  1.2972237177984D+00 -3.2430172287596D-01
68  6.7000000000000D-01  1.3099271419087D+00 -3.2878595782762D-01
69  6.8000000000000D-01  1.3214427978069D+00 -3.3150827205732D-01
70  6.9000000000000D-01  1.3317306184526D+00 -3.3240797408794D-01
71  7.0000000000000D-01  1.3407529313030D+00 -3.3143005231926D-01
72  7.1000000000000D-01  1.3484746090215D+00 -3.2852545767756D-01
73  7.2000000000000D-01  1.3548632134677D+00 -3.2365136722220D-01
74  7.3000000000000D-01  1.3598891323616D+00 -3.1677142739254D-01
75  7.4000000000000D-01  1.3635257080302D+00 -3.0785597563959D-01
76  7.5000000000000D-01  1.3657493576662D+00 -2.9688223925492D-01
77  7.6000000000000D-01  1.3665396845536D+00 -2.8383451028388D-01
78  7.7000000000000D-01  1.3658795797434D+00 -2.6870429549126D-01
79  7.8000000000000D-01  1.3637553136895D+00 -2.5149044043461D-01
80  7.9000000000000D-01  1.3601566173901D+00 -2.3219922679351D-01
81  8.0000000000000D-01  1.3550767526126D+00 -2.1084444220159D-01
82  8.1000000000000D-01  1.3485125708202D+00 -1.8744742193194D-01
83  8.2000000000000D-01  1.3404645604529D+00 -1.6203706189513D-01
84  8.3000000000000D-01  1.3309368822644D+00 -1.3464980252186D-01
85  8.4000000000000D-01  1.3199373924524D+00 -1.0532958321950D-01
86  8.5000000000000D-01  1.3074776533707D+00 -7.4127767211422D-02
87  8.6000000000000D-01  1.2935729316568D+00 -4.1103036692127D-02
88  8.7000000000000D-01  1.2782421836547D+00 -6.3212583560178D-03
89  8.8000000000000D-01  1.2615080280670D+00  3.0144680514530D-02
90  8.9000000000000D-01  1.2433967058163D+00  6.8215065087478D-02
91  9.0000000000000D-01  1.2239380271500D+00  1.0780357470243D-01
92  9.1000000000000D-01  1.2031653060729D+00  1.4881753270195D-01
93  9.2000000000000D-01  1.1811152822464D+00  1.9115818367149D-01
94  9.3000000000000D-01  1.1578280305415D+00  2.3472099725889D-01
95  9.4000000000000D-01  1.1333468584898D+00  2.7939599761889D-01
96  9.5000000000000D-01  1.1077181919231D+00  3.2506811740520D-01
97  9.6000000000000D-01  1.0809914491472D+00  3.7161757511266D-01
98  9.7000000000000D-01  1.0532189040439D+00  4.1892027445593D-01
99  9.8000000000000D-01  1.0244555385431D+00  4.6684822435998D-01
100  9.9000000000000D-01  9.9475888495565D-01  5.1526997802974D-01
101  1.0000000000000D+00  9.6418885870329D-01  5.6405108946751D-01
102  1.0100000000000D+00  9.3280758202436D-01  6.1305458571034D-01
103  1.0200000000000D+00  9.0067919927731D-01  6.6214145297148D-01
104  1.0300000000000D+00  8.6786968450232D-01  7.1117113479041D-01
105  1.0400000000000D+00  8.3444664193835D-01  7.6000204022239D-01
106  1.0500000000000D+00  8.0047910022718D-01  8.0849206003318D-01
107  1.0600000000000D+00  7.6603730106632D-01  8.5649908881044D-01
108  1.0700000000000D+00  7.3119248310078D-01  9.0388155085481D-01
109  1.0800000000000D+00  6.9601666186905D-01  9.5049892767569D-01
110  1.0900000000000D+00  6.6058240663862D-01  9.9621228489005D-01
111  1.1000000000000D+00  6.2496261498478D-01  1.0408847963046D+00
112  1.1100000000000D+00  5.8923028597917D-01  1.0843822629536D+00
113  1.1200000000000D+00  5.5345829286613D-01  1.1265736248659D+00
114  1.1300000000000D+00  5.1771915611024D-01  1.1673314633486D+00
115  1.1400000000000D+00  4.8208481770046D-01  1.2065324916014D+00
116  1.1500000000000D+00  4.4662641759486D-01  1.2440580315033D+00
117  1.1600000000000D+00  4.1141407318529D-01  1.2797944744596D+00
118  1.1700000000000D+00  3.7651666265067D-01  1.3136337242529D+00
119  1.1800000000000D+00  3.4200161305152D-01  1.3454736199159D+00
120  1.1900000000000D+00  3.0793469400759D-01  1.3752183366907D+00
121  1.2000000000000D+00  2.7437981777332D-01  1.4027787632504D+00
122  1.2100000000000D+00  2.4139884650089D-01  1.4280728534463D+00
123  1.2200000000000D+00  2.0905140745200D-01  1.4510259509455D+00
124  1.2300000000000D+00  1.7739471689670D-01  1.4715710852063D+00
125  1.2400000000000D+00  1.4648341338575D-01  1.4896492374078D+00
126  1.2500000000000D+00  1.1636940104563D-01  1.5052095750689D+00
127  1.2600000000000D+00  8.7101703531382D-02  1.5182096541401D+00
128  1.2700000000000D+00  5.8726329187659D-02  1.5286155876136D+00
129  1.2800000000000D+00  3.1286147928946D-02  1.5364021798129D+00
130  1.2900000000000D+00  4.8207803466594D-03  1.5415530255365D+00
131  1.3000000000000D+00 -2.0633500571628D-02  1.5440605735940D+00
132  1.3100000000000D+00 -4.5043854751566D-02  1.5439261543400D+00
133  1.3200000000000D+00 -6.8380947016469D-02  1.5411599708346D+00
134  1.3300000000000D+00 -9.0619005546660D-02  1.5357810536935D+00
135  1.3400000000000D+00 -1.1173586660677D-01  1.5278171796637D+00
136  1.3500000000000D+00 -1.3171300537177D-01  1.5173047540753D+00
137  1.3600000000000D+00 -1.5053555284433D-01  1.5042886577544D+00
138  1.3700000000000D+00 -1.6819229879533D-01  1.4888220588154D+00
139  1.3800000000000D+00 -1.8467568078057D-01  1.4709661900856D+00
140  1.3900000000000D+00 -1.9998175940400D-01  1.4507900932042D+00
141  1.4000000000000D+00 -2.1411017987906D-01  1.4283703301454D+00
142  1.4100000000000D+00 -2.2706412022690D-01  1.4037906636437D+00
143  1.4200000000000D+00 -2.3885022633445D-01  1.3771417076975D+00
144  1.4300000000000D+00 -2.4947853418774D-01  1.3485205495758D+00
145  1.4400000000000D+00 -2.5896237977192D-01  1.3180303451567D+00
146  1.4500000000000D+00 -2.6731829693337D-01  1.2857798889745D+00
147  1.4600000000000D+00 -2.7456590384398D-01  1.2518831611546D+00
148  1.4700000000000D+00 -2.8072777850939D-01  1.2164588529452D+00
149  1.4800000000000D+00 -2.8582932393461D-01  1.1796298729661D+00
150  1.4900000000000D+00 -2.8989862361482D-01  1.1415228363668D+00
151  1.5000000000000D+00 -2.9296628791757D-01  1.1022675389235D+00
152  1.5100000000000D+00 -2.9506529218988D-01  1.0619964185795D+00
153  1.5200000000000D+00 -2.9623080717974D-01  1.0208440065177D+00
154  1.5300000000000D+00 -2.9650002265574D-01  9.7894637033759D-01
155  1.5400000000000D+00 -2.9591196491678D-01  9.3644055159220D-01
156  1.5500000000000D+00 -2.9450730905164D-01  8.9346400021500D-01
157  1.5600000000000D+00 -2.9232818673971D-01  8.5015400818288D-01
158  1.5700000000000D+00 -2.8941799043742D-01  8.0664714495360D-01
159  1.5800000000000D+00 -2.8582117478260D-01  7.6307869693554D-01
160  1.5900000000000D+00 -2.8158305607847D-01  7.1958211363293D-01
161  1.6000000000000D+00 -2.7674961066391D-01  6.7628846244743D-01
162  1.6100000000000D+00 -2.7136727308047D-01  6.3332589496111D-01
163  1.6200000000000D+00 -2.6548273476176D-01  5.9081912627981D-01
164  1.6300000000000D+00 -2.5914274421250D-01  5.4888893041148D-01
165  1.6400000000000D+00 -2.5239390930197D-01  5.0765165287582D-01
166  1.6500000000000D+00 -2.4528250266758D-01  4.6721874351593D-01
167  1.6600000000000D+00 -2.3785427075708D-01  4.2769631039569D-01
168  1.6700000000000D+00 -2.3015424750480D-01  3.8918469764751D-01
169  1.6800000000000D+00 -2.2222657306530D-01  3.5177808781971D-01
170  1.6900000000000D+00 -2.1411431859037D-01  3.1556413147064D-01
171  1.7000000000000D+00 -2.0585931734359D-01  2.8062360414610D-01
172  1.7100000000000D+00 -1.9750200313716D-01  2.4703009341427D-01
173  1.7200000000000D+00 -1.8908125621673D-01  2.1484971555922D-01
174  1.7300000000000D+00 -1.8063425760581D-01  1.8414086463465D-01
175  1.7400000000000D+00 -1.7219635164751D-01  1.5495399221580D-01
176  1.7500000000000D+00 -1.6380091789409D-01  1.2733142095232D-01
177  1.7600000000000D+00 -1.5547925582977D-01  1.0130720329538D-01
178  1.7700000000000D+00 -1.4726046095901D-01  7.6906951944998D-02
179  1.7800000000000D+00 -1.3917136968634D-01  5.4147897610113D-02
180  1.7900000000000D+00 -1.3123642889428D-01  3.3038708524648D-02
181  1.8000000000000D+00 -1.2347754335396D-01  1.3579201828067D-02
182  1.8100000000000D+00 -1.1591420377618D-01 -4.2389625104308D-03
183  1.8200000000000D+00 -1.0856356495630D-01 -2.0431749866462D-02
184  1.8300000000000D+00 -1.0144056924204D-01 -3.5022169407834D-02
185  1.8400000000000D+00 -9.4558159976289D-02 -4.8039398422630D-02
186  1.8500000000000D+00 -8.7927349244675D-02 -5.9518422167757D-02
187  1.8600000000000D+00 -8.1557208366560D-02 -6.9499967776082D-02
188  1.8700000000000D+00 -7.5454918068626D-02 -7.8030235456530D-02
189  1.8800000000000D+00 -6.9625853614943D-02 -8.5160497089715D-02
190  1.8900000000000D+00 -6.4073643217818D-02 -9.0946805321101D-02
191  1.9000000000000D+00 -5.8800250334667D-02 -9.5449621196991D-02
192  1.9100000000000D+00 -5.3806056338189D-02 -9.8733446359222D-02
193  1.9200000000000D+00 -4.9089950675027D-02 -1.0086643458482D-01
194  1.9300000000000D+00 -4.4649426098460D-02 -1.0191999051451D-01
195  1.9400000000000D+00 -4.0480678906911D-02 -1.0196835615551D-01
196  1.9500000000000D+00 -3.6578713312055D-02 -1.0108818781188D-01
197  1.9600000000000D+00 -3.2937449341021D-02 -9.9358125415791D-02
198  1.9700000000000D+00 -2.9549833754523D-02 -9.6858356037381D-02
199  1.9800000000000D+00 -2.6407953150224D-02 -9.3670174003521D-02
200  1.9900000000000D+00 -2.3503148738906D-02 -8.9875539584933D-02
201  2.0000000000000D+00 -2.0826132108771D-02 -8.5556638100236D-02
202  2.0100000000000D+00 -1.8367101223962D-02 -8.0795442095826D-02
203  2.0200000000000D+00 -1.6115856149950D-02 -7.5673278053832D-02
204  2.0300000000000D+00 -1.4061913812280D-02 -7.0270399836799D-02
205  2.0400000000000D+00 -1.2194620936472D-02 -6.4665571650719D-02
206  2.0500000000000D+00 -1.0503265145831D-02 -5.8935660403307D-02
207  2.0600000000000D+00 -8.9771826742608D-03 -5.3155242522991D-02
208  2.0700000000000D+00 -7.6058631014017D-03 -4.7396223758398D-02
209  2.0800000000000D+00 -6.3790498807773D-03 -4.1727475903637D-02
210  2.0900000000000D+00 -5.2868360787242D-03 -3.6214492259216D-02
211  2.1000000000000D+00 -4.3197557773479D-03 -3.0919060314036D-02
212  2.1100000000000D+00 -3.4688688774477D-03 -2.5898958835256D-02
213  2.1200000000000D+00 -2.7258408312120D-03 -2.1207674455836D-02
214  2.1300000000000D+00 -2.0830218518999D-03 -1.6894240696021D-02
215  2.1400000000000D+00 -1.5337629636707D-03 -1.3006831151382D-02
216  2.1500000000000D+00 -1.0713390943960D-03 -9.5751825704255D-03
217  2.1600000000000D+00 -6.9018699411079D-04 -6.6222060516798D-03
218  2.1700000000000D+00 -3.8668388019730D-04 -4.1940111559882D-03
219  2.1800000000000D+00 -1.5890895208470D-04 -2.3537734748101D-03
220  2.1900000000000D+00 -2.5833273490418D-06 -1.1409388480433D-03
221  2.2000000000000D+00  8.2861532915558D-05 -4.4409592912330D-04
222  2.2100000000000D+00  1.0152241668162D-04 -1.1413340094315D-04
223  2.2200000000000D+00  6.6952430482897D-05  3.3317660127586D-06
224  2.2300000000000D+00  1.7049388069404D-05  9.0600266599332D-06
225  2.2400000000000D+00 -1.1655761923680D-05 -8.5575109953216D-06
226  2.2500000000000D+00 -1.2915917829398D-05 -1.1991611601729D-05
227  2.2600000000000D+00 -9.7523292427448D-07 -1.0337695628845D-06
228  2.2700000000000D+00  2.9505278902437D-06  1.2535788745720D-06
229  2.2800000000000D+00  2.3297706550535D-06  1.1727811767478D-06
230  2.2900000000000D+00 -8.4433900063994D-08  1.4295123811682D-07
231  2.3000000000000D+00 -2.9340420853883D-07  4.9674946730547D-07
232  2.3100000000000D+00 -1.5864058860072D-07  2.6858724444644D-07
233  2.3200000000000D+00  0.0000000000000D+00  0.0000000000000D+00
234  2.3300000000000D+00  0.0000000000000D+00  0.0000000000000D+00
235  2.3400000000000D+00  0.0000000000000D+00  0.0000000000000D+00
236  2.3500000000000D+00  0.0000000000000D+00  0.0000000000000D+00
237  2.3600000000000D+00  0.0000000000000D+00  0.0000000000000D+00
238  2.3700000000000D+00  0.0000000000000D+00  0.0000000000000D+00
239  2.3800000000000D+00  0.0000000000000D+00  0.0000000000000D+00
240  2.3900000000000D+00  0.0000000000000D+00  0.0000000000000D+00
241  2.4000000000000D+00  0.0000000000000D+00  0.0000000000000D+00
242  2.4100000000000D+00  0.0000000000000D+00  0.0000000000000D+00
243  2.4200000000000D+00  0.0000000000000D+00  0.0000000000000D+00
244  2.4300000000000D+00  0.0000000000000D+00  0.0000000000000D+00
245  2.4400000000000D+00  0.0000000000000D+00  0.0000000000000D+00
246  2.4500000000000D+00  0.0000000000000D+00  0.0000000000000D+00
247  2.4600000000000D+00  0.0000000000000D+00  0.0000000000000D+00
248  2.4700000000000D+00  0.0000000000000D+00  0.0000000000000D+00
249  2.4800000000000D+00  0.0000000000000D+00  0.0000000000000D+00
250  2.4900000000000D+00  0.0000000000000D+00  0.0000000000000D+00
251  2.5000000000000D+00  0.0000000000000D+00  0.0000000000000D+00
252  2.5100000000000D+00  0.0000000000000D+00  0.0000000000000D+00
253  2.5200000000000D+00  0.0000000000000D+00  0.0000000000000D+00
254  2.5300000000000D+00  0.0000000000000D+00  0.0000000000000D+00
255  2.5400000000000D+00  0.0000000000000D+00  0.0000000000000D+00
256  2.5500000000000D+00  0.0000000000000D+00  0.0000000000000D+00
257  2.5600000000000D+00  0.0000000000000D+00  0.0000000000000D+00
258  2.5700000000000D+00  0.0000000000000D+00  0.0000000000000D+00
259  2.5800000000000D+00  0.0000000000000D+00  0.0000000000000D+00
260  2.5900000000000D+00  0.0000000000000D+00  0.0000000000000D+00
261  2.6000000000000D+00  0.0000000000000D+00  0.0000000000000D+00
262  2.6100000000000D+00  0.0000000000000D+00  0.0000000000000D+00
263  2.6200000000000D+00  0.0000000000000D+00  0.0000000000000D+00
264  2.6300000000000D+00  0.0000000000000D+00  0.0000000000000D+00
265  2.6400000000000D+00  0.0000000000000D+00  0.0000000000000D+00
266  2.6500000000000D+00  0.0000000000000D+00  0.0000000000000D+00
267  2.6600000000000D+00  0.0000000000000D+00  0.0000000000000D+00
268  2.6700000000000D+00  0.0000000000000D+00  0.0000000000000D+00
269  2.6800000000000D+00  0.0000000000000D+00  0.0000000000000D+00
270  2.6900000000000D+00  0.0000000000000D+00  0.0000000000000D+00
271  2.7000000000000D+00  0.0000000000000D+00  0.0000000000000D+00
272  2.7100000000000D+00  0.0000000000000D+00  0.0000000000000D+00
273  2.7200000000000D+00  0.0000000000000D+00  0.0000000000000D+00
274  2.7300000000000D+00  0.0000000000000D+00  0.0000000000000D+00
275  2.7400000000000D+00  0.0000000000000D+00  0.0000000000000D+00
276  2.7500000000000D+00  0.0000000000000D+00  0.0000000000000D+00
277  2.7600000000000D+00  0.0000000000000D+00  0.0000000000000D+00
278  2.7700000000000D+00  0.0000000000000D+00  0.0000000000000D+00
279  2.7800000000000D+00  0.0000000000000D+00  0.0000000000000D+00
280  2.7900000000000D+00  0.0000000000000D+00  0.0000000000000D+00
281  2.8000000000000D+00  0.0000000000000D+00  0.0000000000000D+00
282  2.8100000000000D+00  0.0000000000000D+00  0.0000000000000D+00
283  2.8200000000000D+00  0.0000000000000D+00  0.0000000000000D+00
284  2.8300000000000D+00  0.0000000000000D+00  0.0000000000000D+00
285  2.8400000000000D+00  0.0000000000000D+00  0.0000000000000D+00
286  2.8500000000000D+00  0.0000000000000D+00  0.0000000000000D+00
287  2.8600000000000D+00  0.0000000000000D+00  0.0000000000000D+00
288  2.8700000000000D+00  0.0000000000000D+00  0.0000000000000D+00
289  2.8800000000000D+00  0.0000000000000D+00  0.0000000000000D+00
290  2.8900000000000D+00  0.0000000000000D+00  0.0000000000000D+00
291  2.9000000000000D+00  0.0000000000000D+00  0.0000000000000D+00
292  2.9100000000000D+00  0.0000000000000D+00  0.0000000000000D+00
293  2.9200000000000D+00  0.0000000000000D+00  0.0000000000000D+00
294  2.9300000000000D+00  0.0000000000000D+00  0.0000000000000D+00
295  2.9400000000000D+00  0.0000000000000D+00  0.0000000000000D+00
296  2.9500000000000D+00  0.0000000000000D+00  0.0000000000000D+00
297  2.9600000000000D+00  0.0000000000000D+00  0.0000000000000D+00
298  2.9700000000000D+00  0.0000000000000D+00  0.0000000000000D+00
299  2.9800000000000D+00  0.0000000000000D+00  0.0000000000000D+00
300  2.9900000000000D+00  0.0000000000000D+00  0.0000000000000D+00
301  3.0000000000000D+00  0.0000000000000D+00  0.0000000000000D+00
302  3.0100000000000D+00  0.0000000000000D+00  0.0000000000000D+00
303  3.0200000000000D+00  0.0000000000000D+00  0.0000000000000D+00
304  3.0300000000000D+00  0.0000000000000D+00  0.0000000000000D+00
305  3.0400000000000D+00  0.0000000000000D+00  0.0000000000000D+00
306  3.0500000000000D+00  0.0000000000000D+00  0.0000000000000D+00
307  3.0600000000000D+00  0.0000000000000D+00  0.0000000000000D+00
308  3.0700000000000D+00  0.0000000000000D+00  0.0000000000000D+00
309  3.0800000000000D+00  0.0000000000000D+00  0.0000000000000D+00
310  3.0900000000000D+00  0.0000000000000D+00  0.0000000000000D+00
311  3.1000000000000D+00  0.0000000000000D+00  0.0000000000000D+00
312  3.1100000000000D+00  0.0000000000000D+00  0.0000000000000D+00
313  3.1200000000000D+00  0.0000000000000D+00  0.0000000000000D+00
314  3.1300000000000D+00  0.0000000000000D+00  0.0000000000000D+00
315  3.1400000000000D+00  0.0000000000000D+00  0.0000000000000D+00
316  3.1500000000000D+00  0.0000000000000D+00  0.0000000000000D+00
317  3.1600000000000D+00  0.0000000000000D+00  0.0000000000000D+00
318  3.1700000000000D+00  0.0000000000000D+00  0.0000000000000D+00
319  3.1800000000000D+00  0.0000000000000D+00  0.0000000000000D+00
320  3.1900000000000D+00  0.0000000000000D+00  0.0000000000000D+00
321  3.2000000000000D+00  0.0000000000000D+00  0.0000000000000D+00
322  3.2100000000000D+00  0.0000000000000D+00  0.0000000000000D+00
323  3.2200000000000D+00  0.0000000000000D+00  0.0000000000000D+00
324  3.2300000000000D+00  0.0000000000000D+00  0.0000000000000D+00
325  3.2400000000000D+00  0.0000000000000D+00  0.0000000000000D+00
326  3.2500000000000D+00  0.0000000000000D+00  0.0000000000000D+00
327  3.2600000000000D+00  0.0000000000000D+00  0.0000000000000D+00
328  3.2700000000000D+00  0.0000000000000D+00  0.0000000000000D+00
329  3.2800000000000D+00  0.0000000000000D+00  0.0000000000000D+00
330  3.2900000000000D+00  0.0000000000000D+00  0.0000000000000D+00
331  3.3000000000000D+00  0.0000000000000D+00  0.0000000000000D+00
332  3.3100000000000D+00  0.0000000000000D+00  0.0000000000000D+00
333  3.3200000000000D+00  0.0000000000000D+00  0.0000000000000D+00
334  3.3300000000000D+00  0.0000000000000D+00  0.0000000000000D+00
335  3.3400000000000D+00  0.0000000000000D+00  0.0000000000000D+00
336  3.3500000000000D+00  0.0000000000000D+00  0.0000000000000D+00
337  3.3600000000000D+00  0.0000000000000D+00  0.0000000000000D+00
338  3.3700000000000D+00  0.0000000000000D+00  0.0000000000000D+00
339  3.3800000000000D+00  0.0000000000000D+00  0.0000000000000D+00
340  3.3900000000000D+00  0.0000000000000D+00  0.0000000000000D+00
341  3.4000000000000D+00  0.0000000000000D+00  0.0000000000000D+00
342  3.4100000000000D+00  0.0000000000000D+00  0.0000000000000D+00
343  3.4200000000000D+00  0.0000000000000D+00  0.0000000000000D+00
344  3.4300000000000D+00  0.0000000000000D+00  0.0000000000000D+00
345  3.4400000000000D+00  0.0000000000000D+00  0.0000000000000D+00
346  3.4500000000000D+00  0.0000000000000D+00  0.0000000000000D+00
347  3.4600000000000D+00  0.0000000000000D+00  0.0000000000000D+00
348  3.4700000000000D+00  0.0000000000000D+00  0.0000000000000D+00
349  3.4800000000000D+00  0.0000000000000D+00  0.0000000000000D+00
350  3.4900000000000D+00  0.0000000000000D+00  0.0000000000000D+00
351  3.5000000000000D+00  0.0000000000000D+00  0.0000000000000D+00
352  3.5100000000000D+00  0.0000000000000D+00  0.0000000000000D+00
353  3.5200000000000D+00  0.0000000000000D+00  0.0000000000000D+00
354  3.5300000000000D+00  0.0000000000000D+00  0.0000000000000D+00
355  3.5400000000000D+00  0.0000000000000D+00  0.0000000000000D+00
356  3.5500000000000D+00  0.0000000000000D+00  0.0000000000000D+00
357  3.5600000000000D+00  0.0000000000000D+00  0.0000000000000D+00
358  3.5700000000000D+00  0.0000000000000D+00  0.0000000000000D+00
359  3.5800000000000D+00  0.0000000000000D+00  0.0000000000000D+00
360  3.5900000000000D+00  0.0000000000000D+00  0.0000000000000D+00
361  3.6000000000000D+00  0.0000000000000D+00  0.0000000000000D+00
362  3.6100000000000D+00  0.0000000000000D+00  0.0000000000000D+00
363  3.6200000000000D+00  0.0000000000000D+00  0.0000000000000D+00
364  3.6300000000000D+00  0.0000000000000D+00  0.0000000000000D+00
365  3.6400000000000D+00  0.0000000000000D+00  0.0000000000000D+00
366  3.6500000000000D+00  0.0000000000000D+00  0.0000000000000D+00
367  3.6600000000000D+00  0.0000000000000D+00  0.0000000000000D+00
368  3.6700000000000D+00  0.0000000000000D+00  0.0000000000000D+00
369  3.6800000000000D+00  0.0000000000000D+00  0.0000000000000D+00
370  3.6900000000000D+00  0.0000000000000D+00  0.0000000000000D+00
371  3.7000000000000D+00  0.0000000000000D+00  0.0000000000000D+00
372  3.7100000000000D+00  0.0000000000000D+00  0.0000000000000D+00
373  3.7200000000000D+00  0.0000000000000D+00  0.0000000000000D+00
374  3.7300000000000D+00  0.0000000000000D+00  0.0000000000000D+00
375  3.7400000000000D+00  0.0000000000000D+00  0.0000000000000D+00
376  3.7500000000000D+00  0.0000000000000D+00  0.0000000000000D+00
377  3.7600000000000D+00  0.0000000000000D+00  0.0000000000000D+00
378  3.7700000000000D+00  0.0000000000000D+00  0.0000000000000D+00
379  3.7800000000000D+00  0.0000000000000D+00  0.0000000000000D+00
380  3.7900000000000D+00  0.0000000000000D+00  0.0000000000000D+00
381  3.8000000000000D+00  0.0000000000000D+00  0.0000000000000D+00
382  3.8100000000000D+00  0.0000000000000D+00  0.0000000000000D+00
383  3.8200000000000D+00  0.0000000000000D+00  0.0000000000000D+00
384  3.8300000000000D+00  0.0000000000000D+00  0.0000000000000D+00
385  3.8400000000000D+00  0.0000000000000D+00  0.0000000000000D+00
386  3.8500000000000D+00  0.0000000000000D+00  0.0000000000000D+00
387  3.8600000000000D+00  0.0000000000000D+00  0.0000000000000D+00
388  3.8700000000000D+00  0.0000000000000D+00  0.0000000000000D+00
389  3.8800000000000D+00  0.0000000000000D+00  0.0000000000000D+00
390  3.8900000000000D+00  0.0000000000000D+00  0.0000000000000D+00
391  3.9000000000000D+00  0.0000000000000D+00  0.0000000000000D+00
392  3.9100000000000D+00  0.0000000000000D+00  0.0000000000000D+00
393  3.9200000000000D+00  0.0000000000000D+00  0.0000000000000D+00
394  3.9300000000000D+00  0.0000000000000D+00  0.0000000000000D+00
395  3.9400000000000D+00  0.0000000000000D+00  0.0000000000000D+00
396  3.9500000000000D+00  0.0000000000000D+00  0.0000000000000D+00
397  3.9600000000000D+00  0.0000000000000D+00  0.0000000000000D+00
398  3.9700000000000D+00  0.0000000000000D+00  0.0000000000000D+00
399  3.9800000000000D+00  0.0000000000000D+00  0.0000000000000D+00
400  3.9900000000000D+00  0.0000000000000D+00  0.0000000000000D+00
401  4.0000000000000D+00  0.0000000000000D+00  0.0000000000000D+00
402  4.0100000000000D+00  0.0000000000000D+00  0.0000000000000D+00
403  4.0200000000000D+00  0.0000000000000D+00  0.0000000000000D+00
404  4.0300000000000D+00  0.0000000000000D+00  0.0000000000000D+00
405  4.0400000000000D+00  0.0000000000000D+00  0.0000000000000D+00
406  4.0500000000000D+00  0.0000000000000D+00  0.0000000000000D+00
407  4.0600000000000D+00  0.0000000000000D+00  0.0000000000000D+00
408  4.0700000000000D+00  0.0000000000000D+00  0.0000000000000D+00
409  4.0800000000000D+00  0.0000000000000D+00  0.0000000000000D+00
410  4.0900000000000D+00  0.0000000000000D+00  0.0000000000000D+00
411  4.1000000000000D+00  0.0000000000000D+00  0.0000000000000D+00
412  4.1100000000000D+00  0.0000000000000D+00  0.0000000000000D+00
413  4.1200000000000D+00  0.0000000000000D+00  0.0000000000000D+00
414  4.1300000000000D+00  0.0000000000000D+00  0.0000000000000D+00
415  4.1400000000000D+00  0.0000000000000D+00  0.0000000000000D+00
416  4.1500000000000D+00  0.0000000000000D+00  0.0000000000000D+00
417  4.1600000000000D+00  0.0000000000000D+00  0.0000000000000D+00
418  4.1700000000000D+00  0.0000000000000D+00  0.0000000000000D+00
419  4.1800000000000D+00  0.0000000000000D+00  0.0000000000000D+00
420  4.1900000000000D+00  0.0000000000000D+00  0.0000000000000D+00
421  4.2000000000000D+00  0.0000000000000D+00  0.0000000000000D+00
422  4.2100000000000D+00  0.0000000000000D+00  0.0000000000000D+00
423  4.2200000000000D+00  0.0000000000000D+00  0.0000000000000D+00
424  4.2300000000000D+00  0.0000000000000D+00  0.0000000000000D+00
425  4.2400000000000D+00  0.0000000000000D+00  0.0000000000000D+00
426  4.2500000000000D+00  0.0000000000000D+00  0.0000000000000D+00
427  4.2600000000000D+00  0.0000000000000D+00  0.0000000000000D+00
428  4.2700000000000D+00  0.0000000000000D+00  0.0000000000000D+00
429  4.2800000000000D+00  0.0000000000000D+00  0.0000000000000D+00
430  4.2900000000000D+00  0.0000000000000D+00  0.0000000000000D+00
431  4.3000000000000D+00  0.0000000000000D+00  0.0000000000000D+00
432  4.3100000000000D+00  0.0000000000000D+00  0.0000000000000D+00
433  4.3200000000000D+00  0.0000000000000D+00  0.0000000000000D+00
434  4.3300000000000D+00  0.0000000000000D+00  0.0000000000000D+00
435  4.3400000000000D+00  0.0000000000000D+00  0.0000000000000D+00
436  4.3500000000000D+00  0.0000000000000D+00  0.0000000000000D+00
437  4.3600000000000D+00  0.0000000000000D+00  0.0000000000000D+00
438  4.3700000000000D+00  0.0000000000000D+00  0.0000000000000D+00
439  4.3800000000000D+00  0.0000000000000D+00  0.0000000000000D+00
440  4.3900000000000D+00  0.0000000000000D+00  0.0000000000000D+00
441  4.4000000000000D+00  0.0000000000000D+00  0.0000000000000D+00
442  4.4100000000000D+00  0.0000000000000D+00  0.0000000000000D+00
443  4.4200000000000D+00  0.0000000000000D+00  0.0000000000000D+00