Rn    ONCVPSP-3.3.0  r_core=   2.42844   2.10456   2.86982
86.0000      8.0000      171114    zatom,zion,pspd
8   -1012   2     4   600     0    pspcod,pspxc,lmax,lloc,mmax,r2well
5.99000000  8.00000000  0.00000000    rchrg fchrg qchrg
2     2     2     0     0    nproj
1     1           extension_switch
0                         5.8547904982446D+00  6.6770717515599D-01
1  0.0000000000000D+00  2.2331303473067D-12 -5.5188076331092D-12
2  1.0000000000000D-02  1.9977611206368D-02  4.3956506337378D-03
3  2.0000000000000D-02  3.9962808378073D-02  8.7559372218104D-03
4  3.0000000000000D-02  5.9963117015350D-02  1.3045646371045D-02
5  4.0000000000000D-02  7.9985941888947D-02  1.7229865500798D-02
6  5.0000000000000D-02  1.0003850717661D-01  2.1274132019447D-02
7  6.0000000000000D-02  1.2012779719945D-01  2.5144581029029D-02
8  7.0000000000000D-02  1.4026049795564D-01  2.8808091073802D-02
9  8.0000000000000D-02  1.6044293964644D-01  3.2232427454027D-02
10  9.0000000000000D-02  1.8068104038711D-01  3.5386382633065D-02
11  1.0000000000000D-01  2.0098025129157D-01  3.8239913274089D-02
12  1.1000000000000D-01  2.2134550311626D-01  4.0764273452142D-02
13  1.2000000000000D-01  2.4178115464379D-01  4.2932143598099D-02
14  1.3000000000000D-01  2.6229094298265D-01  4.4717754743116D-02
15  1.4000000000000D-01  2.8287793595333D-01  4.6097007645406D-02
16  1.5000000000000D-01  3.0354448672570D-01  4.7047586395791D-02
17  1.6000000000000D-01  3.2429219086603D-01  4.7549066114027D-02
18  1.7000000000000D-01  3.4512184594521D-01  4.7583014364891D-02
19  1.8000000000000D-01  3.6603341385241D-01  4.7133085940833D-02
20  1.9000000000000D-01  3.8702598595095D-01  4.6185110677079D-02
21  2.0000000000000D-01  4.0809775120484D-01  4.4727173985152D-02
22  2.1000000000000D-01  4.2924596739603D-01  4.2749689811668D-02
23  2.2000000000000D-01  4.5046693554364D-01  4.0245465751354D-02
24  2.3000000000000D-01  4.7175597762714D-01  3.7209760065977D-02
25  2.4000000000000D-01  4.9310741770600D-01  3.3640330384527D-02
26  2.5000000000000D-01  5.1451456651831D-01  2.9537473884454D-02
27  2.6000000000000D-01  5.3596970963118D-01  2.4904058778819D-02
28  2.7000000000000D-01  5.5746409920477D-01  1.9745546960039D-02
29  2.8000000000000D-01  5.7898794942179D-01  1.4070007677238D-02
30  2.9000000000000D-01  6.0053043562314D-01  7.8881221510020D-03
31  3.0000000000000D-01  6.2207969717956D-01  1.2131790568029D-03
32  3.1000000000000D-01  6.4362284411797D-01 -5.9389391641714D-03
33  3.2000000000000D-01  6.6514596751009D-01 -1.3549779179850D-02
34  3.3000000000000D-01  6.8663415361941D-01 -2.1598348812818D-02
35  3.4000000000000D-01  7.0807150179154D-01 -3.0061158213100D-02
36  3.5000000000000D-01  7.2944114606111D-01 -3.8912270086331D-02
37  3.6000000000000D-01  7.5072528043759D-01 -4.8123358877106D-02
38  3.7000000000000D-01  7.7190518782056D-01 -5.7663778778743D-02
39  3.8000000000000D-01  7.9296127248391D-01 -6.7500640412702D-02
40  3.9000000000000D-01  8.1387309605734D-01 -7.7598895992826D-02
41  4.0000000000000D-01  8.3461941692240D-01 -8.7921432761984D-02
42  4.1000000000000D-01  8.5517823292928D-01 -9.8429174461445D-02
43  4.2000000000000D-01  8.7552682733040D-01 -1.0908119056669D-01
44  4.3000000000000D-01  8.9564181781564D-01 -1.1983481299691D-01
45  4.4000000000000D-01  9.1549920852470D-01 -1.3064575998050D-01
46  4.5000000000000D-01  9.3507444490155D-01 -1.4146826673330D-01
47  4.6000000000000D-01  9.5434247124660D-01 -1.5225522258320D-01
48  4.7000000000000D-01  9.7327779081316D-01 -1.6295831415093D-01
49  4.8000000000000D-01  9.9185452828566D-01 -1.7352817417547D-01
50  4.9000000000000D-01  1.0100464944688D+00 -1.8391453555070D-01
51  5.0000000000000D-01  1.0278272530090D+00 -1.9406639012086D-01
52  5.1000000000000D-01  1.0451701889615D+00 -2.0393215176285D-01
53  5.2000000000000D-01  1.0620485790104D+00 -2.1345982326651D-01
54  5.3000000000000D-01  1.0784356631408D+00 -2.2259716650777D-01
55  5.4000000000000D-01  1.0943047175587D+00 -2.3129187539466D-01
56  5.5000000000000D-01  1.1096291286465D+00 -2.3949175105324D-01
57  5.6000000000000D-01  1.1243824677378D+00 -2.4714487870837D-01
58  5.7000000000000D-01  1.1385385664933D+00 -2.5419980570465D-01
59  5.8000000000000D-01  1.1520715926517D+00 -2.6060572010370D-01
60  5.9000000000000D-01  1.1649561259311D+00 -2.6631262928766D-01
61  6.0000000000000D-01  1.1771672338503D+00 -2.7127153799309D-01
62  6.1000000000000D-01  1.1886805472415D+00 -2.7543462519684D-01
63  6.2000000000000D-01  1.1994723352212D+00 -2.7875541927280D-01
64  6.3000000000000D-01  1.2095195793896D+00 -2.8118897083977D-01
65  6.4000000000000D-01  1.2188000470253D+00 -2.8269202272181D-01
66  6.5000000000000D-01  1.2272923630487D+00 -2.8322317644695D-01
67  6.6000000000000D-01  1.2349760805224D+00 -2.8274305471545D-01
68  6.7000000000000D-01  1.2418317494670D+00 -2.8121445927686D-01
69  6.8000000000000D-01  1.2478409837673D+00 -2.7860252366403D-01
70  6.9000000000000D-01  1.2529865259541D+00 -2.7487486024435D-01
71  7.0000000000000D-01  1.2572523096451D+00 -2.7000170106069D-01
72  7.1000000000000D-01  1.2606235194410D+00 -2.6395603195064D-01
73  7.2000000000000D-01  1.2630866480718D+00 -2.5671371944840D-01
74  7.3000000000000D-01  1.2646295506009D+00 -2.4825362999301D-01
75  7.4000000000000D-01  1.2652414954993D+00 -2.3855774098669D-01
76  7.5000000000000D-01  1.2649132124096D+00 -2.2761124326860D-01
77  7.6000000000000D-01  1.2636369364313D+00 -2.1540263459390D-01
78  7.7000000000000D-01  1.2614064487645D+00 -2.0192380373223D-01
79  7.8000000000000D-01  1.2582171135618D+00 -1.8717010482691D-01
80  7.9000000000000D-01  1.2540659108476D+00 -1.7114042168447D-01
81  8.0000000000000D-01  1.2489514653748D+00 -1.5383722169305D-01
82  8.1000000000000D-01  1.2428740713006D+00 -1.3526659909964D-01
83  8.2000000000000D-01  1.2358357125747D+00 -1.1543830740765D-01
84  8.3000000000000D-01  1.2278400789467D+00 -9.4365780689717D-02
85  8.4000000000000D-01  1.2188925775110D+00 -7.2066143644494D-02
86  8.5000000000000D-01  1.2090003397200D+00 -4.8560210261472D-02
87  8.6000000000000D-01  1.1981722238130D+00 -2.3872470993259D-02
88  8.7000000000000D-01  1.1864188126170D+00  1.9689316281905D-03
89  8.8000000000000D-01  1.1737524066946D+00  2.8932238958510D-02
90  8.9000000000000D-01  1.1601870128243D+00  5.6982123780020D-02
91  9.0000000000000D-01  1.1457383278150D+00  8.6079749364560D-02
92  9.1000000000000D-01  1.1304237176703D+00  1.1618283997345D-01
93  9.2000000000000D-01  1.1142621921311D+00  1.4724576266983D-01
94  9.3000000000000D-01  1.0972743746437D+00  1.7921962028059D-01
95  9.4000000000000D-01  1.0794824678082D+00  2.1205235530730D-01
96  9.5000000000000D-01  1.0609102143834D+00  2.4568886454781D-01
97  9.6000000000000D-01  1.0415828539332D+00  2.8007112415341D-01
98  9.7000000000000D-01  1.0215270752162D+00  3.1513832480941D-01
99  9.8000000000000D-01  1.0007709644331D+00  3.5082701669178D-01
100  9.9000000000000D-01  9.7934394945998D-01  3.8707126381688D-01
101  1.0000000000000D+00  9.5727674020822D-01  4.2380280736788D-01
102  1.0100000000000D+00  9.3460126526587D-01  4.6095123754847D-01
103  1.0200000000000D+00  9.1135060498569D-01  4.9844417348233D-01
104  1.0300000000000D+00  8.8755892119867D-01  5.3620745064705D-01
105  1.0400000000000D+00  8.6326138374188D-01  5.7416531530227D-01
106  1.0500000000000D+00  8.3849409400139D-01  6.1224062534411D-01
107  1.0600000000000D+00  8.1329400568010D-01  6.5035505699289D-01
108  1.0700000000000D+00  7.8769884301071D-01  6.8842931669786D-01
109  1.0800000000000D+00  7.6174701664261D-01  7.2638335761912D-01
110  1.0900000000000D+00  7.3547753743978D-01  7.6413660002883D-01
111  1.1000000000000D+00  7.0892992843444D-01  8.0160815495485D-01
112  1.1100000000000D+00  6.8214413518712D-01  8.3871705037554D-01
113  1.1200000000000D+00  6.5516043481091D-01  8.7538245925994D-01
114  1.1300000000000D+00  6.2801934392189D-01  9.1152392873679D-01
115  1.1400000000000D+00  6.0076152578248D-01  9.4706160966754D-01
116  1.1500000000000D+00  5.7342769690735D-01  9.8191648589242D-01
117  1.1600000000000D+00  5.4605853340474D-01  1.0160106024140D+00
118  1.1700000000000D+00  5.1869457732733D-01  1.0492672917814D+00
119  1.1800000000000D+00  4.9137614330726D-01  1.0816113979422D+00
120  1.1900000000000D+00  4.6414322575052D-01  1.1129694968272D+00
121  1.2000000000000D+00  4.3703540686428D-01  1.1432701129461D+00
122  1.2100000000000D+00  4.1009176578892D-01  1.1724439312760D+00
123  1.2200000000000D+00  3.8335078910315D-01  1.2004240037402D+00
124  1.2300000000000D+00  3.5685028296875D-01  1.2271459495822D+00
125  1.2400000000000D+00  3.3062728717428D-01  1.2525481489636D+00
126  1.2500000000000D+00  3.0471799133152D-01  1.2765719291339D+00
127  1.2600000000000D+00  2.7915765347663D-01  1.2991617425267D+00
128  1.2700000000000D+00  2.5398052131481D-01  1.3202653361800D+00
129  1.2800000000000D+00  2.2921975633920D-01  1.3398339119008D+00
130  1.2900000000000D+00  2.0490736105529D-01  1.3578222765977D+00
131  1.3000000000000D+00  1.8107410951978D-01  1.3741889822708D+00
132  1.3100000000000D+00  1.5774948139624D-01  1.3888964551694D+00
133  1.3200000000000D+00  1.3496159973048D-01  1.4019111136268D+00
134  1.3300000000000D+00  1.1273717261661D-01  1.4132034741796D+00
135  1.3400000000000D+00  9.1101438925132D-02  1.4227482455744D+00
136  1.3500000000000D+00  7.0078118257919D-02  1.4305244102885D+00
137  1.3600000000000D+00  4.9689365257358D-02  1.4365152932995D+00
138  1.3700000000000D+00  2.9955728410468D-02  1.4407086178024D+00
139  1.3800000000000D+00  1.0896113462084D-02  1.4430965476470D+00
140  1.3900000000000D+00 -7.4722484812151D-03  1.4436757163686D+00
141  1.4000000000000D+00 -2.5133828041855D-02  1.4424472425849D+00
142  1.4100000000000D+00 -4.2074819818117D-02  1.4394167317565D+00
143  1.4200000000000D+00 -5.8283159720021D-02  1.4345942642226D+00
144  1.4300000000000D+00 -7.3748537348142D-02  1.4279943694870D+00
145  1.4400000000000D+00 -8.8462403427259D-02  1.4196359868945D+00
146  1.4500000000000D+00 -1.0241797224225D-01  1.4095424126541D+00
147  1.4600000000000D+00 -1.1561021913488D-01  1.3977412334822D+00
148  1.4700000000000D+00 -1.2803587305801D-01  1.3842642469623D+00
149  1.4800000000000D+00 -1.3969340423631D-01  1.3691473688672D+00
150  1.4900000000000D+00 -1.5058300701413D-01  1.3524305277779D+00
151  1.5000000000000D+00 -1.6070657791904D-01  1.3341575471868D+00
152  1.5100000000000D+00 -1.7006768909453D-01  1.3143760156226D+00
153  1.5200000000000D+00 -1.7867155713691D-01  1.2931371450044D+00
154  1.5300000000000D+00 -1.8652500751924D-01  1.2704956178400D+00
155  1.5400000000000D+00 -1.9363643468890D-01  1.2465094236200D+00
156  1.5500000000000D+00 -2.0001575801137D-01  1.2212396849945D+00
157  1.5600000000000D+00 -2.0567437371676D-01  1.1947504742699D+00
158  1.5700000000000D+00 -2.1062510300448D-01  1.1671086207710D+00
159  1.5800000000000D+00 -2.1488213652648D-01  1.1383835097707D+00
160  1.5900000000000D+00 -2.1846097539208D-01  1.1086468735031D+00
161  1.6000000000000D+00 -2.2137836896627D-01  1.0779725750923D+00
162  1.6100000000000D+00 -2.2365224960151D-01  1.0464363859093D+00
163  1.6200000000000D+00 -2.2530166460747D-01  1.0141157572628D+00
164  1.6300000000000D+00 -2.2634670561225D-01  9.8108958697894D-01
165  1.6400000000000D+00 -2.2680843562757D-01  9.4743798178366D-01
166  1.6500000000000D+00 -2.2670881400018D-01  9.1324201611922D-01
167  1.6600000000000D+00 -2.2607061955429D-01  8.7858348827847D-01
168  1.6700000000000D+00 -2.2491737213705D-01  8.4354467456340D-01
169  1.6800000000000D+00 -2.2327325286119D-01  8.0820808231181D-01
170  1.6900000000000D+00 -2.2116302328054D-01  7.7265620255867D-01
171  1.7000000000000D+00 -2.1861194377962D-01  7.3697126312525D-01
172  1.7100000000000D+00 -2.1564569143317D-01  7.0123498295552D-01
173  1.7200000000000D+00 -2.1229027759781D-01  6.6552832842064D-01
174  1.7300000000000D+00 -2.0857196551249D-01  6.2993127246953D-01
175  1.7400000000000D+00 -2.0451718814027D-01  5.9452255723759D-01
176  1.7500000000000D+00 -2.0015246655482D-01  5.5937946107361D-01
177  1.7600000000000D+00 -1.9550432905779D-01  5.2457757043197D-01
178  1.7700000000000D+00 -1.9059923137027D-01  4.9019055771753D-01
179  1.7800000000000D+00 -1.8546347801527D-01  4.5628996529239D-01
180  1.7900000000000D+00 -1.8012314528677D-01  4.2294499689790D-01
181  1.8000000000000D+00 -1.7460400584754D-01  3.9022231645470D-01
182  1.8100000000000D+00 -1.6893145538157D-01  3.5818585557620D-01
183  1.8200000000000D+00 -1.6313044130241D-01  3.2689662963802D-01
184  1.8300000000000D+00 -1.5722539392331D-01  2.9641256364668D-01
185  1.8400000000000D+00 -1.5124016009916D-01  2.6678832779900D-01
186  1.8500000000000D+00 -1.4519793966715D-01  2.3807518369148D-01
187  1.8600000000000D+00 -1.3912122476366D-01  2.1032084130884D-01
188  1.8700000000000D+00 -1.3303174219603D-01  1.8356932725020D-01
189  1.8800000000000D+00 -1.2695039908406D-01  1.5786086477766D-01
190  1.8900000000000D+00 -1.2089723172652D-01  1.3323176541525D-01
191  1.9000000000000D+00 -1.1489135810911D-01  1.0971433333202D-01
192  1.9100000000000D+00 -1.0895093374591D-01  8.7336781397122D-02
193  1.9200000000000D+00 -1.0309311143790D-01  6.6123160662812D-02
194  1.9300000000000D+00 -9.7334004536331D-02  4.6093301845882D-02
195  1.9400000000000D+00 -9.1688654176238D-02  2.7262770169647D-02
196  1.9500000000000D+00 -8.6171000278389D-02  9.6428328194839D-03
197  1.9600000000000D+00 -8.0793856419835D-02 -6.7595607876714D-03
198  1.9700000000000D+00 -7.5568888741249D-02 -2.1941785504566D-02
199  1.9800000000000D+00 -7.0506598534054D-02 -3.5905534945133D-02
200  1.9900000000000D+00 -6.5616309034777D-02 -4.8656802449178D-02
201  2.0000000000000D+00 -6.0906155816736D-02 -6.0205850503629D-02
202  2.0100000000000D+00 -5.6383081250186D-02 -7.0567167294953D-02
203  2.0200000000000D+00 -5.2052832674403D-02 -7.9759411585274D-02
204  2.0300000000000D+00 -4.7919964271202D-02 -8.7805346058682D-02
205  2.0400000000000D+00 -4.3987841423337D-02 -9.4731764836771D-02
206  2.0500000000000D+00 -4.0258655592963D-02 -1.0056937905386D-01
207  2.0600000000000D+00 -3.6733422629494D-02 -1.0535277990601D-01
208  2.0700000000000D+00 -3.3412022184321D-02 -1.0912022871186D-01
209  2.0800000000000D+00 -3.0293211440934D-02 -1.1191356099096D-01
210  2.0900000000000D+00 -2.7374638816284D-02 -1.1377808998348D-01
211  2.1000000000000D+00 -2.4652774014833D-02 -1.1476290229212D-01
212  2.1100000000000D+00 -2.2123131782599D-02 -1.1491984424029D-01
213  2.1200000000000D+00 -1.9780369802365D-02 -1.1430306381759D-01
214  2.1300000000000D+00 -1.7618429411437D-02 -1.1296840269435D-01
215  2.1400000000000D+00 -1.5630652171587D-02 -1.1097292571315D-01
216  2.1500000000000D+00 -1.3810037011582D-02 -1.0837382358200D-01
217  2.1600000000000D+00 -1.2149189985004D-02 -1.0522868021076D-01
218  2.1700000000000D+00 -1.0640388179766D-02 -1.0159525186601D-01
219  2.1800000000000D+00 -9.2756289400677D-03 -9.7531307017708D-02
220  2.1900000000000D+00 -8.0467177686836D-03 -9.3094284722500D-02
221  2.2000000000000D+00 -6.9453129117999D-03 -8.8341156322912D-02
222  2.2100000000000D+00 -5.9629902262293D-03 -8.3328193703890D-02
223  2.2200000000000D+00 -5.0913017401563D-03 -7.8110766315018D-02
224  2.2300000000000D+00 -4.3218334427605D-03 -7.2743141417313D-02
225  2.2400000000000D+00 -3.6462619162510D-03 -6.7278288724922D-02
226  2.2500000000000D+00 -3.0564097546446D-03 -6.1767689932016D-02
227  2.2600000000000D+00 -2.5442991754130D-03 -5.6261155022876D-02
228  2.2700000000000D+00 -2.1022037226946D-03 -5.0806645670227D-02
229  2.2800000000000D+00 -1.7226982730598D-03 -4.5450105030488D-02
230  2.2900000000000D+00 -1.3987063734900D-03 -4.0235297023862D-02
231  2.3000000000000D+00 -1.1235454560779D-03 -3.5203653344709D-02
232  2.3100000000000D+00 -8.9096963511748D-04 -3.0394129131258D-02
233  2.3200000000000D+00 -6.9520935456765D-04 -2.5843069601804D-02
234  2.3300000000000D+00 -5.3100865386102D-04 -2.1584085215580D-02
235  2.3400000000000D+00 -3.9365928709128D-04 -1.7647937769943D-02
236  2.3500000000000D+00 -2.7898746717344D-04 -1.4065512766874D-02
237  2.3600000000000D+00 -1.8353620645655D-04 -1.0856950826937D-02
238  2.3700000000000D+00 -1.0446767067254D-04 -8.0400885563646D-03
239  2.3800000000000D+00 -4.0370105039874D-05 -5.6180797798079D-03
240  2.3900000000000D+00  1.1998013691213D-05 -3.6452612782632D-03
241  2.4000000000000D+00  5.4325181663612D-05 -2.1539191965539D-03
242  2.4100000000000D+00  8.9653306586200D-05 -1.1694223868864D-03
243  2.4200000000000D+00  1.0782663976673D-04 -5.7591571615272D-04
244  2.4300000000000D+00  1.0237112157188D-04 -2.5799420633500D-04
245  2.4400000000000D+00  6.8657550297505D-05 -8.9088809627362D-05
246  2.4500000000000D+00  2.7187509512515D-05 -1.8741371164323D-05
247  2.4600000000000D+00 -4.3911689381124D-06  1.9081521466442D-06
248  2.4700000000000D+00 -1.2115482345136D-05  2.0123488712309D-06
249  2.4800000000000D+00 -6.9898672574906D-06 -1.6262679962268D-07
250  2.4900000000000D+00  9.9311851971360D-07 -7.4925557507967D-07
251  2.5000000000000D+00  2.6750090912548D-06 -1.7479586497008D-06
252  2.5100000000000D+00  1.6396743966122D-06 -9.3521499850028D-07
253  2.5200000000000D+00 -1.0936973692464D-07  3.0703962707116D-07
254  2.5300000000000D+00 -2.9802332571328D-07  8.3665713531492D-07
255  2.5400000000000D+00 -1.9244110185871D-07  5.4025040024169D-07
256  2.5500000000000D+00  0.0000000000000D+00  0.0000000000000D+00
257  2.5600000000000D+00  0.0000000000000D+00  0.0000000000000D+00
258  2.5700000000000D+00  0.0000000000000D+00  0.0000000000000D+00
259  2.5800000000000D+00  0.0000000000000D+00  0.0000000000000D+00
260  2.5900000000000D+00  0.0000000000000D+00  0.0000000000000D+00
261  2.6000000000000D+00  0.0000000000000D+00  0.0000000000000D+00
262  2.6100000000000D+00  0.0000000000000D+00  0.0000000000000D+00
263  2.6200000000000D+00  0.0000000000000D+00  0.0000000000000D+00
264  2.6300000000000D+00  0.0000000000000D+00  0.0000000000000D+00
265  2.6400000000000D+00  0.0000000000000D+00  0.0000000000000D+00
266  2.6500000000000D+00  0.0000000000000D+00  0.0000000000000D+00
267  2.6600000000000D+00  0.0000000000000D+00  0.0000000000000D+00
268  2.6700000000000D+00  0.0000000000000D+00  0.0000000000000D+00
269  2.6800000000000D+00  0.0000000000000D+00  0.0000000000000D+00
270  2.6900000000000D+00  0.0000000000000D+00  0.0000000000000D+00
271  2.7000000000000D+00  0.0000000000000D+00  0.0000000000000D+00
272  2.7100000000000D+00  0.0000000000000D+00  0.0000000000000D+00
273  2.7200000000000D+00  0.0000000000000D+00  0.0000000000000D+00
274  2.7300000000000D+00  0.0000000000000D+00  0.0000000000000D+00
275  2.7400000000000D+00  0.0000000000000D+00  0.0000000000000D+00
276  2.7500000000000D+00  0.0000000000000D+00  0.0000000000000D+00
277  2.7600000000000D+00  0.0000000000000D+00  0.0000000000000D+00
278  2.7700000000000D+00  0.0000000000000D+00  0.0000000000000D+00
279  2.7800000000000D+00  0.0000000000000D+00  0.0000000000000D+00
280  2.7900000000000D+00  0.0000000000000D+00  0.0000000000000D+00
281  2.8000000000000D+00  0.0000000000000D+00  0.0000000000000D+00
282  2.8100000000000D+00  0.0000000000000D+00  0.0000000000000D+00
283  2.8200000000000D+00  0.0000000000000D+00  0.0000000000000D+00
284  2.8300000000000D+00  0.0000000000000D+00  0.0000000000000D+00
285  2.8400000000000D+00  0.0000000000000D+00  0.0000000000000D+00
286  2.8500000000000D+00  0.0000000000000D+00  0.0000000000000D+00
287  2.8600000000000D+00  0.0000000000000D+00  0.0000000000000D+00
288  2.8700000000000D+00  0.0000000000000D+00  0.0000000000000D+00
289  2.8800000000000D+00  0.0000000000000D+00  0.0000000000000D+00
290  2.8900000000000D+00  0.0000000000000D+00  0.0000000000000D+00
291  2.9000000000000D+00  0.0000000000000D+00  0.0000000000000D+00
292  2.9100000000000D+00  0.0000000000000D+00  0.0000000000000D+00
293  2.9200000000000D+00  0.0000000000000D+00  0.0000000000000D+00
294  2.9300000000000D+00  0.0000000000000D+00  0.0000000000000D+00
295  2.9400000000000D+00  0.0000000000000D+00  0.0000000000000D+00
296  2.9500000000000D+00  0.0000000000000D+00  0.0000000000000D+00
297  2.9600000000000D+00  0.0000000000000D+00  0.0000000000000D+00
298  2.9700000000000D+00  0.0000000000000D+00  0.0000000000000D+00
299  2.9800000000000D+00  0.0000000000000D+00  0.0000000000000D+00
300  2.9900000000000D+00  0.0000000000000D+00  0.0000000000000D+00
301  3.0000000000000D+00  0.0000000000000D+00  0.0000000000000D+00
302  3.0100000000000D+00  0.0000000000000D+00  0.0000000000000D+00
303  3.0200000000000D+00  0.0000000000000D+00  0.0000000000000D+00
304  3.0300000000000D+00  0.0000000000000D+00  0.0000000000000D+00
305  3.0400000000000D+00  0.0000000000000D+00  0.0000000000000D+00
306  3.0500000000000D+00  0.0000000000000D+00  0.0000000000000D+00
307  3.0600000000000D+00  0.0000000000000D+00  0.0000000000000D+00
308  3.0700000000000D+00  0.0000000000000D+00  0.0000000000000D+00
309  3.0800000000000D+00  0.0000000000000D+00  0.0000000000000D+00
310  3.0900000000000D+00  0.0000000000000D+00  0.0000000000000D+00
311  3.1000000000000D+00  0.0000000000000D+00  0.0000000000000D+00
312  3.1100000000000D+00  0.0000000000000D+00  0.0000000000000D+00
313  3.1200000000000D+00  0.0000000000000D+00  0.0000000000000D+00
314  3.1300000000000D+00  0.0000000000000D+00  0.0000000000000D+00
315  3.1400000000000D+00  0.0000000000000D+00  0.0000000000000D+00
316  3.1500000000000D+00  0.0000000000000D+00  0.0000000000000D+00
317  3.1600000000000D+00  0.0000000000000D+00  0.0000000000000D+00
318  3.1700000000000D+00  0.0000000000000D+00  0.0000000000000D+00
319  3.1800000000000D+00  0.0000000000000D+00  0.0000000000000D+00
320  3.1900000000000D+00  0.0000000000000D+00  0.0000000000000D+00
321  3.2000000000000D+00  0.0000000000000D+00  0.0000000000000D+00
322  3.2100000000000D+00  0.0000000000000D+00  0.0000000000000D+00
323  3.2200000000000D+00  0.0000000000000D+00  0.0000000000000D+00
324  3.2300000000000D+00  0.0000000000000D+00  0.0000000000000D+00
325  3.2400000000000D+00  0.0000000000000D+00  0.0000000000000D+00
326  3.2500000000000D+00  0.0000000000000D+00  0.0000000000000D+00
327  3.2600000000000D+00  0.0000000000000D+00  0.0000000000000D+00
328  3.2700000000000D+00  0.0000000000000D+00  0.0000000000000D+00
329  3.2800000000000D+00  0.0000000000000D+00  0.0000000000000D+00
330  3.2900000000000D+00  0.0000000000000D+00  0.0000000000000D+00
331  3.3000000000000D+00  0.0000000000000D+00  0.0000000000000D+00
332  3.3100000000000D+00  0.0000000000000D+00  0.0000000000000D+00
333  3.3200000000000D+00  0.0000000000000D+00  0.0000000000000D+00
334  3.3300000000000D+00  0.0000000000000D+00  0.0000000000000D+00
335  3.3400000000000D+00  0.0000000000000D+00  0.0000000000000D+00
336  3.3500000000000D+00  0.0000000000000D+00  0.0000000000000D+00
337  3.3600000000000D+00  0.0000000000000D+00  0.0000000000000D+00
338  3.3700000000000D+00  0.0000000000000D+00  0.0000000000000D+00
339  3.3800000000000D+00  0.0000000000000D+00  0.0000000000000D+00
340  3.3900000000000D+00  0.0000000000000D+00  0.0000000000000D+00
341  3.4000000000000D+00  0.0000000000000D+00  0.0000000000000D+00
342  3.4100000000000D+00  0.0000000000000D+00  0.0000000000000D+00
343  3.4200000000000D+00  0.0000000000000D+00  0.0000000000000D+00
344  3.4300000000000D+00  0.0000000000000D+00  0.0000000000000D+00
345  3.4400000000000D+00  0.0000000000000D+00  0.0000000000000D+00
346  3.4500000000000D+00  0.0000000000000D+00  0.0000000000000D+00
347  3.4600000000000D+00  0.0000000000000D+00  0.0000000000000D+00
348  3.4700000000000D+00  0.0000000000000D+00  0.0000000000000D+00
349  3.4800000000000D+00  0.0000000000000D+00  0.0000000000000D+00
350  3.4900000000000D+00  0.0000000000000D+00  0.0000000000000D+00
351  3.5000000000000D+00  0.0000000000000D+00  0.0000000000000D+00
352  3.5100000000000D+00  0.0000000000000D+00  0.0000000000000D+00
353  3.5200000000000D+00  0.0000000000000D+00  0.0000000000000D+00
354  3.5300000000000D+00  0.0000000000000D+00  0.0000000000000D+00
355  3.5400000000000D+00  0.0000000000000D+00  0.0000000000000D+00
356  3.5500000000000D+00  0.0000000000000D+00  0.0000000000000D+00
357  3.5600000000000D+00  0.0000000000000D+00  0.0000000000000D+00
358  3.5700000000000D+00  0.0000000000000D+00  0.0000000000000D+00
359  3.5800000000000D+00  0.0000000000000D+00  0.0000000000000D+00
360  3.5900000000000D+00  0.0000000000000D+00  0.0000000000000D+00
361  3.6000000000000D+00  0.0000000000000D+00  0.0000000000000D+00
362  3.6100000000000D+00  0.0000000000000D+00  0.0000000000000D+00
363  3.6200000000000D+00  0.0000000000000D+00  0.0000000000000D+00
364  3.6300000000000D+00  0.0000000000000D+00  0.0000000000000D+00
365  3.6400000000000D+00  0.0000000000000D+00  0.0000000000000D+00
366  3.6500000000000D+00  0.0000000000000D+00  0.0000000000000D+00
367  3.6600000000000D+00  0.0000000000000D+00  0.0000000000000D+00
368  3.6700000000000D+00  0.0000000000000D+00  0.0000000000000D+00
369  3.6800000000000D+00  0.0000000000000D+00  0.0000000000000D+00
370  3.6900000000000D+00  0.0000000000000D+00  0.0000000000000D+00
371  3.7000000000000D+00  0.0000000000000D+00  0.0000000000000D+00
372  3.7100000000000D+00  0.0000000000000D+00  0.0000000000000D+00
373  3.7200000000000D+00  0.0000000000000D+00  0.0000000000000D+00
374  3.7300000000000D+00  0.0000000000000D+00  0.0000000000000D+00
375  3.7400000000000D+00  0.0000000000000D+00  0.0000000000000D+00
376  3.7500000000000D+00  0.0000000000000D+00  0.0000000000000D+00
377  3.7600000000000D+00  0.0000000000000D+00  0.0000000000000D+00
378  3.7700000000000D+00  0.0000000000000D+00  0.0000000000000D+00
379  3.7800000000000D+00  0.0000000000000D+00  0.0000000000000D+00
380  3.7900000000000D+00  0.0000000000000D+00  0.0000000000000D+00
381  3.8000000000000D+00  0.0000000000000D+00  0.0000000000000D+00
382  3.8100000000000D+00  0.0000000000000D+00  0.0000000000000D+00
383  3.8200000000000D+00  0.0000000000000D+00  0.0000000000000D+00
384  3.8300000000000D+00  0.0000000000000D+00  0.0000000000000D+00
385  3.8400000000000D+00  0.0000000000000D+00  0.0000000000000D+00
386  3.8500000000000D+00  0.0000000000000D+00  0.0000000000000D+00
387  3.8600000000000D+00  0.0000000000000D+00  0.0000000000000D+00
388  3.8700000000000D+00  0.0000000000000D+00  0.0000000000000D+00
389  3.8800000000000D+00  0.0000000000000D+00  0.0000000000000D+00
390  3.8900000000000D+00  0.0000000000000D+00  0.0000000000000D+00
391  3.9000000000000D+00  0.0000000000000D+00  0.0000000000000D+00
392  3.9100000000000D+00  0.0000000000000D+00  0.0000000000000D+00
393  3.9200000000000D+00  0.0000000000000D+00  0.0000000000000D+00
394  3.9300000000000D+00  0.0000000000000D+00  0.0000000000000D+00
395  3.9400000000000D+00  0.0000000000000D+00  0.0000000000000D+00
396  3.9500000000000D+00  0.0000000000000D+00  0.0000000000000D+00
397  3.9600000000000D+00  0.0000000000000D+00  0.0000000000000D+00
398  3.9700000000000D+00  0.0000000000000D+00  0.0000000000000D+00
399  3.9800000000000D+00  0.0000000000000D+00  0.0000000000000D+00
400  3.9900000000000D+00  0.0000000000000D+00  0.0000000000000D+00
401  4.0000000000000D+00  0.0000000000000D+00  0.0000000000000D+00
402  4.0100000000000D+00  0.0000000000000D+00  0.0000000000000D+00
403  4.0200000000000D+00  0.0000000000000D+00  0.0000000000000D+00
404  4.0300000000000D+00  0.0000000000000D+00  0.0000000000000D+00
405  4.0400000000000D+00  0.0000000000000D+00  0.0000000000000D+00
406  4.0500000000000D+00  0.0000000000000D+00  0.0000000000000D+00
407  4.0600000000000D+00  0.0000000000000D+00  0.0000000000000D+00
408  4.0700000000000D+00  0.0000000000000D+00  0.0000000000000D+00
409  4.0800000000000D+00  0.0000000000000D+00  0.0000000000000D+00
410  4.0900000000000D+00  0.0000000000000D+00  0.0000000000000D+00
411  4.1000000000000D+00  0.0000000000000D+00  0.0000000000000D+00
412  4.1100000000000D+00  0.0000000000000D+00  0.0000000000000D+00
413  4.1200000000000D+00  0.0000000000000D+00  0.0000000000000D+00
414  4.1300000000000D+00  0.0000000000000D+00  0.0000000000000D+00
415  4.1400000000000D+00  0.0000000000000D+00  0.0000000000000D+00
416  4.1500000000000D+00  0.0000000000000D+00  0.0000000000000D+00
417  4.1600000000000D+00  0.0000000000000D+00  0.0000000000000D+00
418  4.1700000000000D+00  0.0000000000000D+00  0.0000000000000D+00
419  4.1800000000000D+00  0.0000000000000D+00  0.0000000000000D+00
420  4.1900000000000D+00  0.0000000000000D+00  0.0000000000000D+00
421  4.2000000000000D+00  0.0000000000000D+00  0.0000000000000D+00
422  4.2100000000000D+00  0.0000000000000D+00  0.0000000000000D+00
423  4.2200000000000D+00  0.0000000000000D+00  0.0000000000000D+00
424  4.2300000000000D+00  0.0000000000000D+00  0.0000000000000D+00
425  4.2400000000000D+00  0.0000000000000D+00  0.0000000000000D+00
426  4.2500000000000D+00  0.0000000000000D+00  0.0000000000000D+00
427  4.2600000000000D+00  0.0000000000000D+00  0.0000000000000D+00
428  4.2700000000000D+00  0.0000000000000D+00  0.0000000000000D+00
429  4.2800000000000D+00  0.0000000000000D+00  0.0000000000000D+00
430  4.2900000000000D+00  0.0000000000000D+00  0.0000000000000D+00
431  4.3000000000000D+00  0.0000000000000D+00  0.0000000000000D+00
432  4.3100000000000D+00  0.0000000000000D+00  0.0000000000000D+00
433  4.3200000000000D+00  0.0000000000000D+00  0.0000000000000D+00
434  4.3300000000000D+00  0.0000000000000D+00  0.0000000000000D+00
435  4.3400000000000D+00  0.0000000000000D+00  0.0000000000000D+00
436  4.3500000000000D+00  0.0000000000000D+00  0.0000000000000D+00
437  4.3600000000000D+00  0.0000000000000D+00  0.0000000000000D+00
438  4.3700000000000D+00  0.0000000000000D+00  0.0000000000000D+00
439  4.3800000000000D+00  0.0000000000000D+00  0.0000000000000D+00
440  4.3900000000000D+00  0.0000000000000D+00  0.0000000000000D+00
441  4.4000000000000D+00  0.0000000000000D+00  0.0000000000000D+00
442  4.4100000000000D+00  0.0000000000000D+00  0.0000000000000D+00
443  4.4200000000000D+00  0.0000000000000D+00  0.0000000000000D+00