F     ONCVPSP  r_core=  1.31  1.46  1.60
9.0000      7.0000      161209    zatom,zion,pspd
8      11   2     4   600     0    pspcod,pspxc,lmax,lloc,mmax,r2well
5.99000000  2.50000000  0.00000000    rchrg fchrg qchrg
2     2     1     0     0    nproj
1                 extension_switch
0                         3.0981101169526D+00 -1.8553593114041D-01
1  0.0000000000000D+00 -4.9574816474163D-09 -3.8960107195951D-08
2  1.0000000000000D-02  9.4989964826982D-02  5.8512544757437D-02
3  2.0000000000000D-02  1.8953982988375D-01  1.1552274883072D-01
4  3.0000000000000D-02  2.8321422034717D-01  1.6955876276820D-01
5  4.0000000000000D-02  3.7558713631792D-01  2.1920915208552D-01
6  5.0000000000000D-02  4.6624645415171D-01  2.6315169618796D-01
7  6.0000000000000D-02  5.5479820803731D-01  3.0018052535210D-01
8  7.0000000000000D-02  6.4087058450968D-01  3.2923108847456D-01
9  8.0000000000000D-02  7.2411756754351D-01  3.4940248325529D-01
10  9.0000000000000D-02  8.0422217790598D-01  3.5997672788219D-01
11  1.0000000000000D-01  8.8089925745073D-01  3.6043460828765D-01
12  1.1000000000000D-01  9.5389775688763D-01  3.5046779668830D-01
13  1.2000000000000D-01  1.0230024941267D+00  3.2998700430990D-01
14  1.3000000000000D-01  1.0880353594212D+00  2.9912600275633D-01
15  1.4000000000000D-01  1.1488559530655D+00  2.5824142314141D-01
16  1.5000000000000D-01  1.2053616511702D+00  2.0790831854583D-01
17  1.6000000000000D-01  1.2574871048710D+00  1.4891155223665D-01
18  1.7000000000000D-01  1.3052031880577D+00  8.2233150032463D-02
19  1.8000000000000D-01  1.3485154181642D+00  9.0358288633380D-03
20  1.9000000000000D-01  1.3874618835716D+00 -6.9357016346869D-02
21  2.0000000000000D-01  1.4221107195952D+00 -1.5148452010846D-01
22  2.1000000000000D-01  1.4525571826927D+00 -2.3577434150319D-01
23  2.2000000000000D-01  1.4789203793212D+00 -3.2057098826624D-01
24  2.3000000000000D-01  1.5013397116575D+00 -4.0416596689722D-01
25  2.4000000000000D-01  1.5199711070833D+00 -4.8482922055134D-01
26  2.5000000000000D-01  1.5349831018363D+00 -5.6084129059630D-01
27  2.6000000000000D-01  1.5465528514812D+00 -6.3052562180958D-01
28  2.7000000000000D-01  1.5548621418180D+00 -6.9228042554973D-01
29  2.8000000000000D-01  1.5600934735017D+00 -7.4460951999476D-01
30  2.9000000000000D-01  1.5624262920038D+00 -7.8615158165475D-01
31  3.0000000000000D-01  1.5620334316231D+00 -8.1570726760312D-01
32  3.1000000000000D-01  1.5590778381118D+00 -8.3226370282365D-01
33  3.2000000000000D-01  1.5537096291827D+00 -8.3501587115622D-01
34  3.3000000000000D-01  1.5460635458046D+00 -8.2338450080293D-01
35  3.4000000000000D-01  1.5362568398809D+00 -7.9703009533389D-01
36  3.5000000000000D-01  1.5243876357764D+00 -7.5586282757997D-01
37  3.6000000000000D-01  1.5105337943366D+00 -7.0004808558080D-01
38  3.7000000000000D-01  1.4947522987106D+00 -6.3000753561442D-01
39  3.8000000000000D-01  1.4770791715794D+00 -5.4641564597173D-01
40  3.9000000000000D-01  1.4575299235017D+00 -4.5019169516352D-01
41  4.0000000000000D-01  1.4361005221820D+00 -3.4248736826962D-01
42  4.1000000000000D-01  1.4127688627132D+00 -2.2467012375306D-01
43  4.2000000000000D-01  1.3874967094346D+00 -9.8302588870718D-02
44  4.3000000000000D-01  1.3602320711342D+00  3.4881686520470D-02
45  4.4000000000000D-01  1.3309119630690D+00  1.7300572171565D-01
46  4.5000000000000D-01  1.2994655018426D+00  3.1407938679010D-01
47  4.6000000000000D-01  1.2658172726819D+00  4.5603196646686D-01
48  4.7000000000000D-01  1.2298909032253D+00  5.9674645526723D-01
49  4.8000000000000D-01  1.1916127736724D+00  7.3409499909830D-01
50  4.9000000000000D-01  1.1509157901248D+00  8.6597487461054D-01
51  5.0000000000000D-01  1.1077431462343D+00  9.9034438437519D-01
52  5.1000000000000D-01  1.0620519979015D+00  1.1052580434567D+00
53  5.2000000000000D-01  1.0138169767470D+00  1.2089004413973D+00
54  5.3000000000000D-01  9.6303347040034D-01  1.2996181828974D+00
55  5.4000000000000D-01  9.0972060127665D-01  1.3759493402233D+00
56  5.5000000000000D-01  8.5392384039529D-01  1.4366498902670D+00
57  5.6000000000000D-01  7.9571719883489D-01  1.4807166583762D+00
58  5.7000000000000D-01  7.3520494653723D-01  1.5074063489440D+00
59  5.8000000000000D-01  6.7252281623404D-01  1.5162503082072D+00
60  5.9000000000000D-01  6.0783865913806D-01  1.5070647366446D+00
61  6.0000000000000D-01  5.4135252857187D-01  1.4799561456580D+00
62  6.1000000000000D-01  4.7329617772945D-01  1.4353219344471D+00
63  6.2000000000000D-01  4.0393196808872D-01  1.3738460466517D+00
64  6.3000000000000D-01  3.3355119550379D-01  1.2964897515063D+00
65  6.4000000000000D-01  2.6247185138333D-01  1.2044776783611D+00
66  6.5000000000000D-01  1.9103584660797D-01  1.0992793164960D+00
67  6.6000000000000D-01  1.1960573561159D-01  9.8258627141574D-01
68  6.7000000000000D-01  4.8560987227069D-02  8.5628564330193D-01
69  6.8000000000000D-01 -2.1706142605784D-02  7.2242996234626D-01
70  6.9000000000000D-01 -9.0795073654149D-02  5.8320417688917D-01
71  7.0000000000000D-01 -1.5830163059500D-01  4.4089024345836D-01
72  7.1000000000000D-01 -2.2382296412945D-01  2.9782991156833D-01
73  7.2000000000000D-01 -2.8696258543044D-01  1.5638632994150D-01
74  7.3000000000000D-01 -3.4733543260794D-01  1.8905123668230D-02
75  7.4000000000000D-01 -4.0457288651259D-01 -1.1232439633299D-01
76  7.5000000000000D-01 -4.5832765327288D-01 -2.3510722988909D-01
77  7.6000000000000D-01 -5.0827843244425D-01 -3.4737923951072D-01
78  7.7000000000000D-01 -5.5413429257666D-01 -4.4724162961064D-01
79  7.8000000000000D-01 -5.9563868027360D-01 -5.3299275825189D-01
80  7.9000000000000D-01 -6.3257299439742D-01 -6.0315673056098D-01
81  8.0000000000000D-01 -6.6475966386286D-01 -6.5650827650611D-01
82  8.1000000000000D-01 -6.9206467534424D-01 -6.9209347811717D-01
83  8.2000000000000D-01 -7.1439950607064D-01 -7.0924598135258D-01
84  8.3000000000000D-01 -7.3172242654574D-01 -7.0759840450066D-01
85  8.4000000000000D-01 -7.4403914834247D-01 -6.8708873692330D-01
86  8.5000000000000D-01 -7.5140280290868D-01 -6.4796160769544D-01
87  8.6000000000000D-01 -7.5391324839435D-01 -5.9076439177630D-01
88  8.7000000000000D-01 -7.5171571268105D-01 -5.1633821024214D-01
89  8.8000000000000D-01 -7.4499879186772D-01 -4.2580396925930D-01
90  8.9000000000000D-01 -7.3399183424878D-01 -3.2054366834075D-01
91  9.0000000000000D-01 -7.1896175012488D-01 -2.0217729050055D-01
92  9.1000000000000D-01 -7.0020929743057D-01 -7.2535663753063D-02
93  9.2000000000000D-01 -6.7806490197780D-01  6.6370246362457D-02
94  9.3000000000000D-01 -6.5288407894411D-01  2.1238309116159D-01
95  9.4000000000000D-01 -6.2504252893919D-01  3.6323536459643D-01
96  9.5000000000000D-01 -5.9493098744499D-01  5.1658748142267D-01
97  9.6000000000000D-01 -5.6294991054349D-01  6.7006705591778D-01
98  9.7000000000000D-01 -5.2950408255231D-01  8.2130870777094D-01
99  9.8000000000000D-01 -4.9499723238173D-01  9.6799371228308D-01
100  9.9000000000000D-01 -4.5982674524673D-01  1.1078888134855D+00
101  1.0000000000000D+00 -4.2437855453756D-01  1.2388835334235D+00
102  1.0100000000000D+00 -3.8902229547227D-01  1.3590253362525D+00
103  1.0200000000000D+00 -3.5410679751830D-01  1.4665520428133D+00
104  1.0300000000000D+00 -3.1995598665330D-01  1.5599209385872D+00
105  1.0400000000000D+00 -2.8686526109768D-01  1.6378340772887D+00
106  1.0500000000000D+00 -2.5509839632951D-01  1.6992593447757D+00
107  1.0600000000000D+00 -2.2488502553693D-01  1.7434469249911D+00
108  1.0700000000000D+00 -1.9641873162679D-01  1.7699408897207D+00
109  1.0800000000000D+00 -1.6985577644449D-01  1.7785857174123D+00
110  1.0900000000000D+00 -1.4531448111046D-01  1.7695276399984D+00
111  1.1000000000000D+00 -1.2287526112695D-01  1.7432107984086D+00
112  1.1100000000000D+00 -1.0258130740239D-01  1.7003682871495D+00
113  1.1200000000000D+00 -8.4439893386259D-02  1.6420082556221D+00
114  1.1300000000000D+00 -6.8424277486332D-02  1.5693953216340D+00
115  1.1400000000000D+00 -5.4476159891840D-02  1.4840276325669D+00
116  1.1500000000000D+00 -4.2508643355700D-02  1.3876099858360D+00
117  1.1600000000000D+00 -3.2409637651163D-02  1.2820234984918D+00
118  1.1700000000000D+00 -2.4045640550564D-02  1.1692923703321D+00
119  1.1800000000000D+00 -1.7265822122261D-02  1.0515483328965D+00
120  1.1900000000000D+00 -1.1906332726297D-02  9.3099342752953D-01
121  1.2000000000000D+00 -7.7947515831421D-03  8.0986178324145D-01
122  1.2100000000000D+00 -4.7545912876576D-03  6.9038107658664D-01
123  1.2200000000000D+00 -2.6097713468780D-03  5.7473437536584D-01
124  1.2300000000000D+00 -1.1889754394100D-03  4.6502304793415D-01
125  1.2400000000000D+00 -3.2980537905350D-04  3.6323147118730D-01
126  1.2500000000000D+00  1.1730782584046D-04  2.7119356424684D-01
127  1.2600000000000D+00  2.8565500224078D-04  1.9056395228212D-01
128  1.2700000000000D+00  2.8925758562398D-04  1.2283134236135D-01
129  1.2800000000000D+00  2.1832882516893D-04  6.9016396754358D-02
130  1.2900000000000D+00  1.3864899964502D-04  3.0157386745602D-02
131  1.3000000000000D+00  9.8070885685672D-05  8.0800924436288D-03
132  1.3100000000000D+00  7.4879486774876D-05 -7.9830692175772D-06
133  1.3200000000000D+00  2.3140710529950D-05 -6.0606880538405D-04
134  1.3300000000000D+00 -7.1251157174951D-06  2.5180593736039D-04
135  1.3400000000000D+00 -1.2090286888509D-06  5.0000163629881D-05
136  1.3500000000000D+00  1.6624724594542D-06 -4.8504978697623D-05
137  1.3600000000000D+00 -1.2872945536314D-07 -3.2003807508845D-07
138  1.3700000000000D+00 -1.2720337162867D-07 -3.1624403355051D-07
139  1.3800000000000D+00  0.0000000000000D+00  0.0000000000000D+00
140  1.3900000000000D+00  0.0000000000000D+00  0.0000000000000D+00
141  1.4000000000000D+00  0.0000000000000D+00  0.0000000000000D+00
142  1.4100000000000D+00  0.0000000000000D+00  0.0000000000000D+00
143  1.4200000000000D+00  0.0000000000000D+00  0.0000000000000D+00
144  1.4300000000000D+00  0.0000000000000D+00  0.0000000000000D+00
145  1.4400000000000D+00  0.0000000000000D+00  0.0000000000000D+00
146  1.4500000000000D+00  0.0000000000000D+00  0.0000000000000D+00
147  1.4600000000000D+00  0.0000000000000D+00  0.0000000000000D+00
148  1.4700000000000D+00  0.0000000000000D+00  0.0000000000000D+00
149  1.4800000000000D+00  0.0000000000000D+00  0.0000000000000D+00
150  1.4900000000000D+00  0.0000000000000D+00  0.0000000000000D+00
151  1.5000000000000D+00  0.0000000000000D+00  0.0000000000000D+00
152  1.5100000000000D+00  0.0000000000000D+00  0.0000000000000D+00
153  1.5200000000000D+00  0.0000000000000D+00  0.0000000000000D+00
154  1.5300000000000D+00  0.0000000000000D+00  0.0000000000000D+00
155  1.5400000000000D+00  0.0000000000000D+00  0.0000000000000D+00
156  1.5500000000000D+00  0.0000000000000D+00  0.0000000000000D+00
157  1.5600000000000D+00  0.0000000000000D+00  0.0000000000000D+00
158  1.5700000000000D+00  0.0000000000000D+00  0.0000000000000D+00
159  1.5800000000000D+00  0.0000000000000D+00  0.0000000000000D+00
160  1.5900000000000D+00  0.0000000000000D+00  0.0000000000000D+00
161  1.6000000000000D+00  0.0000000000000D+00  0.0000000000000D+00
162  1.6100000000000D+00  0.0000000000000D+00  0.0000000000000D+00
163  1.6200000000000D+00  0.0000000000000D+00  0.0000000000000D+00
164  1.6300000000000D+00  0.0000000000000D+00  0.0000000000000D+00
165  1.6400000000000D+00  0.0000000000000D+00  0.0000000000000D+00
166  1.6500000000000D+00  0.0000000000000D+00  0.0000000000000D+00
167  1.6600000000000D+00  0.0000000000000D+00  0.0000000000000D+00
168  1.6700000000000D+00  0.0000000000000D+00  0.0000000000000D+00
169  1.6800000000000D+00  0.0000000000000D+00  0.0000000000000D+00
170  1.6900000000000D+00  0.0000000000000D+00  0.0000000000000D+00
171  1.7000000000000D+00  0.0000000000000D+00  0.0000000000000D+00
172  1.7100000000000D+00  0.0000000000000D+00  0.0000000000000D+00
173  1.7200000000000D+00  0.0000000000000D+00  0.0000000000000D+00
174  1.7300000000000D+00  0.0000000000000D+00  0.0000000000000D+00
175  1.7400000000000D+00  0.0000000000000D+00  0.0000000000000D+00
176  1.7500000000000D+00  0.0000000000000D+00  0.0000000000000D+00
177  1.7600000000000D+00  0.0000000000000D+00  0.0000000000000D+00
178  1.7700000000000D+00  0.0000000000000D+00  0.0000000000000D+00
179  1.7800000000000D+00  0.0000000000000D+00  0.0000000000000D+00
180  1.7900000000000D+00  0.0000000000000D+00  0.0000000000000D+00
181  1.8000000000000D+00  0.0000000000000D+00  0.0000000000000D+00
182  1.8100000000000D+00  0.0000000000000D+00  0.0000000000000D+00
183  1.8200000000000D+00  0.0000000000000D+00  0.0000000000000D+00
184  1.8300000000000D+00  0.0000000000000D+00  0.0000000000000D+00
185  1.8400000000000D+00  0.0000000000000D+00  0.0000000000000D+00
186  1.8500000000000D+00  0.0000000000000D+00  0.0000000000000D+00
187  1.8600000000000D+00  0.0000000000000D+00  0.0000000000000D+00
188  1.8700000000000D+00  0.0000000000000D+00  0.0000000000000D+00
189  1.8800000000000D+00  0.0000000000000D+00  0.0000000000000D+00
190  1.8900000000000D+00  0.0000000000000D+00  0.0000000000000D+00
191  1.9000000000000D+00  0.0000000000000D+00  0.0000000000000D+00
192  1.9100000000000D+00  0.0000000000000D+00  0.0000000000000D+00
193  1.9200000000000D+00  0.0000000000000D+00  0.0000000000000D+00
194  1.9300000000000D+00  0.0000000000000D+00  0.0000000000000D+00
195  1.9400000000000D+00  0.0000000000000D+00  0.0000000000000D+00
196  1.9500000000000D+00  0.0000000000000D+00  0.0000000000000D+00
197  1.9600000000000D+00  0.0000000000000D+00  0.0000000000000D+00
198  1.9700000000000D+00  0.0000000000000D+00  0.0000000000000D+00
199  1.9800000000000D+00  0.0000000000000D+00  0.0000000000000D+00
200  1.9900000000000D+00  0.0000000000000D+00  0.0000000000000D+00
201  2.0000000000000D+00  0.0000000000000D+00  0.0000000000000D+00
202  2.0100000000000D+00  0.0000000000000D+00  0.0000000000000D+00
203  2.0200000000000D+00  0.0000000000000D+00  0.0000000000000D+00
204  2.0300000000000D+00  0.0000000000000D+00  0.0000000000000D+00
205  2.0400000000000D+00  0.0000000000000D+00  0.0000000000000D+00
206  2.0500000000000D+00  0.0000000000000D+00  0.0000000000000D+00
207  2.0600000000000D+00  0.0000000000000D+00  0.0000000000000D+00
208  2.0700000000000D+00  0.0000000000000D+00  0.0000000000000D+00
209  2.0800000000000D+00  0.0000000000000D+00  0.0000000000000D+00
210  2.0900000000000D+00  0.0000000000000D+00  0.0000000000000D+00
211  2.1000000000000D+00  0.0000000000000D+00  0.0000000000000D+00
212  2.1100000000000D+00  0.0000000000000D+00  0.0000000000000D+00
213  2.1200000000000D+00  0.0000000000000D+00  0.0000000000000D+00
214  2.1300000000000D+00  0.0000000000000D+00  0.0000000000000D+00
215  2.1400000000000D+00  0.0000000000000D+00  0.0000000000000D+00
216  2.1500000000000D+00  0.0000000000000D+00  0.0000000000000D+00
217  2.1600000000000D+00  0.0000000000000D+00  0.0000000000000D+00
218  2.1700000000000D+00  0.0000000000000D+00  0.0000000000000D+00
219  2.1800000000000D+00  0.0000000000000D+00  0.0000000000000D+00
220  2.1900000000000D+00  0.0000000000000D+00  0.0000000000000D+00
221  2.2000000000000D+00  0.0000000000000D+00  0.0000000000000D+00
222  2.2100000000000D+00  0.0000000000000D+00  0.0000000000000D+00
223  2.2200000000000D+00  0.0000000000000D+00  0.0000000000000D+00
224  2.2300000000000D+00  0.0000000000000D+00  0.0000000000000D+00
225  2.2400000000000D+00  0.0000000000000D+00  0.0000000000000D+00
226  2.2500000000000D+00  0.0000000000000D+00  0.0000000000000D+00
227  2.2600000000000D+00  0.0000000000000D+00  0.0000000000000D+00
228  2.2700000000000D+00  0.0000000000000D+00  0.0000000000000D+00
229  2.2800000000000D+00  0.0000000000000D+00  0.0000000000000D+00
230  2.2900000000000D+00  0.0000000000000D+00  0.0000000000000D+00
231  2.3000000000000D+00  0.0000000000000D+00  0.0000000000000D+00
232  2.3100000000000D+00  0.0000000000000D+00  0.0000000000000D+00
233  2.3200000000000D+00  0.0000000000000D+00  0.0000000000000D+00
234  2.3300000000000D+00  0.0000000000000D+00  0.0000000000000D+00
235  2.3400000000000D+00  0.0000000000000D+00  0.0000000000000D+00
236  2.3500000000000D+00  0.0000000000000D+00  0.0000000000000D+00
237  2.3600000000000D+00  0.0000000000000D+00  0.0000000000000D+00
238  2.3700000000000D+00  0.0000000000000D+00  0.0000000000000D+00
239  2.3800000000000D+00  0.0000000000000D+00  0.0000000000000D+00
240  2.3900000000000D+00  0.0000000000000D+00  0.0000000000000D+00
241  2.4000000000000D+00  0.0000000000000D+00  0.0000000000000D+00
242  2.4100000000000D+00  0.0000000000000D+00  0.0000000000000D+00
243  2.4200000000000D+00  0.0000000000000D+00  0.0000000000000D+00
244  2.4300000000000D+00  0.0000000000000D+00  0.0000000000000D+00
245  2.4400000000000D+00  0.0000000000000D+00  0.0000000000000D+00
246  2.4500000000000D+00  0.0000000000000D+00  0.0000000000000D+00
247  2.4600000000000D+00  0.0000000000000D+00  0.0000000000000D+00
248  2.4700000000000D+00  0.0000000000000D+00  0.0000000000000D+00
249  2.4800000000000D+00  0.0000000000000D+00  0.0000000000000D+00
250  2.4900000000000D+00  0.0000000000000D+00  0.0000000000000D+00
251  2.5000000000000D+00  0.0000000000000D+00  0.0000000000000D+00
252  2.5100000000000D+00  0.0000000000000D+00  0.0000000000000D+00
253  2.5200000000000D+00  0.0000000000000D+00  0.0000000000000D+00
254  2.5300000000000D+00  0.0000000000000D+00  0.0000000000000D+00
255  2.5400000000000D+00  0.0000000000000D+00  0.0000000000000D+00
256  2.5500000000000D+00  0.0000000000000D+00  0.0000000000000D+00
257  2.5600000000000D+00  0.0000000000000D+00  0.0000000000000D+00
258  2.5700000000000D+00  0.0000000000000D+00  0.0000000000000D+00
259  2.5800000000000D+00  0.0000000000000D+00  0.0000000000000D+00
260  2.5900000000000D+00  0.0000000000000D+00  0.0000000000000D+00
261  2.6000000000000D+00  0.0000000000000D+00  0.0000000000000D+00
262  2.6100000000000D+00  0.0000000000000D+00  0.0000000000000D+00
263  2.6200000000000D+00  0.0000000000000D+00  0.0000000000000D+00
264  2.6300000000000D+00  0.0000000000000D+00  0.0000000000000D+00
265  2.6400000000000D+00  0.0000000000000D+00  0.0000000000000D+00
266  2.6500000000000D+00  0.0000000000000D+00  0.0000000000000D+00
267  2.6600000000000D+00  0.0000000000000D+00  0.0000000000000D+00
268  2.6700000000000D+00  0.0000000000000D+00  0.0000000000000D+00
269  2.6800000000000D+00  0.0000000000000D+00  0.0000000000000D+00
270  2.6900000000000D+00  0.0000000000000D+00  0.0000000000000D+00
271  2.7000000000000D+00  0.0000000000000D+00  0.0000000000000D+00
272  2.7100000000000D+00  0.0000000000000D+00  0.0000000000000D+00
273  2.7200000000000D+00  0.0000000000000D+00  0.0000000000000D+00
274  2.7300000000000D+00  0.0000000000000D+00  0.0000000000000D+00
275  2.7400000000000D+00  0.0000000000000D+00  0.0000000000000D+00
276  2.7500000000000D+00  0.0000000000000D+00  0.0000000000000D+00
277  2.7600000000000D+00  0.0000000000000D+00  0.0000000000000D+00
278  2.7700000000000D+00  0.0000000000000D+00  0.0000000000000D+00
279  2.7800000000000D+00  0.0000000000000D+00  0.0000000000000D+00
280  2.7900000000000D+00  0.0000000000000D+00  0.0000000000000D+00
281  2.8000000000000D+00  0.0000000000000D+00  0.0000000000000D+00
282  2.8100000000000D+00  0.0000000000000D+00  0.0000000000000D+00
283  2.8200000000000D+00  0.0000000000000D+00  0.0000000000000D+00
284  2.8300000000000D+00  0.0000000000000D+00  0.0000000000000D+00
285  2.8400000000000D+00  0.0000000000000D+00  0.0000000000000D+00
286  2.8500000000000D+00  0.0000000000000D+00  0.0000000000000D+00
287  2.8600000000000D+00  0.0000000000000D+00  0.0000000000000D+00
288  2.8700000000000D+00  0.0000000000000D+00  0.0000000000000D+00
289  2.8800000000000D+00  0.0000000000000D+00  0.0000000000000D+00
290  2.8900000000000D+00  0.0000000000000D+00  0.0000000000000D+00
291  2.9000000000000D+00  0.0000000000000D+00  0.0000000000000D+00
292  2.9100000000000D+00  0.0000000000000D+00  0.0000000000000D+00
293  2.9200000000000D+00  0.0000000000000D+00  0.0000000000000D+00
294  2.9300000000000D+00  0.0000000000000D+00  0.0000000000000D+00
295  2.9400000000000D+00  0.0000000000000D+00  0.0000000000000D+00
296  2.9500000000000D+00  0.0000000000000D+00  0.0000000000000D+00
297  2.9600000000000D+00  0.0000000000000D+00  0.0000000000000D+00
298  2.9700000000000D+00  0.0000000000000D+00  0.0000000000000D+00
299  2.9800000000000D+00  0.0000000000000D+00  0.0000000000000D+00
300  2.9900000000000D+00  0.0000000000000D+00  0.0000000000000D+00
301  3.0000000000000D+00  0.0000000000000D+00  0.0000000000000D+00
302  3.0100000000000D+00  0.0000000000000D+00  0.0000000000000D+00
303  3.0200000000000D+00  0.0000000000000D+00  0.0000000000000D+00
304  3.0300000000000D+00  0.0000000000000D+00  0.0000000000000D+00
305  3.0400000000000D+00  0.0000000000000D+00  0.0000000000000D+00
306  3.0500000000000D+00  0.0000000000000D+00  0.0000000000000D+00
307  3.0600000000000D+00  0.0000000000000D+00  0.0000000000000D+00
308  3.0700000000000D+00  0.0000000000000D+00  0.0000000000000D+00
309  3.0800000000000D+00  0.0000000000000D+00  0.0000000000000D+00
310  3.0900000000000D+00  0.0000000000000D+00  0.0000000000000D+00
311  3.1000000000000D+00  0.0000000000000D+00  0.0000000000000D+00
312  3.1100000000000D+00  0.0000000000000D+00  0.0000000000000D+00
313  3.1200000000000D+00  0.0000000000000D+00  0.0000000000000D+00
314  3.1300000000000D+00  0.0000000000000D+00  0.0000000000000D+00
315  3.1400000000000D+00  0.0000000000000D+00  0.0000000000000D+00
316  3.1500000000000D+00  0.0000000000000D+00  0.0000000000000D+00
317  3.1600000000000D+00  0.0000000000000D+00  0.0000000000000D+00
318  3.1700000000000D+00  0.0000000000000D+00  0.0000000000000D+00
319  3.1800000000000D+00  0.0000000000000D+00  0.0000000000000D+00
320  3.1900000000000D+00  0.0000000000000D+00  0.0000000000000D+00
321  3.2000000000000D+00  0.0000000000000D+00  0.0000000000000D+00
322  3.2100000000000D+00  0.0000000000000D+00  0.0000000000000D+00
323  3.2200000000000D+00  0.0000000000000D+00  0.0000000000000D+00
324  3.2300000000000D+00  0.0000000000000D+00  0.0000000000000D+00
325  3.2400000000000D+00  0.0000000000000D+00  0.0000000000000D+00
326  3.2500000000000D+00  0.0000000000000D+00  0.0000000000000D+00
327  3.2600000000000D+00  0.0000000000000D+00  0.0000000000000D+00
328  3.2700000000000D+00  0.0000000000000D+00  0.0000000000000D+00
329  3.2800000000000D+00  0.0000000000000D+00  0.0000000000000D+00
330  3.2900000000000D+00  0.0000000000000D+00  0.0000000000000D+00
331  3.3000000000000D+00  0.0000000000000D+00  0.0000000000000D+00
332  3.3100000000000D+00  0.0000000000000D+00  0.0000000000000D+00
333  3.3200000000000D+00  0.0000000000000D+00  0.0000000000000D+00
334  3.3300000000000D+00  0.0000000000000D+00  0.0000000000000D+00
335  3.3400000000000D+00  0.0000000000000D+00  0.0000000000000D+00
336  3.3500000000000D+00  0.0000000000000D+00  0.0000000000000D+00
337  3.3600000000000D+00  0.0000000000000D+00  0.0000000000000D+00
338  3.3700000000000D+00  0.0000000000000D+00  0.0000000000000D+00
339  3.3800000000000D+00  0.0000000000000D+00  0.0000000000000D+00
340  3.3900000000000D+00  0.0000000000000D+00  0.0000000000000D+00
341  3.4000000000000D+00  0.0000000000000D+00  0.0000000000000D+00
342  3.4100000000000D+00  0.0000000000000D+00  0.0000000000000D+00
343  3.4200000000000D+00  0.0000000000000D+00  0.0000000000000D+00
344  3.4300000000000D+00  0.0000000000000D+00  0.0000000000000D+00
345  3.4400000000000D+00  0.0000000000000D+00  0.0000000000000D+00
346  3.4500000000000D+00  0.0000000000000D+00  0.0000000000000D+00
347  3.4600000000000D+00  0.0000000000000D+00  0.0000000000000D+00
348  3.4700000000000D+00  0.0000000000000D+00  0.0000000000000D+00
349  3.4800000000000D+00  0.0000000000000D+00  0.0000000000000D+00
350  3.4900000000000D+00  0.0000000000000D+00  0.0000000000000D+00
351  3.5000000000000D+00  0.0000000000000D+00  0.0000000000000D+00
352  3.5100000000000D+00  0.0000000000000D+00  0.0000000000000D+00
353  3.5200000000000D+00  0.0000000000000D+00  0.0000000000000D+00
354  3.5300000000000D+00  0.0000000000000D+00  0.0000000000000D+00
355  3.5400000000000D+00  0.0000000000000D+00  0.0000000000000D+00
356  3.5500000000000D+00  0.0000000000000D+00  0.0000000000000D+00
357  3.5600000000000D+00  0.0000000000000D+00  0.0000000000000D+00
358  3.5700000000000D+00  0.0000000000000D+00  0.0000000000000D+00
359  3.5800000000000D+00  0.0000000000000D+00  0.0000000000000D+00
360  3.5900000000000D+00  0.0000000000000D+00  0.0000000000000D+00
361  3.6000000000000D+00  0.0000000000000D+00  0.0000000000000D+00
362  3.6100000000000D+00  0.0000000000000D+00  0.0000000000000D+00
363  3.6200000000000D+00  0.0000000000000D+00  0.0000000000000D+00
364  3.6300000000000D+00  0.0000000000000D+00  0.0000000000000D+00
365  3.6400000000000D+00  0.0000000000000D+00  0.0000000000000D+00
366  3.6500000000000D+00  0.0000000000000D+00  0.0000000000000D+00
367  3.6600000000000D+00  0.0000000000000D+00  0.0000000000000D+00
368  3.6700000000000D+00  0.0000000000000D+00  0.0000000000000D+00
369  3.6800000000000D+00  0.0000000000000D+00  0.0000000000000D+00
370  3.6900000000000D+00  0.0000000000000D+00  0.0000000000000D+00
371  3.7000000000000D+00  0.0000000000000D+00  0.0000000000000D+00
372  3.7100000000000D+00  0.0000000000000D+00  0.0000000000000D+00
373  3.7200000000000D+00  0.0000000000000D+00  0.0000000000000D+00
374  3.7300000000000D+00  0.0000000000000D+00  0.0000000000000D+00
375  3.7400000000000D+00  0.0000000000000D+00  0.0000000000000D+00
376  3.7500000000000D+00  0.0000000000000D+00  0.0000000000000D+00
377  3.7600000000000D+00  0.0000000000000D+00  0.0000000000000D+00
378  3.7700000000000D+00  0.0000000000000D+00  0.0000000000000D+00
379  3.7800000000000D+00  0.0000000000000D+00  0.0000000000000D+00
380  3.7900000000000D+00  0.0000000000000D+00  0.0000000000000D+00
381  3.8000000000000D+00  0.0000000000000D+00  0.0000000000000D+00
382  3.8100000000000D+00  0.0000000000000D+00  0.0000000000000D+00
383  3.8200000000000D+00  0.0000000000000D+00  0.0000000000000D+00
384  3.8300000000000D+00  0.0000000000000D+00  0.0000000000000D+00
385  3.8400000000000D+00  0.0000000000000D+00  0.0000000000000D+00
386  3.8500000000000D+00  0.0000000000000D+00  0.0000000000000D+00
387  3.8600000000000D+00  0.0000000000000D+00  0.0000000000000D+00
388  3.8700000000000D+00  0.0000000000000D+00  0.0000000000000D+00
389  3.8800000000000D+00  0.0000000000000D+00  0.0000000000000D+00
390  3.8900000000000D+00  0.0000000000000D+00  0.0000000000000D+00
391  3.9000000000000D+00  0.0000000000000D+00  0.0000000000000D+00
392  3.9100000000000D+00  0.0000000000000D+00  0.0000000000000D+00
393  3.9200000000000D+00  0.0000000000000D+00  0.0000000000000D+00
394  3.9300000000000D+00  0.0000000000000D+00  0.0000000000000D+00
395  3.9400000000000D+00  0.0000000000000D+00  0.0000000000000D+00
396  3.9500000000000D+00  0.0000000000000D+00  0.0000000000000D+00
397  3.9600000000000D+00  0.0000000000000D+00  0.0000000000000D+00
398  3.9700000000000D+00  0.0000000000000D+00  0.0000000000000D+00
399  3.9800000000000D+00  0.0000000000000D+00  0.0000000000000D+00
400  3.9900000000000D+00  0.0000000000000D+00  0.0000000000000D+00
401  4.0000000000000D+00  0.0000000000000D+00  0.0000000000000D+00
402  4.0100000000000D+00  0.0000000000000D+00  0.0000000000000D+00
403  4.0200000000000D+00  0.0000000000000D+00  0.0000000000000D+00
404  4.0300000000000D+00  0.0000000000000D+00  0.0000000000000D+00
405  4.0400000000000D+00  0.0000000000000D+00  0.0000000000000D+00
406  4.0500000000000D+00  0.0000000000000D+00  0.0000000000000D+00
407  4.0600000000000D+00  0.0000000000000D+00  0.0000000000000D+00
408  4.0700000000000D+00  0.0000000000000D+00  0.0000000000000D+00
409  4.0800000000000D+00  0.0000000000000D+00  0.0000000000000D+00
410  4.0900000000000D+00  0.0000000000000D+00  0.0000000000000D+00
411  4.1000000000000D+00  0.0000000000000D+00  0.0000000000000D+00
412  4.1100000000000D+00  0.0000000000000D+00  0.0000000000000D+00
413  4.1200000000000D+00  0.0000000000000D+00  0.0000000000000D+00
414  4.1300000000000D+00  0.0000000000000D+00  0.0000000000000D+00
415  4.1400000000000D+00  0.0000000000000D+00  0.0000000000000D+00
416  4.1500000000000D+00  0.0000000000000D+00  0.0000000000000D+00
417  4.1600000000000D+00  0.0000000000000D+00  0.0000000000000D+00
418  4.1700000000000D+00  0.0000000000000D+00  0.0000000000000D+00
419  4.1800000000000D+00  0.0000000000000D+00  0.0000000000000D+00
420  4.1900000000000D+00  0.0000000000000D+00  0.0000000000000D+00
421  4.2000000000000D+00  0.0000000000000D+00  0.0000000000000D+00
422  4.2100000000000D+00  0.0000000000000D+00  0.0000000000000D+00
423  4.2200000000000D+00  0.0000000000000D+00  0.0000000000000D+00
424  4.2300000000000D+00  0.0000000000000D+00  0.0000000000000D+00
425  4.2400000000000D+00  0.0000000000000D+00  0.0000000000000D+00
426  4.2500000000000D+00  0.0000000000000D+00  0.0000000000000D+00
427  4.2600000000000D+00  0.0000000000000D+00  0.0000000000000D+00
428  4.2700000000000D+00  0.0000000000000D+00  0.0000000000000D+00
429  4.2800000000000D+00  0.0000000000000D+00  0.0000000000000D+00
430  4.2900000000000D+00  0.0000000000000D+00  0.0000000000000D+00
431  4.3000000000000D+00  0.0000000000000D+00  0.0000000000000D+00
432  4.3100000000000D+00  0.0000000000000D+00  0.0000000000000D+00
433  4.3200000000000D+00  0.0000000000000D+00  0.0000000000000D+00
434  4.3300000000000D+00  0.0000000000000D+00  0.0000000000000D+00
435  4.3400000000000D+00  0.0000000000000D+00  0.0000000000000D+00
436  4.3500000000000D+00  0.0000000000000D+00  0.0000000000000D+00
437  4.3600000000000D+00  0.0000000000000D+00  0.0000000000000D+00
438  4.3700000000000D+00  0.0000000000000D+00  0.0000000000000D+00
439  4.3800000000000D+00  0.0000000000000D+00  0.0000000000000D+00
440  4.3900000000000D+00  0.0000000000000D+00  0.0000000000000D+00
441  4.4000000000000D+00  0.0000000000000D+00  0.0000000000000D+00
442  4.4100000000000D+00  0.0000000000000D+00  0.0000000000000D+00
443  4.4200000000000D+00  0.0000000000000D+00  0.0000000000000D+00
444  4.4300000000000D+00  0.0000000000000D+00  0.0000000000000D+00