F     ONCVPSP  r_core=  1.31  1.60  1.70
9.0000      7.0000      160625    zatom,zion,pspd
8      11   2     4   600     0    pspcod,pspxc,lmax,lloc,mmax,r2well
5.99000000  3.00000000  0.00000000    rchrg fchrg qchrg
2     2     1     0     0    nproj
1                 extension_switch
0                         3.1218867433597D+00 -3.2289245570658D-01
1  0.0000000000000D+00 -6.2230940400809D-09 -4.1789251725710D-08
2  1.0000000000000D-02  9.4370011297091D-02  5.7851692202410D-02
3  2.0000000000000D-02  1.8826218365686D-01  1.1408939757572D-01
4  3.0000000000000D-02  2.8120435969718D-01  1.6713195772424D-01
5  4.0000000000000D-02  3.7273565169326D-01  2.1546326110979D-01
6  5.0000000000000D-02  4.6241184439959D-01  2.5766325237843D-01
7  6.0000000000000D-02  5.4981052398749D-01  2.9243715515286D-01
8  7.0000000000000D-02  6.3453584925867D-01  3.1864236285414D-01
9  8.0000000000000D-02  7.1622288751843D-01  3.3531249390588D-01
10  9.0000000000000D-02  7.9454144506527D-01  3.4167815851793D-01
11  1.0000000000000D-01  8.6919933104566D-01  3.3718404325271D-01
12  1.1000000000000D-01  9.3994500327975D-01  3.2150198570882D-01
13  1.2000000000000D-01  1.0065695554151D+00  2.9453978375072D-01
14  1.3000000000000D-01  1.0689080162227D+00  2.5644556050181D-01
15  1.4000000000000D-01  1.1268399438138D+00  2.0760758644900D-01
16  1.5000000000000D-01  1.1802893098186D+00  1.4864954206708D-01
17  1.6000000000000D-01  1.2292236809130D+00  8.0421286912666D-02
18  1.7000000000000D-01  1.2736527172955D+00  3.9852827012493D-03
19  1.8000000000000D-01  1.3136260195832D+00 -7.9401102977875D-02
20  1.9000000000000D-01  1.3492303669136D+00 -1.6830711033920D-01
21  2.0000000000000D-01  1.3805863996002D+00 -2.6115354635340D-01
22  2.1000000000000D-01  1.4078448093188D+00 -3.5624075312729D-01
23  2.2000000000000D-01  1.4311821083172D+00 -4.5177909369597D-01
24  2.3000000000000D-01  1.4507960564078D+00 -5.4592141561617D-01
25  2.4000000000000D-01  1.4669008303723D+00 -6.3679691459254D-01
26  2.5000000000000D-01  1.4797220247977D+00 -7.2254579234930D-01
27  2.6000000000000D-01  1.4894915761735D+00 -8.0135408560482D-01
28  2.7000000000000D-01  1.4964427032759D+00 -8.7148803665458D-01
29  2.8000000000000D-01  1.5008049564093D+00 -9.3132738086831D-01
30  2.9000000000000D-01  1.5027994659878D+00 -9.7939694231035D-01
31  3.0000000000000D-01  1.5026344772356D+00 -1.0143959554597D+00
32  3.1000000000000D-01  1.5005012525485D+00 -1.0352245682019D+00
33  3.2000000000000D-01  1.4965704163571D+00 -1.0410070282747D+00
34  3.3000000000000D-01  1.4909888092970D+00 -1.0311111113822D+00
35  3.4000000000000D-01  1.4838769092519D+00 -1.0051634132928D+00
36  3.5000000000000D-01  1.4753268665542D+00 -9.6306019931960D-01
37  3.6000000000000D-01  1.4654011894826D+00 -9.0497358141019D-01
38  3.7000000000000D-01  1.4541321043848D+00 -8.3135287433667D-01
39  3.8000000000000D-01  1.4415216024729D+00 -7.4292106675359D-01
40  3.9000000000000D-01  1.4275421728191D+00 -6.4066642872443D-01
41  4.0000000000000D-01  1.4121382085227D+00 -5.2582936319643D-01
42  4.1000000000000D-01  1.3952280606625D+00 -3.9988469333690D-01
43  4.2000000000000D-01  1.3767067027002D+00 -2.6451965912963D-01
44  4.3000000000000D-01  1.3564489566772D+00 -1.2160797373830D-01
45  4.4000000000000D-01  1.3343132220475D+00  2.6819638500509D-02
46  4.5000000000000D-01  1.3101456385062D+00  1.7860793626205D-01
47  4.6000000000000D-01  1.2837846058704D+00  3.3151214525794D-01
48  4.7000000000000D-01  1.2550655771052D+00  4.8323484281745D-01
49  4.8000000000000D-01  1.2238260350849D+00  6.3146411686517D-01
50  4.9000000000000D-01  1.1899105597394D+00  7.7391234700931D-01
51  5.0000000000000D-01  1.1531758899453D+00  9.0835494059353D-01
52  5.1000000000000D-01  1.1134958839084D+00  1.0326683532674D+00
53  5.2000000000000D-01  1.0707662828873D+00  1.1448667320187D+00
54  5.3000000000000D-01  1.0249091859007D+00  1.2431365385975D+00
55  5.4000000000000D-01  9.7587714750392D-01  1.3258685424851D+00
56  5.5000000000000D-01  9.2365681675452D-01  1.3916866146815D+00
57  5.6000000000000D-01  8.6827204299131D-01  1.4394728056866D+00
58  5.7000000000000D-01  8.0978638292357D-01  1.4683882525046D+00
59  5.8000000000000D-01  7.4830495360580D-01  1.4778895291229D+00
60  5.9000000000000D-01  6.8397558698210D-01  1.4677401315480D+00
61  6.0000000000000D-01  6.1698925365151D-01  1.4380168709131D+00
62  6.1000000000000D-01  5.4757973610988D-01  1.3891110348933D+00
63  6.2000000000000D-01  4.7602254473091D-01  1.3217242670804D+00
64  6.3000000000000D-01  4.0263308301725D-01  1.2368592050897D+00
65  6.4000000000000D-01  3.2776408177743D-01  1.1358050082478D+00
66  6.5000000000000D-01  2.5180233487190D-01  1.0201179947759D+00
67  6.6000000000000D-01  1.7516478158685D-01  8.9159769346481D-01
68  6.7000000000000D-01  9.8293992385653D-02  7.5225869490604D-01
69  6.8000000000000D-01  2.1653125651287D-02  6.0429876168796D-01
70  6.9000000000000D-01 -5.4279567310812D-02  4.5006372299749D-01
71  7.0000000000000D-01 -1.2901660332085D-01  2.9200973659501D-01
72  7.1000000000000D-01 -2.0206740176989D-01  1.3266354866791D-01
73  7.2000000000000D-01 -2.7294459438655D-01 -2.5418580980976D-02
74  7.3000000000000D-01 -3.4117040852851D-01 -1.7969259565855D-01
75  7.4000000000000D-01 -4.0628302019325D-01 -3.2766829410352D-01
76  7.5000000000000D-01 -4.6784277273243D-01 -4.6695021082583D-01
77  7.6000000000000D-01 -5.2543815880909D-01 -5.9527702769685D-01
78  7.7000000000000D-01 -5.7869146650287D-01 -7.1055884320485D-01
79  7.8000000000000D-01 -6.2726399552011D-01 -8.1091166048197D-01
80  7.9000000000000D-01 -6.7086075617339D-01 -8.9468850119757D-01
81  8.0000000000000D-01 -7.0923457202652D-01 -9.6050660877948D-01
82  8.1000000000000D-01 -7.4218951672316D-01 -1.0072702702608D+00
83  8.2000000000000D-01 -7.6958362636765D-01 -1.0341888602285D+00
84  8.3000000000000D-01 -7.9133084072051D-01 -1.0407897916053D+00
85  8.4000000000000D-01 -8.0740213920519D-01 -1.0269261449323D+00
86  8.5000000000000D-01 -8.1782585107804D-01 -9.9277883893266D-01
87  8.6000000000000D-01 -8.2268713286032D-01 -9.3885329885076D-01
88  8.7000000000000D-01 -8.2212662003121D-01 -8.6597067374673D-01
89  8.8000000000000D-01 -8.1633827379266D-01 -7.7525374793113D-01
90  8.9000000000000D-01 -8.0556645720151D-01 -6.6810778340497D-01
91  9.0000000000000D-01 -7.9010228788440D-01 -5.4619661791863D-01
92  9.1000000000000D-01 -7.7027932668255D-01 -4.1141442553578D-01
93  9.2000000000000D-01 -7.4646867270203D-01 -2.6585362193238D-01
94  9.3000000000000D-01 -7.1907354517651D-01 -1.1176946374295D-01
95  9.4000000000000D-01 -6.8852344110721D-01  4.8458051105573D-02
96  9.5000000000000D-01 -6.5526796467818D-01  2.1236432798815D-01
97  9.6000000000000D-01 -6.1977042982998D-01  3.7744167520126D-01
98  9.7000000000000D-01 -5.8250134101902D-01  5.4118144483032D-01
99  9.8000000000000D-01 -5.4393185897024D-01  7.0111609000358D-01
100  9.9000000000000D-01 -5.0452735830333D-01  8.5486041425015D-01
101  1.0000000000000D+00 -4.6474118196121D-01  1.0001513031869D+00
102  1.0100000000000D+00 -4.2500869372322D-01  1.1348852547829D+00
103  1.0200000000000D+00 -3.8574172464157D-01  1.2571530628042D+00
104  1.0300000000000D+00 -3.4732350219641D-01  1.3652710572920D+00
105  1.0400000000000D+00 -3.1010414203399D-01  1.4578083680881D+00
106  1.0500000000000D+00 -2.7439677271308D-01  1.5336097429356D+00
107  1.0600000000000D+00 -2.4047435218504D-01  1.5918135327124D+00
108  1.0700000000000D+00 -2.0856722252463D-01  1.6318645407186D+00
109  1.0800000000000D+00 -1.7886143667420D-01  1.6535215209747D+00
110  1.0900000000000D+00 -1.5149787660471D-01  1.6568592094497D+00
111  1.1000000000000D+00 -1.2657216974958D-01  1.6422648585281D+00
112  1.1100000000000D+00 -1.0413539523392D-01  1.6104293504902D+00
113  1.1200000000000D+00 -8.4195557962453D-02  1.5623330582171D+00
114  1.1300000000000D+00 -6.6719795070914D-02  1.4992267143598D+00
115  1.1400000000000D+00 -5.1637266863699D-02  1.4226076350626D+00
116  1.1500000000000D+00 -3.8842672555259D-02  1.3341917251603D+00
117  1.1600000000000D+00 -2.8200318963607D-02  1.2358817748932D+00
118  1.1700000000000D+00 -1.9548661782674D-02  1.1297326162098D+00
119  1.1800000000000D+00 -1.2705231543285D-02  1.0179137578632D+00
120  1.1900000000000D+00 -7.4718483764188D-03  9.0267017272260D-01
121  1.2000000000000D+00 -3.6400252643275D-03  7.8628194033111D-01
122  1.2100000000000D+00 -9.9645748977634D-04  6.7102346038438D-01
123  1.2200000000000D+00  6.7150677267917D-04  5.5912297274536D-01
124  1.2300000000000D+00  1.5705184781519D-03  4.5272310347098D-01
125  1.2400000000000D+00  1.8961047162674D-03  3.5384318045891D-01
126  1.2500000000000D+00  1.8278451912395D-03  2.6434357403665D-01
127  1.2600000000000D+00  1.5250229833894D-03  1.8589422076573D-01
128  1.2700000000000D+00  1.1232660784577D-03  1.1998580540579D-01
129  1.2800000000000D+00  7.2664429574283D-04  6.7628930543016D-02
130  1.2900000000000D+00  4.1253051209585D-04  2.9842297405942D-02
131  1.3000000000000D+00  2.5175679058738D-04  8.4536330813977D-03
132  1.3100000000000D+00  1.7192471361828D-04  5.4686642571183D-04
133  1.3200000000000D+00  5.1063443279913D-05 -4.0865415610921D-04
134  1.3300000000000D+00 -1.5597401238011D-05  1.8766788285955D-04
135  1.3400000000000D+00 -2.6251409768848D-06  3.8784140491719D-05
136  1.3500000000000D+00  3.6649879891773D-06 -3.4041605095835D-05
137  1.3600000000000D+00 -2.9666195556872D-07 -1.2593164287338D-06
138  1.3700000000000D+00 -2.9314503720879D-07 -1.2443872711993D-06
139  1.3800000000000D+00  0.0000000000000D+00  0.0000000000000D+00
140  1.3900000000000D+00  0.0000000000000D+00  0.0000000000000D+00
141  1.4000000000000D+00  0.0000000000000D+00  0.0000000000000D+00
142  1.4100000000000D+00  0.0000000000000D+00  0.0000000000000D+00
143  1.4200000000000D+00  0.0000000000000D+00  0.0000000000000D+00
144  1.4300000000000D+00  0.0000000000000D+00  0.0000000000000D+00
145  1.4400000000000D+00  0.0000000000000D+00  0.0000000000000D+00
146  1.4500000000000D+00  0.0000000000000D+00  0.0000000000000D+00
147  1.4600000000000D+00  0.0000000000000D+00  0.0000000000000D+00
148  1.4700000000000D+00  0.0000000000000D+00  0.0000000000000D+00
149  1.4800000000000D+00  0.0000000000000D+00  0.0000000000000D+00
150  1.4900000000000D+00  0.0000000000000D+00  0.0000000000000D+00
151  1.5000000000000D+00  0.0000000000000D+00  0.0000000000000D+00
152  1.5100000000000D+00  0.0000000000000D+00  0.0000000000000D+00
153  1.5200000000000D+00  0.0000000000000D+00  0.0000000000000D+00
154  1.5300000000000D+00  0.0000000000000D+00  0.0000000000000D+00
155  1.5400000000000D+00  0.0000000000000D+00  0.0000000000000D+00
156  1.5500000000000D+00  0.0000000000000D+00  0.0000000000000D+00
157  1.5600000000000D+00  0.0000000000000D+00  0.0000000000000D+00
158  1.5700000000000D+00  0.0000000000000D+00  0.0000000000000D+00
159  1.5800000000000D+00  0.0000000000000D+00  0.0000000000000D+00
160  1.5900000000000D+00  0.0000000000000D+00  0.0000000000000D+00
161  1.6000000000000D+00  0.0000000000000D+00  0.0000000000000D+00
162  1.6100000000000D+00  0.0000000000000D+00  0.0000000000000D+00
163  1.6200000000000D+00  0.0000000000000D+00  0.0000000000000D+00
164  1.6300000000000D+00  0.0000000000000D+00  0.0000000000000D+00
165  1.6400000000000D+00  0.0000000000000D+00  0.0000000000000D+00
166  1.6500000000000D+00  0.0000000000000D+00  0.0000000000000D+00
167  1.6600000000000D+00  0.0000000000000D+00  0.0000000000000D+00
168  1.6700000000000D+00  0.0000000000000D+00  0.0000000000000D+00
169  1.6800000000000D+00  0.0000000000000D+00  0.0000000000000D+00
170  1.6900000000000D+00  0.0000000000000D+00  0.0000000000000D+00
171  1.7000000000000D+00  0.0000000000000D+00  0.0000000000000D+00
172  1.7100000000000D+00  0.0000000000000D+00  0.0000000000000D+00
173  1.7200000000000D+00  0.0000000000000D+00  0.0000000000000D+00
174  1.7300000000000D+00  0.0000000000000D+00  0.0000000000000D+00
175  1.7400000000000D+00  0.0000000000000D+00  0.0000000000000D+00
176  1.7500000000000D+00  0.0000000000000D+00  0.0000000000000D+00
177  1.7600000000000D+00  0.0000000000000D+00  0.0000000000000D+00
178  1.7700000000000D+00  0.0000000000000D+00  0.0000000000000D+00
179  1.7800000000000D+00  0.0000000000000D+00  0.0000000000000D+00
180  1.7900000000000D+00  0.0000000000000D+00  0.0000000000000D+00
181  1.8000000000000D+00  0.0000000000000D+00  0.0000000000000D+00
182  1.8100000000000D+00  0.0000000000000D+00  0.0000000000000D+00
183  1.8200000000000D+00  0.0000000000000D+00  0.0000000000000D+00
184  1.8300000000000D+00  0.0000000000000D+00  0.0000000000000D+00
185  1.8400000000000D+00  0.0000000000000D+00  0.0000000000000D+00
186  1.8500000000000D+00  0.0000000000000D+00  0.0000000000000D+00
187  1.8600000000000D+00  0.0000000000000D+00  0.0000000000000D+00
188  1.8700000000000D+00  0.0000000000000D+00  0.0000000000000D+00
189  1.8800000000000D+00  0.0000000000000D+00  0.0000000000000D+00
190  1.8900000000000D+00  0.0000000000000D+00  0.0000000000000D+00
191  1.9000000000000D+00  0.0000000000000D+00  0.0000000000000D+00
192  1.9100000000000D+00  0.0000000000000D+00  0.0000000000000D+00
193  1.9200000000000D+00  0.0000000000000D+00  0.0000000000000D+00
194  1.9300000000000D+00  0.0000000000000D+00  0.0000000000000D+00
195  1.9400000000000D+00  0.0000000000000D+00  0.0000000000000D+00
196  1.9500000000000D+00  0.0000000000000D+00  0.0000000000000D+00
197  1.9600000000000D+00  0.0000000000000D+00  0.0000000000000D+00
198  1.9700000000000D+00  0.0000000000000D+00  0.0000000000000D+00
199  1.9800000000000D+00  0.0000000000000D+00  0.0000000000000D+00
200  1.9900000000000D+00  0.0000000000000D+00  0.0000000000000D+00
201  2.0000000000000D+00  0.0000000000000D+00  0.0000000000000D+00
202  2.0100000000000D+00  0.0000000000000D+00  0.0000000000000D+00
203  2.0200000000000D+00  0.0000000000000D+00  0.0000000000000D+00
204  2.0300000000000D+00  0.0000000000000D+00  0.0000000000000D+00
205  2.0400000000000D+00  0.0000000000000D+00  0.0000000000000D+00
206  2.0500000000000D+00  0.0000000000000D+00  0.0000000000000D+00
207  2.0600000000000D+00  0.0000000000000D+00  0.0000000000000D+00
208  2.0700000000000D+00  0.0000000000000D+00  0.0000000000000D+00
209  2.0800000000000D+00  0.0000000000000D+00  0.0000000000000D+00
210  2.0900000000000D+00  0.0000000000000D+00  0.0000000000000D+00
211  2.1000000000000D+00  0.0000000000000D+00  0.0000000000000D+00
212  2.1100000000000D+00  0.0000000000000D+00  0.0000000000000D+00
213  2.1200000000000D+00  0.0000000000000D+00  0.0000000000000D+00
214  2.1300000000000D+00  0.0000000000000D+00  0.0000000000000D+00
215  2.1400000000000D+00  0.0000000000000D+00  0.0000000000000D+00
216  2.1500000000000D+00  0.0000000000000D+00  0.0000000000000D+00
217  2.1600000000000D+00  0.0000000000000D+00  0.0000000000000D+00
218  2.1700000000000D+00  0.0000000000000D+00  0.0000000000000D+00
219  2.1800000000000D+00  0.0000000000000D+00  0.0000000000000D+00
220  2.1900000000000D+00  0.0000000000000D+00  0.0000000000000D+00
221  2.2000000000000D+00  0.0000000000000D+00  0.0000000000000D+00
222  2.2100000000000D+00  0.0000000000000D+00  0.0000000000000D+00
223  2.2200000000000D+00  0.0000000000000D+00  0.0000000000000D+00
224  2.2300000000000D+00  0.0000000000000D+00  0.0000000000000D+00
225  2.2400000000000D+00  0.0000000000000D+00  0.0000000000000D+00
226  2.2500000000000D+00  0.0000000000000D+00  0.0000000000000D+00
227  2.2600000000000D+00  0.0000000000000D+00  0.0000000000000D+00
228  2.2700000000000D+00  0.0000000000000D+00  0.0000000000000D+00
229  2.2800000000000D+00  0.0000000000000D+00  0.0000000000000D+00
230  2.2900000000000D+00  0.0000000000000D+00  0.0000000000000D+00
231  2.3000000000000D+00  0.0000000000000D+00  0.0000000000000D+00
232  2.3100000000000D+00  0.0000000000000D+00  0.0000000000000D+00
233  2.3200000000000D+00  0.0000000000000D+00  0.0000000000000D+00
234  2.3300000000000D+00  0.0000000000000D+00  0.0000000000000D+00
235  2.3400000000000D+00  0.0000000000000D+00  0.0000000000000D+00
236  2.3500000000000D+00  0.0000000000000D+00  0.0000000000000D+00
237  2.3600000000000D+00  0.0000000000000D+00  0.0000000000000D+00
238  2.3700000000000D+00  0.0000000000000D+00  0.0000000000000D+00
239  2.3800000000000D+00  0.0000000000000D+00  0.0000000000000D+00
240  2.3900000000000D+00  0.0000000000000D+00  0.0000000000000D+00
241  2.4000000000000D+00  0.0000000000000D+00  0.0000000000000D+00
242  2.4100000000000D+00  0.0000000000000D+00  0.0000000000000D+00
243  2.4200000000000D+00  0.0000000000000D+00  0.0000000000000D+00
244  2.4300000000000D+00  0.0000000000000D+00  0.0000000000000D+00
245  2.4400000000000D+00  0.0000000000000D+00  0.0000000000000D+00
246  2.4500000000000D+00  0.0000000000000D+00  0.0000000000000D+00
247  2.4600000000000D+00  0.0000000000000D+00  0.0000000000000D+00
248  2.4700000000000D+00  0.0000000000000D+00  0.0000000000000D+00
249  2.4800000000000D+00  0.0000000000000D+00  0.0000000000000D+00
250  2.4900000000000D+00  0.0000000000000D+00  0.0000000000000D+00
251  2.5000000000000D+00  0.0000000000000D+00  0.0000000000000D+00
252  2.5100000000000D+00  0.0000000000000D+00  0.0000000000000D+00
253  2.5200000000000D+00  0.0000000000000D+00  0.0000000000000D+00
254  2.5300000000000D+00  0.0000000000000D+00  0.0000000000000D+00
255  2.5400000000000D+00  0.0000000000000D+00  0.0000000000000D+00
256  2.5500000000000D+00  0.0000000000000D+00  0.0000000000000D+00
257  2.5600000000000D+00  0.0000000000000D+00  0.0000000000000D+00
258  2.5700000000000D+00  0.0000000000000D+00  0.0000000000000D+00
259  2.5800000000000D+00  0.0000000000000D+00  0.0000000000000D+00
260  2.5900000000000D+00  0.0000000000000D+00  0.0000000000000D+00
261  2.6000000000000D+00  0.0000000000000D+00  0.0000000000000D+00
262  2.6100000000000D+00  0.0000000000000D+00  0.0000000000000D+00
263  2.6200000000000D+00  0.0000000000000D+00  0.0000000000000D+00
264  2.6300000000000D+00  0.0000000000000D+00  0.0000000000000D+00
265  2.6400000000000D+00  0.0000000000000D+00  0.0000000000000D+00
266  2.6500000000000D+00  0.0000000000000D+00  0.0000000000000D+00
267  2.6600000000000D+00  0.0000000000000D+00  0.0000000000000D+00
268  2.6700000000000D+00  0.0000000000000D+00  0.0000000000000D+00
269  2.6800000000000D+00  0.0000000000000D+00  0.0000000000000D+00
270  2.6900000000000D+00  0.0000000000000D+00  0.0000000000000D+00
271  2.7000000000000D+00  0.0000000000000D+00  0.0000000000000D+00
272  2.7100000000000D+00  0.0000000000000D+00  0.0000000000000D+00
273  2.7200000000000D+00  0.0000000000000D+00  0.0000000000000D+00
274  2.7300000000000D+00  0.0000000000000D+00  0.0000000000000D+00
275  2.7400000000000D+00  0.0000000000000D+00  0.0000000000000D+00
276  2.7500000000000D+00  0.0000000000000D+00  0.0000000000000D+00
277  2.7600000000000D+00  0.0000000000000D+00  0.0000000000000D+00
278  2.7700000000000D+00  0.0000000000000D+00  0.0000000000000D+00
279  2.7800000000000D+00  0.0000000000000D+00  0.0000000000000D+00
280  2.7900000000000D+00  0.0000000000000D+00  0.0000000000000D+00
281  2.8000000000000D+00  0.0000000000000D+00  0.0000000000000D+00
282  2.8100000000000D+00  0.0000000000000D+00  0.0000000000000D+00
283  2.8200000000000D+00  0.0000000000000D+00  0.0000000000000D+00
284  2.8300000000000D+00  0.0000000000000D+00  0.0000000000000D+00
285  2.8400000000000D+00  0.0000000000000D+00  0.0000000000000D+00
286  2.8500000000000D+00  0.0000000000000D+00  0.0000000000000D+00
287  2.8600000000000D+00  0.0000000000000D+00  0.0000000000000D+00
288  2.8700000000000D+00  0.0000000000000D+00  0.0000000000000D+00
289  2.8800000000000D+00  0.0000000000000D+00  0.0000000000000D+00
290  2.8900000000000D+00  0.0000000000000D+00  0.0000000000000D+00
291  2.9000000000000D+00  0.0000000000000D+00  0.0000000000000D+00
292  2.9100000000000D+00  0.0000000000000D+00  0.0000000000000D+00
293  2.9200000000000D+00  0.0000000000000D+00  0.0000000000000D+00
294  2.9300000000000D+00  0.0000000000000D+00  0.0000000000000D+00
295  2.9400000000000D+00  0.0000000000000D+00  0.0000000000000D+00
296  2.9500000000000D+00  0.0000000000000D+00  0.0000000000000D+00
297  2.9600000000000D+00  0.0000000000000D+00  0.0000000000000D+00
298  2.9700000000000D+00  0.0000000000000D+00  0.0000000000000D+00
299  2.9800000000000D+00  0.0000000000000D+00  0.0000000000000D+00
300  2.9900000000000D+00  0.0000000000000D+00  0.0000000000000D+00
301  3.0000000000000D+00  0.0000000000000D+00  0.0000000000000D+00
302  3.0100000000000D+00  0.0000000000000D+00  0.0000000000000D+00
303  3.0200000000000D+00  0.0000000000000D+00  0.0000000000000D+00
304  3.0300000000000D+00  0.0000000000000D+00  0.0000000000000D+00
305  3.0400000000000D+00  0.0000000000000D+00  0.0000000000000D+00
306  3.0500000000000D+00  0.0000000000000D+00  0.0000000000000D+00
307  3.0600000000000D+00  0.0000000000000D+00  0.0000000000000D+00
308  3.0700000000000D+00  0.0000000000000D+00  0.0000000000000D+00
309  3.0800000000000D+00  0.0000000000000D+00  0.0000000000000D+00
310  3.0900000000000D+00  0.0000000000000D+00  0.0000000000000D+00
311  3.1000000000000D+00  0.0000000000000D+00  0.0000000000000D+00
312  3.1100000000000D+00  0.0000000000000D+00  0.0000000000000D+00
313  3.1200000000000D+00  0.0000000000000D+00  0.0000000000000D+00
314  3.1300000000000D+00  0.0000000000000D+00  0.0000000000000D+00
315  3.1400000000000D+00  0.0000000000000D+00  0.0000000000000D+00
316  3.1500000000000D+00  0.0000000000000D+00  0.0000000000000D+00
317  3.1600000000000D+00  0.0000000000000D+00  0.0000000000000D+00
318  3.1700000000000D+00  0.0000000000000D+00  0.0000000000000D+00
319  3.1800000000000D+00  0.0000000000000D+00  0.0000000000000D+00
320  3.1900000000000D+00  0.0000000000000D+00  0.0000000000000D+00
321  3.2000000000000D+00  0.0000000000000D+00  0.0000000000000D+00
322  3.2100000000000D+00  0.0000000000000D+00  0.0000000000000D+00
323  3.2200000000000D+00  0.0000000000000D+00  0.0000000000000D+00
324  3.2300000000000D+00  0.0000000000000D+00  0.0000000000000D+00
325  3.2400000000000D+00  0.0000000000000D+00  0.0000000000000D+00
326  3.2500000000000D+00  0.0000000000000D+00  0.0000000000000D+00
327  3.2600000000000D+00  0.0000000000000D+00  0.0000000000000D+00
328  3.2700000000000D+00  0.0000000000000D+00  0.0000000000000D+00
329  3.2800000000000D+00  0.0000000000000D+00  0.0000000000000D+00
330  3.2900000000000D+00  0.0000000000000D+00  0.0000000000000D+00
331  3.3000000000000D+00  0.0000000000000D+00  0.0000000000000D+00
332  3.3100000000000D+00  0.0000000000000D+00  0.0000000000000D+00
333  3.3200000000000D+00  0.0000000000000D+00  0.0000000000000D+00
334  3.3300000000000D+00  0.0000000000000D+00  0.0000000000000D+00
335  3.3400000000000D+00  0.0000000000000D+00  0.0000000000000D+00
336  3.3500000000000D+00  0.0000000000000D+00  0.0000000000000D+00
337  3.3600000000000D+00  0.0000000000000D+00  0.0000000000000D+00
338  3.3700000000000D+00  0.0000000000000D+00  0.0000000000000D+00
339  3.3800000000000D+00  0.0000000000000D+00  0.0000000000000D+00
340  3.3900000000000D+00  0.0000000000000D+00  0.0000000000000D+00
341  3.4000000000000D+00  0.0000000000000D+00  0.0000000000000D+00
342  3.4100000000000D+00  0.0000000000000D+00  0.0000000000000D+00
343  3.4200000000000D+00  0.0000000000000D+00  0.0000000000000D+00
344  3.4300000000000D+00  0.0000000000000D+00  0.0000000000000D+00
345  3.4400000000000D+00  0.0000000000000D+00  0.0000000000000D+00
346  3.4500000000000D+00  0.0000000000000D+00  0.0000000000000D+00
347  3.4600000000000D+00  0.0000000000000D+00  0.0000000000000D+00
348  3.4700000000000D+00  0.0000000000000D+00  0.0000000000000D+00
349  3.4800000000000D+00  0.0000000000000D+00  0.0000000000000D+00
350  3.4900000000000D+00  0.0000000000000D+00  0.0000000000000D+00
351  3.5000000000000D+00  0.0000000000000D+00  0.0000000000000D+00
352  3.5100000000000D+00  0.0000000000000D+00  0.0000000000000D+00
353  3.5200000000000D+00  0.0000000000000D+00  0.0000000000000D+00
354  3.5300000000000D+00  0.0000000000000D+00  0.0000000000000D+00
355  3.5400000000000D+00  0.0000000000000D+00  0.0000000000000D+00
356  3.5500000000000D+00  0.0000000000000D+00  0.0000000000000D+00
357  3.5600000000000D+00  0.0000000000000D+00  0.0000000000000D+00
358  3.5700000000000D+00  0.0000000000000D+00  0.0000000000000D+00
359  3.5800000000000D+00  0.0000000000000D+00  0.0000000000000D+00
360  3.5900000000000D+00  0.0000000000000D+00  0.0000000000000D+00
361  3.6000000000000D+00  0.0000000000000D+00  0.0000000000000D+00
362  3.6100000000000D+00  0.0000000000000D+00  0.0000000000000D+00
363  3.6200000000000D+00  0.0000000000000D+00  0.0000000000000D+00
364  3.6300000000000D+00  0.0000000000000D+00  0.0000000000000D+00
365  3.6400000000000D+00  0.0000000000000D+00  0.0000000000000D+00
366  3.6500000000000D+00  0.0000000000000D+00  0.0000000000000D+00
367  3.6600000000000D+00  0.0000000000000D+00  0.0000000000000D+00
368  3.6700000000000D+00  0.0000000000000D+00  0.0000000000000D+00
369  3.6800000000000D+00  0.0000000000000D+00  0.0000000000000D+00
370  3.6900000000000D+00  0.0000000000000D+00  0.0000000000000D+00
371  3.7000000000000D+00  0.0000000000000D+00  0.0000000000000D+00
372  3.7100000000000D+00  0.0000000000000D+00  0.0000000000000D+00
373  3.7200000000000D+00  0.0000000000000D+00  0.0000000000000D+00
374  3.7300000000000D+00  0.0000000000000D+00  0.0000000000000D+00
375  3.7400000000000D+00  0.0000000000000D+00  0.0000000000000D+00
376  3.7500000000000D+00  0.0000000000000D+00  0.0000000000000D+00
377  3.7600000000000D+00  0.0000000000000D+00  0.0000000000000D+00
378  3.7700000000000D+00  0.0000000000000D+00  0.0000000000000D+00
379  3.7800000000000D+00  0.0000000000000D+00  0.0000000000000D+00
380  3.7900000000000D+00  0.0000000000000D+00  0.0000000000000D+00
381  3.8000000000000D+00  0.0000000000000D+00  0.0000000000000D+00
382  3.8100000000000D+00  0.0000000000000D+00  0.0000000000000D+00
383  3.8200000000000D+00  0.0000000000000D+00  0.0000000000000D+00
384  3.8300000000000D+00  0.0000000000000D+00  0.0000000000000D+00
385  3.8400000000000D+00  0.0000000000000D+00  0.0000000000000D+00
386  3.8500000000000D+00  0.0000000000000D+00  0.0000000000000D+00
387  3.8600000000000D+00  0.0000000000000D+00  0.0000000000000D+00
388  3.8700000000000D+00  0.0000000000000D+00  0.0000000000000D+00
389  3.8800000000000D+00  0.0000000000000D+00  0.0000000000000D+00
390  3.8900000000000D+00  0.0000000000000D+00  0.0000000000000D+00
391  3.9000000000000D+00  0.0000000000000D+00  0.0000000000000D+00
392  3.9100000000000D+00  0.0000000000000D+00  0.0000000000000D+00
393  3.9200000000000D+00  0.0000000000000D+00  0.0000000000000D+00
394  3.9300000000000D+00  0.0000000000000D+00  0.0000000000000D+00
395  3.9400000000000D+00  0.0000000000000D+00  0.0000000000000D+00
396  3.9500000000000D+00  0.0000000000000D+00  0.0000000000000D+00
397  3.9600000000000D+00  0.0000000000000D+00  0.0000000000000D+00
398  3.9700000000000D+00  0.0000000000000D+00  0.0000000000000D+00
399  3.9800000000000D+00  0.0000000000000D+00  0.0000000000000D+00
400  3.9900000000000D+00  0.0000000000000D+00  0.0000000000000D+00
401  4.0000000000000D+00  0.0000000000000D+00  0.0000000000000D+00
402  4.0100000000000D+00  0.0000000000000D+00  0.0000000000000D+00
403  4.0200000000000D+00  0.0000000000000D+00  0.0000000000000D+00
404  4.0300000000000D+00  0.0000000000000D+00  0.0000000000000D+00
405  4.0400000000000D+00  0.0000000000000D+00  0.0000000000000D+00
406  4.0500000000000D+00  0.0000000000000D+00  0.0000000000000D+00
407  4.0600000000000D+00  0.0000000000000D+00  0.0000000000000D+00
408  4.0700000000000D+00  0.0000000000000D+00  0.0000000000000D+00
409  4.0800000000000D+00  0.0000000000000D+00  0.0000000000000D+00
410  4.0900000000000D+00  0.0000000000000D+00  0.0000000000000D+00
411  4.1000000000000D+00  0.0000000000000D+00  0.0000000000000D+00
412  4.1100000000000D+00  0.0000000000000D+00  0.0000000000000D+00
413  4.1200000000000D+00  0.0000000000000D+00  0.0000000000000D+00
414  4.1300000000000D+00  0.0000000000000D+00  0.0000000000000D+00
415  4.1400000000000D+00  0.0000000000000D+00  0.0000000000000D+00
416  4.1500000000000D+00  0.0000000000000D+00  0.0000000000000D+00
417  4.1600000000000D+00  0.0000000000000D+00  0.0000000000000D+00
418  4.1700000000000D+00  0.0000000000000D+00  0.0000000000000D+00
419  4.1800000000000D+00  0.0000000000000D+00  0.0000000000000D+00
420  4.1900000000000D+00  0.0000000000000D+00  0.0000000000000D+00
421  4.2000000000000D+00  0.0000000000000D+00  0.0000000000000D+00
422  4.2100000000000D+00  0.0000000000000D+00  0.0000000000000D+00
423  4.2200000000000D+00  0.0000000000000D+00  0.0000000000000D+00
424  4.2300000000000D+00  0.0000000000000D+00  0.0000000000000D+00
425  4.2400000000000D+00  0.0000000000000D+00  0.0000000000000D+00
426  4.2500000000000D+00  0.0000000000000D+00  0.0000000000000D+00
427  4.2600000000000D+00  0.0000000000000D+00  0.0000000000000D+00
428  4.2700000000000D+00  0.0000000000000D+00  0.0000000000000D+00
429  4.2800000000000D+00  0.0000000000000D+00  0.0000000000000D+00
430  4.2900000000000D+00  0.0000000000000D+00  0.0000000000000D+00
431  4.3000000000000D+00  0.0000000000000D+00  0.0000000000000D+00
432  4.3100000000000D+00  0.0000000000000D+00  0.0000000000000D+00
433  4.3200000000000D+00  0.0000000000000D+00  0.0000000000000D+00
434  4.3300000000000D+00  0.0000000000000D+00  0.0000000000000D+00
435  4.3400000000000D+00  0.0000000000000D+00  0.0000000000000D+00
436  4.3500000000000D+00  0.0000000000000D+00  0.0000000000000D+00
437  4.3600000000000D+00  0.0000000000000D+00  0.0000000000000D+00
438  4.3700000000000D+00  0.0000000000000D+00  0.0000000000000D+00
439  4.3800000000000D+00  0.0000000000000D+00  0.0000000000000D+00
440  4.3900000000000D+00  0.0000000000000D+00  0.0000000000000D+00
441  4.4000000000000D+00  0.0000000000000D+00  0.0000000000000D+00
442  4.4100000000000D+00  0.0000000000000D+00  0.0000000000000D+00
443  4.4200000000000D+00  0.0000000000000D+00  0.0000000000000D+00
444  4.4300000000000D+00  0.0000000000000D+00  0.0000000000000D+00