F     ONCVPSP  r_core=  1.31  1.60  1.60
9.0000      7.0000      160625    zatom,zion,pspd
8      11   2     4   600     0    pspcod,pspxc,lmax,lloc,mmax,r2well
5.99000000  2.00000000  0.00000000    rchrg fchrg qchrg
2     2     1     0     0    nproj
1                 extension_switch
0                         4.9346025914992D+00  1.1567233611065D+00
1  0.0000000000000D+00 -7.3152119917097D-09  1.1972729085930D-08
2  1.0000000000000D-02  8.8027612519310D-02 -2.8076180609497D-02
3  2.0000000000000D-02  1.7558869111810D-01 -5.5586164771179D-02
4  3.0000000000000D-02  2.6222293540499D-01 -8.1973474981888D-02
5  4.0000000000000D-02  3.4748240408900D-01 -1.0670089644774D-01
6  5.0000000000000D-02  4.3093742654674D-01 -1.2925967361823D-01
7  6.0000000000000D-02  5.1218219812968D-01 -1.4917819364350D-01
8  7.0000000000000D-02  5.9083996255743D-01 -1.6603000007745D-01
9  8.0000000000000D-02  6.6656769205806D-01 -1.7944099212234D-01
10  9.0000000000000D-02  7.3906018481669D-01 -1.8909567927536D-01
11  1.0000000000000D-01  8.0805350962220D-01 -1.9474237813869D-01
12  1.1000000000000D-01  8.7332773917726D-01 -1.9619725709282D-01
13  1.2000000000000D-01  9.3470892615630D-01 -1.9334715517425D-01
14  1.3000000000000D-01  9.9207028953618D-01 -1.8615112347945D-01
15  1.4000000000000D-01  1.0453325927508D+00 -1.7464066034791D-01
16  1.5000000000000D-01  1.0944637095838D+00 -1.5891863505310D-01
17  1.6000000000000D-01  1.1394773881639D+00 -1.3915691833648D-01
18  1.7000000000000D-01  1.1804312377052D+00 -1.1559276143726D-01
19  1.8000000000000D-01  1.2174239764941D+00 -8.8523987886606D-02
20  1.9000000000000D-01  1.2505919928140D+00 -5.8303083847800D-02
21  2.0000000000000D-01  1.2801052827929D+00 -2.5330292810327D-02
22  2.1000000000000D-01  1.3061628403297D+00  9.9541613703806D-03
23  2.2000000000000D-01  1.3289875841142D+00  4.7078583080518D-02
24  2.3000000000000D-01  1.3488209151210D+00  8.5548891635990D-02
25  2.4000000000000D-01  1.3659170046813D+00  1.2485812162479D-01
26  2.5000000000000D-01  1.3805369181967D+00  1.6449616451606D-01
27  2.6000000000000D-01  1.3929426826687D+00  2.0395957423205D-01
28  2.7000000000000D-01  1.4033914074120D+00  2.4276125760161D-01
29  2.8000000000000D-01  1.4121295665818D+00  2.8043987201448D-01
30  2.9000000000000D-01  1.4193875494794D+00  3.1656875715688D-01
31  3.0000000000000D-01  1.4253745800471D+00  3.5076423535917D-01
32  3.1000000000000D-01  1.4302741006096D+00  3.8269312569858D-01
33  3.2000000000000D-01  1.4342397068566D+00  4.1207933039588D-01
34  3.3000000000000D-01  1.4373917114406D+00  4.3870936799666D-01
35  3.4000000000000D-01  1.4398144025454D+00  4.6243674606192D-01
36  3.5000000000000D-01  1.4415540515508D+00  4.8318508629701D-01
37  3.6000000000000D-01  1.4426177106936D+00  5.0094993687323D-01
38  3.7000000000000D-01  1.4429728276327D+00  5.1579922976434D-01
39  3.8000000000000D-01  1.4425476893016D+00  5.2787236483409D-01
40  3.9000000000000D-01  1.4412326926418D+00  5.3737792675180D-01
41  4.0000000000000D-01  1.4388824249940D+00  5.4459006515886D-01
42  4.1000000000000D-01  1.4353185223556D+00  5.4984359243672D-01
43  4.2000000000000D-01  1.4303332596365D+00  5.5352787651586D-01
44  4.3000000000000D-01  1.4236938137064D+00  5.5607962801213D-01
45  4.4000000000000D-01  1.4151471276704D+00  5.5797470119899D-01
46  4.5000000000000D-01  1.4044252936327D+00  5.5971904656395D-01
47  4.6000000000000D-01  1.3912513614298D+00  5.6183896863308D-01
48  4.7000000000000D-01  1.3753454725891D+00  5.6487085609550D-01
49  4.8000000000000D-01  1.3564312122530D+00  5.6935056178050D-01
50  4.9000000000000D-01  1.3342420671177D+00  5.7580261754317D-01
51  5.0000000000000D-01  1.3085278746518D+00  5.8472947345941D-01
52  5.1000000000000D-01  1.2790611480419D+00  5.9660095183483D-01
53  5.2000000000000D-01  1.2456431624745D+00  6.1184410436192D-01
54  5.3000000000000D-01  1.2081096914988D+00  6.3083365533875D-01
55  5.4000000000000D-01  1.1663362872606D+00  6.5388320529085D-01
56  5.5000000000000D-01  1.1202430053018D+00  6.8123735770870D-01
57  5.6000000000000D-01  1.0697984832293D+00  7.1306491717552D-01
58  5.7000000000000D-01  1.0150232927725D+00  7.4945329008763D-01
59  5.8000000000000D-01  9.5599249637497D-01  7.9040419978171D-01
60  5.9000000000000D-01  8.9283735231097D-01  8.3583080649902D-01
61  6.0000000000000D-01  8.2574612619028D-01  8.8555629955946D-01
62  6.1000000000000D-01  7.5496398136044D-01  9.3931400480137D-01
63  6.2000000000000D-01  6.8079193587910D-01  9.9674902519992D-01
64  6.3000000000000D-01  6.0358488924877D-01  1.0574214068672D+00
65  6.4000000000000D-01  5.2374873752506D-01  1.1208107971227D+00
66  6.5000000000000D-01  4.4173661074453D-01  1.1863225359745D+00
67  6.6000000000000D-01  3.5804428137213D-01  1.2532950979910D+00
68  6.7000000000000D-01  2.7320480647048D-01  1.3210087784551D+00
69  6.8000000000000D-01  1.8778247943781D-01  1.3886954960516D+00
70  6.9000000000000D-01  1.0236617900252D-01  1.4555495648796D+00
71  7.0000000000000D-01  1.7562213676548D-02  1.5207392713477D+00
72  7.1000000000000D-01 -6.6013231201294D-02  1.5834190769237D+00
73  7.2000000000000D-01 -1.4774192945406D-01  1.6427422559329D+00
74  7.3000000000000D-01 -2.2701161334519D-01  1.6978737689648D+00
75  7.4000000000000D-01 -3.0322401293535D-01  1.7480031669669D+00
76  7.5000000000000D-01 -3.7580281084656D-01  1.7923573189798D+00
77  7.6000000000000D-01 -4.4420138829819D-01  1.8302127576550D+00
78  7.7000000000000D-01 -5.0791024086109D-01  1.8609074413043D+00
79  7.8000000000000D-01 -5.6646394690720D-01  1.8838517390651D+00
80  7.9000000000000D-01 -6.1944757818167D-01  1.8985384568076D+00
81  8.0000000000000D-01 -6.6650245017505D-01  1.9045517354349D+00
82  8.1000000000000D-01 -7.0733111989712D-01  1.9015746700449D+00
83  8.2000000000000D-01 -7.4170155009206D-01  1.8893955177467D+00
84  8.3000000000000D-01 -7.6945037170237D-01  1.8679123834693D+00
85  8.4000000000000D-01 -7.9048519028032D-01  1.8371362964993D+00
86  8.5000000000000D-01 -8.0478589683476D-01  1.7971926153862D+00
87  8.6000000000000D-01 -8.1240495904785D-01  1.7483207248362D+00
88  8.7000000000000D-01 -8.1346668464779D-01  1.6908720148767D+00
89  8.8000000000000D-01 -8.0816546472127D-01  1.6253061594666D+00
90  8.9000000000000D-01 -7.9676302062989D-01  1.5521857384336D+00
91  9.0000000000000D-01 -7.7958469369830D-01  1.4721692726838D+00
92  9.1000000000000D-01 -7.5701483171201D-01  1.3860027676487D+00
93  9.2000000000000D-01 -7.2949134025653D-01  1.2945098834865D+00
94  9.3000000000000D-01 -6.9749947981601D-01  1.1985808722677D+00
95  9.4000000000000D-01 -6.6156500111929D-01  1.0991604418946D+00
96  9.5000000000000D-01 -6.2224672128668D-01  9.9723472352499D-01
97  9.6000000000000D-01 -5.8012865173213D-01  8.9381753351600D-01
98  9.7000000000000D-01 -5.3581179539247D-01  7.8993613219436D-01
99  9.8000000000000D-01 -4.8990573554963D-01  6.8661668984536D-01
100  9.9000000000000D-01 -4.4302014131182D-01  5.8486967525062D-01
101  1.0000000000000D+00 -3.9575631565029D-01  4.8567538378622D-01
102  1.0100000000000D+00 -3.4869891071432D-01  3.8996982042999D-01
103  1.0200000000000D+00 -3.0240793216288D-01  2.9863114837482D-01
104  1.0300000000000D+00 -2.5741114950663D-01  2.1246690636958D-01
105  1.0400000000000D+00 -2.1419702279893D-01  1.3220218718556D-01
106  1.0500000000000D+00 -1.7320824863803D-01  5.8468957671437D-02
107  1.0600000000000D+00 -1.3483601900674D-01 -8.2033144434396D-03
108  1.0700000000000D+00 -9.9415076470133D-02 -6.7395578080786D-02
109  1.0800000000000D+00 -6.7219638804043D-02 -1.1880552872038D-01
110  1.0900000000000D+00 -3.8460254550097D-02 -1.6225223748190D-01
111  1.1000000000000D+00 -1.3281641070173D-02 -1.9767898223232D-01
112  1.1100000000000D+00  8.2384550772282D-03 -2.2515420252203D-01
113  1.1200000000000D+00  2.6089345188490D-02 -2.4487051548601D-01
114  1.1300000000000D+00  4.0326411461986D-02 -2.5714174384868D-01
115  1.1400000000000D+00  5.1069031584188D-02 -2.6239791807452D-01
116  1.1500000000000D+00  5.8497406485998D-02 -2.6117822411683D-01
117  1.1600000000000D+00  6.2848286578497D-02 -2.5412187338052D-01
118  1.1700000000000D+00  6.4409591642386D-02 -2.4195687040492D-01
119  1.1800000000000D+00  6.3513918524314D-02 -2.2548665122425D-01
120  1.1900000000000D+00  6.0530927042577D-02 -2.0557455800399D-01
121  1.2000000000000D+00  5.5858585522709D-02 -1.8312609945221D-01
122  1.2100000000000D+00  4.9913243336756D-02 -1.5906892187768D-01
123  1.2200000000000D+00  4.3118487938056D-02 -1.3433039488698D-01
124  1.2300000000000D+00  3.5892738820367D-02 -1.0981272108239D-01
125  1.2400000000000D+00  2.8635309598823D-02 -8.6364990024581D-02
126  1.2500000000000D+00  2.1712338874285D-02 -6.4755387439019D-02
127  1.2600000000000D+00  1.5437381658199D-02 -4.5631742584049D-02
128  1.2700000000000D+00  1.0057582761170D-02 -2.9497295818341D-02
129  1.2800000000000D+00  5.7330379753144D-03 -1.6658599102732D-02
130  1.2900000000000D+00  2.5924582926724D-03 -7.3820897364031D-03
131  1.3000000000000D+00  8.2625580933962D-04 -2.1366991288705D-03
132  1.3100000000000D+00  1.5944735389154D-04 -1.9074538650875D-04
133  1.3200000000000D+00  3.1253745990956D-06  8.1945073928266D-05
134  1.3300000000000D+00  3.9128377187468D-06 -4.0282179374290D-05
135  1.3400000000000D+00  1.2161015766657D-06 -8.5267780374409D-06
136  1.3500000000000D+00 -1.4057969175740D-07  7.0248448356013D-06
137  1.3600000000000D+00 -2.9958239140513D-07  4.0575178050291D-07
138  1.3700000000000D+00 -2.9603085136817D-07  4.0094160562325D-07
139  1.3800000000000D+00  0.0000000000000D+00  0.0000000000000D+00
140  1.3900000000000D+00  0.0000000000000D+00  0.0000000000000D+00
141  1.4000000000000D+00  0.0000000000000D+00  0.0000000000000D+00
142  1.4100000000000D+00  0.0000000000000D+00  0.0000000000000D+00
143  1.4200000000000D+00  0.0000000000000D+00  0.0000000000000D+00
144  1.4300000000000D+00  0.0000000000000D+00  0.0000000000000D+00
145  1.4400000000000D+00  0.0000000000000D+00  0.0000000000000D+00
146  1.4500000000000D+00  0.0000000000000D+00  0.0000000000000D+00
147  1.4600000000000D+00  0.0000000000000D+00  0.0000000000000D+00
148  1.4700000000000D+00  0.0000000000000D+00  0.0000000000000D+00
149  1.4800000000000D+00  0.0000000000000D+00  0.0000000000000D+00
150  1.4900000000000D+00  0.0000000000000D+00  0.0000000000000D+00
151  1.5000000000000D+00  0.0000000000000D+00  0.0000000000000D+00
152  1.5100000000000D+00  0.0000000000000D+00  0.0000000000000D+00
153  1.5200000000000D+00  0.0000000000000D+00  0.0000000000000D+00
154  1.5300000000000D+00  0.0000000000000D+00  0.0000000000000D+00
155  1.5400000000000D+00  0.0000000000000D+00  0.0000000000000D+00
156  1.5500000000000D+00  0.0000000000000D+00  0.0000000000000D+00
157  1.5600000000000D+00  0.0000000000000D+00  0.0000000000000D+00
158  1.5700000000000D+00  0.0000000000000D+00  0.0000000000000D+00
159  1.5800000000000D+00  0.0000000000000D+00  0.0000000000000D+00
160  1.5900000000000D+00  0.0000000000000D+00  0.0000000000000D+00
161  1.6000000000000D+00  0.0000000000000D+00  0.0000000000000D+00
162  1.6100000000000D+00  0.0000000000000D+00  0.0000000000000D+00
163  1.6200000000000D+00  0.0000000000000D+00  0.0000000000000D+00
164  1.6300000000000D+00  0.0000000000000D+00  0.0000000000000D+00
165  1.6400000000000D+00  0.0000000000000D+00  0.0000000000000D+00
166  1.6500000000000D+00  0.0000000000000D+00  0.0000000000000D+00
167  1.6600000000000D+00  0.0000000000000D+00  0.0000000000000D+00
168  1.6700000000000D+00  0.0000000000000D+00  0.0000000000000D+00
169  1.6800000000000D+00  0.0000000000000D+00  0.0000000000000D+00
170  1.6900000000000D+00  0.0000000000000D+00  0.0000000000000D+00
171  1.7000000000000D+00  0.0000000000000D+00  0.0000000000000D+00
172  1.7100000000000D+00  0.0000000000000D+00  0.0000000000000D+00
173  1.7200000000000D+00  0.0000000000000D+00  0.0000000000000D+00
174  1.7300000000000D+00  0.0000000000000D+00  0.0000000000000D+00
175  1.7400000000000D+00  0.0000000000000D+00  0.0000000000000D+00
176  1.7500000000000D+00  0.0000000000000D+00  0.0000000000000D+00
177  1.7600000000000D+00  0.0000000000000D+00  0.0000000000000D+00
178  1.7700000000000D+00  0.0000000000000D+00  0.0000000000000D+00
179  1.7800000000000D+00  0.0000000000000D+00  0.0000000000000D+00
180  1.7900000000000D+00  0.0000000000000D+00  0.0000000000000D+00
181  1.8000000000000D+00  0.0000000000000D+00  0.0000000000000D+00
182  1.8100000000000D+00  0.0000000000000D+00  0.0000000000000D+00
183  1.8200000000000D+00  0.0000000000000D+00  0.0000000000000D+00
184  1.8300000000000D+00  0.0000000000000D+00  0.0000000000000D+00
185  1.8400000000000D+00  0.0000000000000D+00  0.0000000000000D+00
186  1.8500000000000D+00  0.0000000000000D+00  0.0000000000000D+00
187  1.8600000000000D+00  0.0000000000000D+00  0.0000000000000D+00
188  1.8700000000000D+00  0.0000000000000D+00  0.0000000000000D+00
189  1.8800000000000D+00  0.0000000000000D+00  0.0000000000000D+00
190  1.8900000000000D+00  0.0000000000000D+00  0.0000000000000D+00
191  1.9000000000000D+00  0.0000000000000D+00  0.0000000000000D+00
192  1.9100000000000D+00  0.0000000000000D+00  0.0000000000000D+00
193  1.9200000000000D+00  0.0000000000000D+00  0.0000000000000D+00
194  1.9300000000000D+00  0.0000000000000D+00  0.0000000000000D+00
195  1.9400000000000D+00  0.0000000000000D+00  0.0000000000000D+00
196  1.9500000000000D+00  0.0000000000000D+00  0.0000000000000D+00
197  1.9600000000000D+00  0.0000000000000D+00  0.0000000000000D+00
198  1.9700000000000D+00  0.0000000000000D+00  0.0000000000000D+00
199  1.9800000000000D+00  0.0000000000000D+00  0.0000000000000D+00
200  1.9900000000000D+00  0.0000000000000D+00  0.0000000000000D+00
201  2.0000000000000D+00  0.0000000000000D+00  0.0000000000000D+00
202  2.0100000000000D+00  0.0000000000000D+00  0.0000000000000D+00
203  2.0200000000000D+00  0.0000000000000D+00  0.0000000000000D+00
204  2.0300000000000D+00  0.0000000000000D+00  0.0000000000000D+00
205  2.0400000000000D+00  0.0000000000000D+00  0.0000000000000D+00
206  2.0500000000000D+00  0.0000000000000D+00  0.0000000000000D+00
207  2.0600000000000D+00  0.0000000000000D+00  0.0000000000000D+00
208  2.0700000000000D+00  0.0000000000000D+00  0.0000000000000D+00
209  2.0800000000000D+00  0.0000000000000D+00  0.0000000000000D+00
210  2.0900000000000D+00  0.0000000000000D+00  0.0000000000000D+00
211  2.1000000000000D+00  0.0000000000000D+00  0.0000000000000D+00
212  2.1100000000000D+00  0.0000000000000D+00  0.0000000000000D+00
213  2.1200000000000D+00  0.0000000000000D+00  0.0000000000000D+00
214  2.1300000000000D+00  0.0000000000000D+00  0.0000000000000D+00
215  2.1400000000000D+00  0.0000000000000D+00  0.0000000000000D+00
216  2.1500000000000D+00  0.0000000000000D+00  0.0000000000000D+00
217  2.1600000000000D+00  0.0000000000000D+00  0.0000000000000D+00
218  2.1700000000000D+00  0.0000000000000D+00  0.0000000000000D+00
219  2.1800000000000D+00  0.0000000000000D+00  0.0000000000000D+00
220  2.1900000000000D+00  0.0000000000000D+00  0.0000000000000D+00
221  2.2000000000000D+00  0.0000000000000D+00  0.0000000000000D+00
222  2.2100000000000D+00  0.0000000000000D+00  0.0000000000000D+00
223  2.2200000000000D+00  0.0000000000000D+00  0.0000000000000D+00
224  2.2300000000000D+00  0.0000000000000D+00  0.0000000000000D+00
225  2.2400000000000D+00  0.0000000000000D+00  0.0000000000000D+00
226  2.2500000000000D+00  0.0000000000000D+00  0.0000000000000D+00
227  2.2600000000000D+00  0.0000000000000D+00  0.0000000000000D+00
228  2.2700000000000D+00  0.0000000000000D+00  0.0000000000000D+00
229  2.2800000000000D+00  0.0000000000000D+00  0.0000000000000D+00
230  2.2900000000000D+00  0.0000000000000D+00  0.0000000000000D+00
231  2.3000000000000D+00  0.0000000000000D+00  0.0000000000000D+00
232  2.3100000000000D+00  0.0000000000000D+00  0.0000000000000D+00
233  2.3200000000000D+00  0.0000000000000D+00  0.0000000000000D+00
234  2.3300000000000D+00  0.0000000000000D+00  0.0000000000000D+00
235  2.3400000000000D+00  0.0000000000000D+00  0.0000000000000D+00
236  2.3500000000000D+00  0.0000000000000D+00  0.0000000000000D+00
237  2.3600000000000D+00  0.0000000000000D+00  0.0000000000000D+00
238  2.3700000000000D+00  0.0000000000000D+00  0.0000000000000D+00
239  2.3800000000000D+00  0.0000000000000D+00  0.0000000000000D+00
240  2.3900000000000D+00  0.0000000000000D+00  0.0000000000000D+00
241  2.4000000000000D+00  0.0000000000000D+00  0.0000000000000D+00
242  2.4100000000000D+00  0.0000000000000D+00  0.0000000000000D+00
243  2.4200000000000D+00  0.0000000000000D+00  0.0000000000000D+00
244  2.4300000000000D+00  0.0000000000000D+00  0.0000000000000D+00
245  2.4400000000000D+00  0.0000000000000D+00  0.0000000000000D+00
246  2.4500000000000D+00  0.0000000000000D+00  0.0000000000000D+00
247  2.4600000000000D+00  0.0000000000000D+00  0.0000000000000D+00
248  2.4700000000000D+00  0.0000000000000D+00  0.0000000000000D+00
249  2.4800000000000D+00  0.0000000000000D+00  0.0000000000000D+00
250  2.4900000000000D+00  0.0000000000000D+00  0.0000000000000D+00
251  2.5000000000000D+00  0.0000000000000D+00  0.0000000000000D+00
252  2.5100000000000D+00  0.0000000000000D+00  0.0000000000000D+00
253  2.5200000000000D+00  0.0000000000000D+00  0.0000000000000D+00
254  2.5300000000000D+00  0.0000000000000D+00  0.0000000000000D+00
255  2.5400000000000D+00  0.0000000000000D+00  0.0000000000000D+00
256  2.5500000000000D+00  0.0000000000000D+00  0.0000000000000D+00
257  2.5600000000000D+00  0.0000000000000D+00  0.0000000000000D+00
258  2.5700000000000D+00  0.0000000000000D+00  0.0000000000000D+00
259  2.5800000000000D+00  0.0000000000000D+00  0.0000000000000D+00
260  2.5900000000000D+00  0.0000000000000D+00  0.0000000000000D+00
261  2.6000000000000D+00  0.0000000000000D+00  0.0000000000000D+00
262  2.6100000000000D+00  0.0000000000000D+00  0.0000000000000D+00
263  2.6200000000000D+00  0.0000000000000D+00  0.0000000000000D+00
264  2.6300000000000D+00  0.0000000000000D+00  0.0000000000000D+00
265  2.6400000000000D+00  0.0000000000000D+00  0.0000000000000D+00
266  2.6500000000000D+00  0.0000000000000D+00  0.0000000000000D+00
267  2.6600000000000D+00  0.0000000000000D+00  0.0000000000000D+00
268  2.6700000000000D+00  0.0000000000000D+00  0.0000000000000D+00
269  2.6800000000000D+00  0.0000000000000D+00  0.0000000000000D+00
270  2.6900000000000D+00  0.0000000000000D+00  0.0000000000000D+00
271  2.7000000000000D+00  0.0000000000000D+00  0.0000000000000D+00
272  2.7100000000000D+00  0.0000000000000D+00  0.0000000000000D+00
273  2.7200000000000D+00  0.0000000000000D+00  0.0000000000000D+00
274  2.7300000000000D+00  0.0000000000000D+00  0.0000000000000D+00
275  2.7400000000000D+00  0.0000000000000D+00  0.0000000000000D+00
276  2.7500000000000D+00  0.0000000000000D+00  0.0000000000000D+00
277  2.7600000000000D+00  0.0000000000000D+00  0.0000000000000D+00
278  2.7700000000000D+00  0.0000000000000D+00  0.0000000000000D+00
279  2.7800000000000D+00  0.0000000000000D+00  0.0000000000000D+00
280  2.7900000000000D+00  0.0000000000000D+00  0.0000000000000D+00
281  2.8000000000000D+00  0.0000000000000D+00  0.0000000000000D+00
282  2.8100000000000D+00  0.0000000000000D+00  0.0000000000000D+00
283  2.8200000000000D+00  0.0000000000000D+00  0.0000000000000D+00
284  2.8300000000000D+00  0.0000000000000D+00  0.0000000000000D+00
285  2.8400000000000D+00  0.0000000000000D+00  0.0000000000000D+00
286  2.8500000000000D+00  0.0000000000000D+00  0.0000000000000D+00
287  2.8600000000000D+00  0.0000000000000D+00  0.0000000000000D+00
288  2.8700000000000D+00  0.0000000000000D+00  0.0000000000000D+00
289  2.8800000000000D+00  0.0000000000000D+00  0.0000000000000D+00
290  2.8900000000000D+00  0.0000000000000D+00  0.0000000000000D+00
291  2.9000000000000D+00  0.0000000000000D+00  0.0000000000000D+00
292  2.9100000000000D+00  0.0000000000000D+00  0.0000000000000D+00
293  2.9200000000000D+00  0.0000000000000D+00  0.0000000000000D+00
294  2.9300000000000D+00  0.0000000000000D+00  0.0000000000000D+00
295  2.9400000000000D+00  0.0000000000000D+00  0.0000000000000D+00
296  2.9500000000000D+00  0.0000000000000D+00  0.0000000000000D+00
297  2.9600000000000D+00  0.0000000000000D+00  0.0000000000000D+00
298  2.9700000000000D+00  0.0000000000000D+00  0.0000000000000D+00
299  2.9800000000000D+00  0.0000000000000D+00  0.0000000000000D+00
300  2.9900000000000D+00  0.0000000000000D+00  0.0000000000000D+00
301  3.0000000000000D+00  0.0000000000000D+00  0.0000000000000D+00
302  3.0100000000000D+00  0.0000000000000D+00  0.0000000000000D+00
303  3.0200000000000D+00  0.0000000000000D+00  0.0000000000000D+00
304  3.0300000000000D+00  0.0000000000000D+00  0.0000000000000D+00
305  3.0400000000000D+00  0.0000000000000D+00  0.0000000000000D+00
306  3.0500000000000D+00  0.0000000000000D+00  0.0000000000000D+00
307  3.0600000000000D+00  0.0000000000000D+00  0.0000000000000D+00
308  3.0700000000000D+00  0.0000000000000D+00  0.0000000000000D+00
309  3.0800000000000D+00  0.0000000000000D+00  0.0000000000000D+00
310  3.0900000000000D+00  0.0000000000000D+00  0.0000000000000D+00
311  3.1000000000000D+00  0.0000000000000D+00  0.0000000000000D+00
312  3.1100000000000D+00  0.0000000000000D+00  0.0000000000000D+00
313  3.1200000000000D+00  0.0000000000000D+00  0.0000000000000D+00
314  3.1300000000000D+00  0.0000000000000D+00  0.0000000000000D+00
315  3.1400000000000D+00  0.0000000000000D+00  0.0000000000000D+00
316  3.1500000000000D+00  0.0000000000000D+00  0.0000000000000D+00
317  3.1600000000000D+00  0.0000000000000D+00  0.0000000000000D+00
318  3.1700000000000D+00  0.0000000000000D+00  0.0000000000000D+00
319  3.1800000000000D+00  0.0000000000000D+00  0.0000000000000D+00
320  3.1900000000000D+00  0.0000000000000D+00  0.0000000000000D+00
321  3.2000000000000D+00  0.0000000000000D+00  0.0000000000000D+00
322  3.2100000000000D+00  0.0000000000000D+00  0.0000000000000D+00
323  3.2200000000000D+00  0.0000000000000D+00  0.0000000000000D+00
324  3.2300000000000D+00  0.0000000000000D+00  0.0000000000000D+00
325  3.2400000000000D+00  0.0000000000000D+00  0.0000000000000D+00
326  3.2500000000000D+00  0.0000000000000D+00  0.0000000000000D+00
327  3.2600000000000D+00  0.0000000000000D+00  0.0000000000000D+00
328  3.2700000000000D+00  0.0000000000000D+00  0.0000000000000D+00
329  3.2800000000000D+00  0.0000000000000D+00  0.0000000000000D+00
330  3.2900000000000D+00  0.0000000000000D+00  0.0000000000000D+00
331  3.3000000000000D+00  0.0000000000000D+00  0.0000000000000D+00
332  3.3100000000000D+00  0.0000000000000D+00  0.0000000000000D+00
333  3.3200000000000D+00  0.0000000000000D+00  0.0000000000000D+00
334  3.3300000000000D+00  0.0000000000000D+00  0.0000000000000D+00
335  3.3400000000000D+00  0.0000000000000D+00  0.0000000000000D+00
336  3.3500000000000D+00  0.0000000000000D+00  0.0000000000000D+00
337  3.3600000000000D+00  0.0000000000000D+00  0.0000000000000D+00
338  3.3700000000000D+00  0.0000000000000D+00  0.0000000000000D+00
339  3.3800000000000D+00  0.0000000000000D+00  0.0000000000000D+00
340  3.3900000000000D+00  0.0000000000000D+00  0.0000000000000D+00
341  3.4000000000000D+00  0.0000000000000D+00  0.0000000000000D+00
342  3.4100000000000D+00  0.0000000000000D+00  0.0000000000000D+00
343  3.4200000000000D+00  0.0000000000000D+00  0.0000000000000D+00
344  3.4300000000000D+00  0.0000000000000D+00  0.0000000000000D+00
345  3.4400000000000D+00  0.0000000000000D+00  0.0000000000000D+00
346  3.4500000000000D+00  0.0000000000000D+00  0.0000000000000D+00
347  3.4600000000000D+00  0.0000000000000D+00  0.0000000000000D+00
348  3.4700000000000D+00  0.0000000000000D+00  0.0000000000000D+00
349  3.4800000000000D+00  0.0000000000000D+00  0.0000000000000D+00
350  3.4900000000000D+00  0.0000000000000D+00  0.0000000000000D+00
351  3.5000000000000D+00  0.0000000000000D+00  0.0000000000000D+00
352  3.5100000000000D+00  0.0000000000000D+00  0.0000000000000D+00
353  3.5200000000000D+00  0.0000000000000D+00  0.0000000000000D+00
354  3.5300000000000D+00  0.0000000000000D+00  0.0000000000000D+00
355  3.5400000000000D+00  0.0000000000000D+00  0.0000000000000D+00
356  3.5500000000000D+00  0.0000000000000D+00  0.0000000000000D+00
357  3.5600000000000D+00  0.0000000000000D+00  0.0000000000000D+00
358  3.5700000000000D+00  0.0000000000000D+00  0.0000000000000D+00
359  3.5800000000000D+00  0.0000000000000D+00  0.0000000000000D+00
360  3.5900000000000D+00  0.0000000000000D+00  0.0000000000000D+00
361  3.6000000000000D+00  0.0000000000000D+00  0.0000000000000D+00
362  3.6100000000000D+00  0.0000000000000D+00  0.0000000000000D+00
363  3.6200000000000D+00  0.0000000000000D+00  0.0000000000000D+00
364  3.6300000000000D+00  0.0000000000000D+00  0.0000000000000D+00
365  3.6400000000000D+00  0.0000000000000D+00  0.0000000000000D+00
366  3.6500000000000D+00  0.0000000000000D+00  0.0000000000000D+00
367  3.6600000000000D+00  0.0000000000000D+00  0.0000000000000D+00
368  3.6700000000000D+00  0.0000000000000D+00  0.0000000000000D+00
369  3.6800000000000D+00  0.0000000000000D+00  0.0000000000000D+00
370  3.6900000000000D+00  0.0000000000000D+00  0.0000000000000D+00
371  3.7000000000000D+00  0.0000000000000D+00  0.0000000000000D+00
372  3.7100000000000D+00  0.0000000000000D+00  0.0000000000000D+00
373  3.7200000000000D+00  0.0000000000000D+00  0.0000000000000D+00
374  3.7300000000000D+00  0.0000000000000D+00  0.0000000000000D+00
375  3.7400000000000D+00  0.0000000000000D+00  0.0000000000000D+00
376  3.7500000000000D+00  0.0000000000000D+00  0.0000000000000D+00
377  3.7600000000000D+00  0.0000000000000D+00  0.0000000000000D+00
378  3.7700000000000D+00  0.0000000000000D+00  0.0000000000000D+00
379  3.7800000000000D+00  0.0000000000000D+00  0.0000000000000D+00
380  3.7900000000000D+00  0.0000000000000D+00  0.0000000000000D+00
381  3.8000000000000D+00  0.0000000000000D+00  0.0000000000000D+00
382  3.8100000000000D+00  0.0000000000000D+00  0.0000000000000D+00
383  3.8200000000000D+00  0.0000000000000D+00  0.0000000000000D+00
384  3.8300000000000D+00  0.0000000000000D+00  0.0000000000000D+00
385  3.8400000000000D+00  0.0000000000000D+00  0.0000000000000D+00
386  3.8500000000000D+00  0.0000000000000D+00  0.0000000000000D+00
387  3.8600000000000D+00  0.0000000000000D+00  0.0000000000000D+00
388  3.8700000000000D+00  0.0000000000000D+00  0.0000000000000D+00
389  3.8800000000000D+00  0.0000000000000D+00  0.0000000000000D+00
390  3.8900000000000D+00  0.0000000000000D+00  0.0000000000000D+00
391  3.9000000000000D+00  0.0000000000000D+00  0.0000000000000D+00
392  3.9100000000000D+00  0.0000000000000D+00  0.0000000000000D+00
393  3.9200000000000D+00  0.0000000000000D+00  0.0000000000000D+00
394  3.9300000000000D+00  0.0000000000000D+00  0.0000000000000D+00
395  3.9400000000000D+00  0.0000000000000D+00  0.0000000000000D+00
396  3.9500000000000D+00  0.0000000000000D+00  0.0000000000000D+00
397  3.9600000000000D+00  0.0000000000000D+00  0.0000000000000D+00
398  3.9700000000000D+00  0.0000000000000D+00  0.0000000000000D+00
399  3.9800000000000D+00  0.0000000000000D+00  0.0000000000000D+00
400  3.9900000000000D+00  0.0000000000000D+00  0.0000000000000D+00
401  4.0000000000000D+00  0.0000000000000D+00  0.0000000000000D+00
402  4.0100000000000D+00  0.0000000000000D+00  0.0000000000000D+00
403  4.0200000000000D+00  0.0000000000000D+00  0.0000000000000D+00
404  4.0300000000000D+00  0.0000000000000D+00  0.0000000000000D+00
405  4.0400000000000D+00  0.0000000000000D+00  0.0000000000000D+00
406  4.0500000000000D+00  0.0000000000000D+00  0.0000000000000D+00
407  4.0600000000000D+00  0.0000000000000D+00  0.0000000000000D+00
408  4.0700000000000D+00  0.0000000000000D+00  0.0000000000000D+00
409  4.0800000000000D+00  0.0000000000000D+00  0.0000000000000D+00
410  4.0900000000000D+00  0.0000000000000D+00  0.0000000000000D+00
411  4.1000000000000D+00  0.0000000000000D+00  0.0000000000000D+00
412  4.1100000000000D+00  0.0000000000000D+00  0.0000000000000D+00
413  4.1200000000000D+00  0.0000000000000D+00  0.0000000000000D+00
414  4.1300000000000D+00  0.0000000000000D+00  0.0000000000000D+00
415  4.1400000000000D+00  0.0000000000000D+00  0.0000000000000D+00
416  4.1500000000000D+00  0.0000000000000D+00  0.0000000000000D+00
417  4.1600000000000D+00  0.0000000000000D+00  0.0000000000000D+00
418  4.1700000000000D+00  0.0000000000000D+00  0.0000000000000D+00
419  4.1800000000000D+00  0.0000000000000D+00  0.0000000000000D+00
420  4.1900000000000D+00  0.0000000000000D+00  0.0000000000000D+00
421  4.2000000000000D+00  0.0000000000000D+00  0.0000000000000D+00
422  4.2100000000000D+00  0.0000000000000D+00  0.0000000000000D+00
423  4.2200000000000D+00  0.0000000000000D+00  0.0000000000000D+00
424  4.2300000000000D+00  0.0000000000000D+00  0.0000000000000D+00
425  4.2400000000000D+00  0.0000000000000D+00  0.0000000000000D+00
426  4.2500000000000D+00  0.0000000000000D+00  0.0000000000000D+00
427  4.2600000000000D+00  0.0000000000000D+00  0.0000000000000D+00
428  4.2700000000000D+00  0.0000000000000D+00  0.0000000000000D+00
429  4.2800000000000D+00  0.0000000000000D+00  0.0000000000000D+00
430  4.2900000000000D+00  0.0000000000000D+00  0.0000000000000D+00
431  4.3000000000000D+00  0.0000000000000D+00  0.0000000000000D+00
432  4.3100000000000D+00  0.0000000000000D+00  0.0000000000000D+00
433  4.3200000000000D+00  0.0000000000000D+00  0.0000000000000D+00
434  4.3300000000000D+00  0.0000000000000D+00  0.0000000000000D+00
435  4.3400000000000D+00  0.0000000000000D+00  0.0000000000000D+00
436  4.3500000000000D+00  0.0000000000000D+00  0.0000000000000D+00
437  4.3600000000000D+00  0.0000000000000D+00  0.0000000000000D+00
438  4.3700000000000D+00  0.0000000000000D+00  0.0000000000000D+00
439  4.3800000000000D+00  0.0000000000000D+00  0.0000000000000D+00
440  4.3900000000000D+00  0.0000000000000D+00  0.0000000000000D+00
441  4.4000000000000D+00  0.0000000000000D+00  0.0000000000000D+00
442  4.4100000000000D+00  0.0000000000000D+00  0.0000000000000D+00
443  4.4200000000000D+00  0.0000000000000D+00  0.0000000000000D+00
444  4.4300000000000D+00  0.0000000000000D+00  0.0000000000000D+00