F     ONCVPSP  r_core=  1.31  1.60
9.0000      7.0000      160625    zatom,zion,pspd
8      11   1     4   600     0    pspcod,pspxc,lmax,lloc,mmax,r2well
5.99000000  4.00000000  0.00000000    rchrg fchrg qchrg
2     2     0     0     0    nproj
1                 extension_switch
0                         2.6188788066269D+00 -5.4603535720963D-01
1  0.0000000000000D+00 -1.4923337787742D-08 -1.1383020692701D-08
2  1.0000000000000D-02  1.1018270391445D-01  1.1296378899448D-02
3  2.0000000000000D-02  2.1950137842993D-01  2.2241799266675D-02
4  3.0000000000000D-02  3.2710488621437D-01  3.2493951711841D-02
5  4.0000000000000D-02  4.3216765132076D-01  4.1727659319795D-02
6  5.0000000000000D-02  5.3390188690592D-01  4.9643032336593D-02
7  6.0000000000000D-02  6.3156917022776D-01  5.5973137271196D-02
8  7.0000000000000D-02  7.2449116522404D-01  6.0491032189408D-02
9  8.0000000000000D-02  8.1205930789861D-01  6.3016031360099D-02
10  9.0000000000000D-02  8.9374328790420D-01  6.3419076264706D-02
11  1.0000000000000D-01  9.6909818079717D-01  6.1627106057607D-02
12  1.1000000000000D-01  1.0377701090845D+00  5.7626338585671D-02
13  1.2000000000000D-01  1.0995003359752D+00  5.1464392724591D-02
14  1.3000000000000D-01  1.1541277232387D+00  4.3251203722872D-02
15  1.4000000000000D-01  1.2015895132836D+00  3.3158705094239D-02
16  1.5000000000000D-01  1.2419204250028D+00  2.1419272981671D-02
17  1.6000000000000D-01  1.2752500825677D+00  8.3229514375658D-03
18  1.7000000000000D-01  1.3017988256851D+00 -5.7865006725362D-03
19  1.8000000000000D-01  1.3218719783354D+00 -2.0516678823888D-02
20  1.9000000000000D-01  1.3358526801958D+00 -3.5432635148113D-02
21  2.0000000000000D-01  1.3441934103377D+00 -5.0063911837020D-02
22  2.1000000000000D-01  1.3474063559275D+00 -6.3912386125346D-02
23  2.2000000000000D-01  1.3460527991469D+00 -7.6460791961117D-02
24  2.3000000000000D-01  1.3407317130200D+00 -8.7181770421354D-02
25  2.4000000000000D-01  1.3320677709740D+00 -9.5547290448302D-02
26  2.5000000000000D-01  1.3206989855221D+00 -1.0103827376032D-01
27  2.6000000000000D-01  1.3072641982429D+00 -1.0315425297724D-01
28  2.7000000000000D-01  1.2923906461116D+00 -1.0142289018813D-01
29  2.8000000000000D-01  1.2766818281641D+00 -9.5409184422131D-02
30  2.9000000000000D-01  1.2607058914422D+00 -8.4724200751439D-02
31  3.0000000000000D-01  1.2449847462673D+00 -6.9033160995460D-02
32  3.1000000000000D-01  1.2299841082558D+00 -4.8062746092815D-02
33  3.2000000000000D-01  1.2161046483417D+00 -2.1607472996336D-02
34  3.3000000000000D-01  1.2036744126793D+00  1.0464975785971D-02
35  3.4000000000000D-01  1.1929426519915D+00  4.8209574392254D-02
36  3.5000000000000D-01  1.1840751750933D+00  9.1601012525281D-02
37  3.6000000000000D-01  1.1771513143797D+00  1.4053205505571D-01
38  3.7000000000000D-01  1.1721625624899D+00  1.9481324404054D-01
39  3.8000000000000D-01  1.1690129096424D+00  2.5417396179921D-01
40  3.9000000000000D-01  1.1675208807959D+00  3.1826485015553D-01
41  4.0000000000000D-01  1.1674232413597D+00  3.8666155738227D-01
42  4.1000000000000D-01  1.1683803101882D+00  4.5886976118505D-01
43  4.2000000000000D-01  1.1699827895802D+00  5.3433139364764D-01
44  4.3000000000000D-01  1.1717599944718D+00  6.1243197282170D-01
45  4.4000000000000D-01  1.1731893374615D+00  6.9250892596022D-01
46  4.5000000000000D-01  1.1737069031859D+00  7.7386077161684D-01
47  4.6000000000000D-01  1.1727189252993D+00  8.5575701228201D-01
48  4.7000000000000D-01  1.1696139622626D+00  9.3744857618382D-01
49  4.8000000000000D-01  1.1637755546384D+00  1.0181786365872D+00
50  4.9000000000000D-01  1.1545951368620D+00  1.0971936295715D+00
51  5.0000000000000D-01  1.1414849707157D+00  1.1737542869958D+00
52  5.1000000000000D-01  1.1238908660787D+00  1.2471465002624D+00
53  5.2000000000000D-01  1.1013044570189D+00  1.3166918325954D+00
54  5.3000000000000D-01  1.0732748079072D+00  1.3817575028427D+00
55  5.4000000000000D-01  1.0394191348539D+00  1.4417656721937D+00
56  5.5000000000000D-01  9.9943244227099D-01  1.4962018765829D+00
57  5.6000000000000D-01  9.5309589244176D-01  1.5446224616791D+00
58  5.7000000000000D-01  9.0028374740067D-01  1.5866608940625D+00
59  5.8000000000000D-01  8.4096874678854D-01  1.6220328411493D+00
60  5.9000000000000D-01  7.7522581222628D-01  1.6505399333110D+00
61  6.0000000000000D-01  7.0323399772735D-01  1.6720721441199D+00
62  6.1000000000000D-01  6.2527663620012D-01  1.6866087483258D+00
63  6.2000000000000D-01  5.4173966360956D-01  1.6942178415742D+00
64  6.3000000000000D-01  4.5310813451670D-01  1.6950544307540D+00
65  6.4000000000000D-01  3.5996097451479D-01  1.6893571284469D+00
66  6.5000000000000D-01  2.6296404653390D-01  1.6774435092455D+00
67  6.6000000000000D-01  1.6286163803351D-01  1.6597042088944D+00
68  6.7000000000000D-01  6.0466504368641D-02  1.6365958690057D+00
69  6.8000000000000D-01 -4.3351370158679D-02  1.6086330503012D+00
70  6.9000000000000D-01 -1.4767710879194D-01  1.5763792552298D+00
71  7.0000000000000D-01 -2.5156417136778D-01  1.5404372163482D+00
72  7.1000000000000D-01 -3.5404825428547D-01  1.5014386196225D+00
73  7.2000000000000D-01 -4.5416162691295D-01  1.4600334416467D+00
74  7.3000000000000D-01 -5.5094766126244D-01  1.4168790863958D+00
75  7.4000000000000D-01 -6.4347530728788D-01  1.3726295105115D+00
76  7.5000000000000D-01 -7.3085326607842D-01  1.3279245261126D+00
77  7.6000000000000D-01 -8.1224361745844D-01  1.2833794668002D+00
78  7.7000000000000D-01 -8.8687466716234D-01  1.2395753958135D+00
79  7.8000000000000D-01 -9.5405279150933D-01  1.1970500254390D+00
80  7.9000000000000D-01 -1.0131730742809D+00  1.1562895038525D+00
81  8.0000000000000D-01 -1.0637285509617D+00  1.1177212098403D+00
82  8.1000000000000D-01 -1.1053178993081D+00  1.0817076775803D+00
83  8.2000000000000D-01 -1.1376514419421D+00  1.0485417531708D+00
84  8.3000000000000D-01 -1.1605553558708D+00  1.0184430622578D+00
85  8.4000000000000D-01 -1.1739740149909D+00  9.9155584430716D-01
86  8.5000000000000D-01 -1.1779704242037D+00  9.6794818424048D-01
87  8.6000000000000D-01 -1.1727247371722D+00  9.4761264673330D-01
88  8.7000000000000D-01 -1.1585308834008D+00  9.3046829292625D-01
89  8.8000000000000D-01 -1.1357913636141D+00  9.1636403408379D-01
90  8.9000000000000D-01 -1.1050103047726D+00  9.0508325230510D-01
91  9.0000000000000D-01 -1.0667848968947D+00  8.9634959519453D-01
92  9.1000000000000D-01 -1.0217953626232D+00  8.8983382985589D-01
93  9.2000000000000D-01 -9.7079363665757D-01  8.8516162208308D-01
94  9.3000000000000D-01 -9.1459095529025D-01  8.8192208953786D-01
95  9.4000000000000D-01 -8.5404457593555D-01  8.7967696335599D-01
96  9.5000000000000D-01 -7.9004386234041D-01  8.7797018127637D-01
97  9.6000000000000D-01 -7.2349598284299D-01  8.7633772726638D-01
98  9.7000000000000D-01 -6.5531147636825D-01  8.7431752788145D-01
99  9.8000000000000D-01 -5.8638994351602D-01  8.7145921448745D-01
100  9.9000000000000D-01 -5.1760611857043D-01  8.6733356258328D-01
101  1.0000000000000D+00 -4.4979657157921D-01  8.6154142561921D-01
102  1.0100000000000D+00 -3.8374727885849D-01  8.5372198997375D-01
103  1.0200000000000D+00 -3.2018228490878D-01  8.4356019058604D-01
104  1.0300000000000D+00 -2.5975365935058D-01  8.3079314263714D-01
105  1.0400000000000D+00 -2.0303292822963D-01  8.1521546434441D-01
106  1.0500000000000D+00 -1.5050413353186D-01  7.9668338647652D-01
107  1.0600000000000D+00 -1.0255864317657D-01  7.7511756947629D-01
108  1.0700000000000D+00 -5.9491800692379D-02  7.5050457541354D-01
109  1.0800000000000D+00 -2.1501469018524D-02  7.2289696959295D-01
110  1.0900000000000D+00  1.1311516797780D-02  6.9241205803339D-01
111  1.1000000000000D+00  3.8941008331202D-02  6.5922929474395D-01
112  1.1100000000000D+00  6.1471377881058D-02  6.2358642708491D-01
113  1.1200000000000D+00  7.9071631470948D-02  5.8577447859222D-01
114  1.1300000000000D+00  9.1987945488639D-02  5.4613170096507D-01
115  1.1400000000000D+00  1.0053481110906D-01  5.0503665774513D-01
116  1.1500000000000D+00  1.0508500912358D-01  4.6290063228907D-01
117  1.1600000000000D+00  1.0605868163708D-01  4.2015958678189D-01
118  1.1700000000000D+00  1.0391180220035D-01  3.7726592628165D-01
119  1.1800000000000D+00  9.9124378432208D-02  3.3468034696015D-01
120  1.1900000000000D+00  9.2188760038314D-02  2.9286407773280D-01
121  1.2000000000000D+00  8.3598458079776D-02  2.5227184973075D-01
122  1.2100000000000D+00  7.3837913323211D-02  2.1334595230179D-01
123  1.2200000000000D+00  6.3373675753227D-02  1.7651175675251D-01
124  1.2300000000000D+00  5.2647475313737D-02  1.4217508596027D-01
125  1.2400000000000D+00  4.2071916225170D-02  1.1072211907375D-01
126  1.2500000000000D+00  3.2027581982718D-02  8.2520024956686D-02
127  1.2600000000000D+00  2.2868032892961D-02  5.7926422424839D-02
128  1.2700000000000D+00  1.4929381424416D-02  3.7308947268263D-02
129  1.2800000000000D+00  8.4807758672722D-03  2.0940732207511D-02
130  1.2900000000000D+00  3.7662337655035D-03  9.1263934647223D-03
131  1.3000000000000D+00  1.0866202936636D-03  2.4081740834240D-03
132  1.3100000000000D+00  9.3284824871414D-05 -4.8091786145133D-05
133  1.3200000000000D+00 -4.3220151131211D-05 -1.9924478172348D-04
134  1.3300000000000D+00  2.1086794330727D-05  8.1277852521141D-05
135  1.3400000000000D+00  4.4473831198800D-06  1.6014078555365D-05
136  1.3500000000000D+00 -3.6864451802477D-06 -1.5828987179177D-05
137  1.3600000000000D+00 -2.0019028798035D-07 -1.9278094704682D-08
138  1.3700000000000D+00 -1.9781703827286D-07 -1.9049553484823D-08
139  1.3800000000000D+00  0.0000000000000D+00  0.0000000000000D+00
140  1.3900000000000D+00  0.0000000000000D+00  0.0000000000000D+00
141  1.4000000000000D+00  0.0000000000000D+00  0.0000000000000D+00
142  1.4100000000000D+00  0.0000000000000D+00  0.0000000000000D+00
143  1.4200000000000D+00  0.0000000000000D+00  0.0000000000000D+00
144  1.4300000000000D+00  0.0000000000000D+00  0.0000000000000D+00
145  1.4400000000000D+00  0.0000000000000D+00  0.0000000000000D+00
146  1.4500000000000D+00  0.0000000000000D+00  0.0000000000000D+00
147  1.4600000000000D+00  0.0000000000000D+00  0.0000000000000D+00
148  1.4700000000000D+00  0.0000000000000D+00  0.0000000000000D+00
149  1.4800000000000D+00  0.0000000000000D+00  0.0000000000000D+00
150  1.4900000000000D+00  0.0000000000000D+00  0.0000000000000D+00
151  1.5000000000000D+00  0.0000000000000D+00  0.0000000000000D+00
152  1.5100000000000D+00  0.0000000000000D+00  0.0000000000000D+00
153  1.5200000000000D+00  0.0000000000000D+00  0.0000000000000D+00
154  1.5300000000000D+00  0.0000000000000D+00  0.0000000000000D+00
155  1.5400000000000D+00  0.0000000000000D+00  0.0000000000000D+00
156  1.5500000000000D+00  0.0000000000000D+00  0.0000000000000D+00
157  1.5600000000000D+00  0.0000000000000D+00  0.0000000000000D+00
158  1.5700000000000D+00  0.0000000000000D+00  0.0000000000000D+00
159  1.5800000000000D+00  0.0000000000000D+00  0.0000000000000D+00
160  1.5900000000000D+00  0.0000000000000D+00  0.0000000000000D+00
161  1.6000000000000D+00  0.0000000000000D+00  0.0000000000000D+00
162  1.6100000000000D+00  0.0000000000000D+00  0.0000000000000D+00
163  1.6200000000000D+00  0.0000000000000D+00  0.0000000000000D+00
164  1.6300000000000D+00  0.0000000000000D+00  0.0000000000000D+00
165  1.6400000000000D+00  0.0000000000000D+00  0.0000000000000D+00
166  1.6500000000000D+00  0.0000000000000D+00  0.0000000000000D+00
167  1.6600000000000D+00  0.0000000000000D+00  0.0000000000000D+00
168  1.6700000000000D+00  0.0000000000000D+00  0.0000000000000D+00
169  1.6800000000000D+00  0.0000000000000D+00  0.0000000000000D+00
170  1.6900000000000D+00  0.0000000000000D+00  0.0000000000000D+00
171  1.7000000000000D+00  0.0000000000000D+00  0.0000000000000D+00
172  1.7100000000000D+00  0.0000000000000D+00  0.0000000000000D+00
173  1.7200000000000D+00  0.0000000000000D+00  0.0000000000000D+00
174  1.7300000000000D+00  0.0000000000000D+00  0.0000000000000D+00
175  1.7400000000000D+00  0.0000000000000D+00  0.0000000000000D+00
176  1.7500000000000D+00  0.0000000000000D+00  0.0000000000000D+00
177  1.7600000000000D+00  0.0000000000000D+00  0.0000000000000D+00
178  1.7700000000000D+00  0.0000000000000D+00  0.0000000000000D+00
179  1.7800000000000D+00  0.0000000000000D+00  0.0000000000000D+00
180  1.7900000000000D+00  0.0000000000000D+00  0.0000000000000D+00
181  1.8000000000000D+00  0.0000000000000D+00  0.0000000000000D+00
182  1.8100000000000D+00  0.0000000000000D+00  0.0000000000000D+00
183  1.8200000000000D+00  0.0000000000000D+00  0.0000000000000D+00
184  1.8300000000000D+00  0.0000000000000D+00  0.0000000000000D+00
185  1.8400000000000D+00  0.0000000000000D+00  0.0000000000000D+00
186  1.8500000000000D+00  0.0000000000000D+00  0.0000000000000D+00
187  1.8600000000000D+00  0.0000000000000D+00  0.0000000000000D+00
188  1.8700000000000D+00  0.0000000000000D+00  0.0000000000000D+00
189  1.8800000000000D+00  0.0000000000000D+00  0.0000000000000D+00
190  1.8900000000000D+00  0.0000000000000D+00  0.0000000000000D+00
191  1.9000000000000D+00  0.0000000000000D+00  0.0000000000000D+00
192  1.9100000000000D+00  0.0000000000000D+00  0.0000000000000D+00
193  1.9200000000000D+00  0.0000000000000D+00  0.0000000000000D+00
194  1.9300000000000D+00  0.0000000000000D+00  0.0000000000000D+00
195  1.9400000000000D+00  0.0000000000000D+00  0.0000000000000D+00
196  1.9500000000000D+00  0.0000000000000D+00  0.0000000000000D+00
197  1.9600000000000D+00  0.0000000000000D+00  0.0000000000000D+00
198  1.9700000000000D+00  0.0000000000000D+00  0.0000000000000D+00
199  1.9800000000000D+00  0.0000000000000D+00  0.0000000000000D+00
200  1.9900000000000D+00  0.0000000000000D+00  0.0000000000000D+00
201  2.0000000000000D+00  0.0000000000000D+00  0.0000000000000D+00
202  2.0100000000000D+00  0.0000000000000D+00  0.0000000000000D+00
203  2.0200000000000D+00  0.0000000000000D+00  0.0000000000000D+00
204  2.0300000000000D+00  0.0000000000000D+00  0.0000000000000D+00
205  2.0400000000000D+00  0.0000000000000D+00  0.0000000000000D+00
206  2.0500000000000D+00  0.0000000000000D+00  0.0000000000000D+00
207  2.0600000000000D+00  0.0000000000000D+00  0.0000000000000D+00
208  2.0700000000000D+00  0.0000000000000D+00  0.0000000000000D+00
209  2.0800000000000D+00  0.0000000000000D+00  0.0000000000000D+00
210  2.0900000000000D+00  0.0000000000000D+00  0.0000000000000D+00
211  2.1000000000000D+00  0.0000000000000D+00  0.0000000000000D+00
212  2.1100000000000D+00  0.0000000000000D+00  0.0000000000000D+00
213  2.1200000000000D+00  0.0000000000000D+00  0.0000000000000D+00
214  2.1300000000000D+00  0.0000000000000D+00  0.0000000000000D+00
215  2.1400000000000D+00  0.0000000000000D+00  0.0000000000000D+00
216  2.1500000000000D+00  0.0000000000000D+00  0.0000000000000D+00
217  2.1600000000000D+00  0.0000000000000D+00  0.0000000000000D+00
218  2.1700000000000D+00  0.0000000000000D+00  0.0000000000000D+00
219  2.1800000000000D+00  0.0000000000000D+00  0.0000000000000D+00
220  2.1900000000000D+00  0.0000000000000D+00  0.0000000000000D+00
221  2.2000000000000D+00  0.0000000000000D+00  0.0000000000000D+00
222  2.2100000000000D+00  0.0000000000000D+00  0.0000000000000D+00
223  2.2200000000000D+00  0.0000000000000D+00  0.0000000000000D+00
224  2.2300000000000D+00  0.0000000000000D+00  0.0000000000000D+00
225  2.2400000000000D+00  0.0000000000000D+00  0.0000000000000D+00
226  2.2500000000000D+00  0.0000000000000D+00  0.0000000000000D+00
227  2.2600000000000D+00  0.0000000000000D+00  0.0000000000000D+00
228  2.2700000000000D+00  0.0000000000000D+00  0.0000000000000D+00
229  2.2800000000000D+00  0.0000000000000D+00  0.0000000000000D+00
230  2.2900000000000D+00  0.0000000000000D+00  0.0000000000000D+00
231  2.3000000000000D+00  0.0000000000000D+00  0.0000000000000D+00
232  2.3100000000000D+00  0.0000000000000D+00  0.0000000000000D+00
233  2.3200000000000D+00  0.0000000000000D+00  0.0000000000000D+00
234  2.3300000000000D+00  0.0000000000000D+00  0.0000000000000D+00
235  2.3400000000000D+00  0.0000000000000D+00  0.0000000000000D+00
236  2.3500000000000D+00  0.0000000000000D+00  0.0000000000000D+00
237  2.3600000000000D+00  0.0000000000000D+00  0.0000000000000D+00
238  2.3700000000000D+00  0.0000000000000D+00  0.0000000000000D+00
239  2.3800000000000D+00  0.0000000000000D+00  0.0000000000000D+00
240  2.3900000000000D+00  0.0000000000000D+00  0.0000000000000D+00
241  2.4000000000000D+00  0.0000000000000D+00  0.0000000000000D+00
242  2.4100000000000D+00  0.0000000000000D+00  0.0000000000000D+00
243  2.4200000000000D+00  0.0000000000000D+00  0.0000000000000D+00
244  2.4300000000000D+00  0.0000000000000D+00  0.0000000000000D+00
245  2.4400000000000D+00  0.0000000000000D+00  0.0000000000000D+00
246  2.4500000000000D+00  0.0000000000000D+00  0.0000000000000D+00
247  2.4600000000000D+00  0.0000000000000D+00  0.0000000000000D+00
248  2.4700000000000D+00  0.0000000000000D+00  0.0000000000000D+00
249  2.4800000000000D+00  0.0000000000000D+00  0.0000000000000D+00
250  2.4900000000000D+00  0.0000000000000D+00  0.0000000000000D+00
251  2.5000000000000D+00  0.0000000000000D+00  0.0000000000000D+00
252  2.5100000000000D+00  0.0000000000000D+00  0.0000000000000D+00
253  2.5200000000000D+00  0.0000000000000D+00  0.0000000000000D+00
254  2.5300000000000D+00  0.0000000000000D+00  0.0000000000000D+00
255  2.5400000000000D+00  0.0000000000000D+00  0.0000000000000D+00
256  2.5500000000000D+00  0.0000000000000D+00  0.0000000000000D+00
257  2.5600000000000D+00  0.0000000000000D+00  0.0000000000000D+00
258  2.5700000000000D+00  0.0000000000000D+00  0.0000000000000D+00
259  2.5800000000000D+00  0.0000000000000D+00  0.0000000000000D+00
260  2.5900000000000D+00  0.0000000000000D+00  0.0000000000000D+00
261  2.6000000000000D+00  0.0000000000000D+00  0.0000000000000D+00
262  2.6100000000000D+00  0.0000000000000D+00  0.0000000000000D+00
263  2.6200000000000D+00  0.0000000000000D+00  0.0000000000000D+00
264  2.6300000000000D+00  0.0000000000000D+00  0.0000000000000D+00
265  2.6400000000000D+00  0.0000000000000D+00  0.0000000000000D+00
266  2.6500000000000D+00  0.0000000000000D+00  0.0000000000000D+00
267  2.6600000000000D+00  0.0000000000000D+00  0.0000000000000D+00
268  2.6700000000000D+00  0.0000000000000D+00  0.0000000000000D+00
269  2.6800000000000D+00  0.0000000000000D+00  0.0000000000000D+00
270  2.6900000000000D+00  0.0000000000000D+00  0.0000000000000D+00
271  2.7000000000000D+00  0.0000000000000D+00  0.0000000000000D+00
272  2.7100000000000D+00  0.0000000000000D+00  0.0000000000000D+00
273  2.7200000000000D+00  0.0000000000000D+00  0.0000000000000D+00
274  2.7300000000000D+00  0.0000000000000D+00  0.0000000000000D+00
275  2.7400000000000D+00  0.0000000000000D+00  0.0000000000000D+00
276  2.7500000000000D+00  0.0000000000000D+00  0.0000000000000D+00
277  2.7600000000000D+00  0.0000000000000D+00  0.0000000000000D+00
278  2.7700000000000D+00  0.0000000000000D+00  0.0000000000000D+00
279  2.7800000000000D+00  0.0000000000000D+00  0.0000000000000D+00
280  2.7900000000000D+00  0.0000000000000D+00  0.0000000000000D+00
281  2.8000000000000D+00  0.0000000000000D+00  0.0000000000000D+00
282  2.8100000000000D+00  0.0000000000000D+00  0.0000000000000D+00
283  2.8200000000000D+00  0.0000000000000D+00  0.0000000000000D+00
284  2.8300000000000D+00  0.0000000000000D+00  0.0000000000000D+00
285  2.8400000000000D+00  0.0000000000000D+00  0.0000000000000D+00
286  2.8500000000000D+00  0.0000000000000D+00  0.0000000000000D+00
287  2.8600000000000D+00  0.0000000000000D+00  0.0000000000000D+00
288  2.8700000000000D+00  0.0000000000000D+00  0.0000000000000D+00
289  2.8800000000000D+00  0.0000000000000D+00  0.0000000000000D+00
290  2.8900000000000D+00  0.0000000000000D+00  0.0000000000000D+00
291  2.9000000000000D+00  0.0000000000000D+00  0.0000000000000D+00
292  2.9100000000000D+00  0.0000000000000D+00  0.0000000000000D+00
293  2.9200000000000D+00  0.0000000000000D+00  0.0000000000000D+00
294  2.9300000000000D+00  0.0000000000000D+00  0.0000000000000D+00
295  2.9400000000000D+00  0.0000000000000D+00  0.0000000000000D+00
296  2.9500000000000D+00  0.0000000000000D+00  0.0000000000000D+00
297  2.9600000000000D+00  0.0000000000000D+00  0.0000000000000D+00
298  2.9700000000000D+00  0.0000000000000D+00  0.0000000000000D+00
299  2.9800000000000D+00  0.0000000000000D+00  0.0000000000000D+00
300  2.9900000000000D+00  0.0000000000000D+00  0.0000000000000D+00
301  3.0000000000000D+00  0.0000000000000D+00  0.0000000000000D+00
302  3.0100000000000D+00  0.0000000000000D+00  0.0000000000000D+00
303  3.0200000000000D+00  0.0000000000000D+00  0.0000000000000D+00
304  3.0300000000000D+00  0.0000000000000D+00  0.0000000000000D+00
305  3.0400000000000D+00  0.0000000000000D+00  0.0000000000000D+00
306  3.0500000000000D+00  0.0000000000000D+00  0.0000000000000D+00
307  3.0600000000000D+00  0.0000000000000D+00  0.0000000000000D+00
308  3.0700000000000D+00  0.0000000000000D+00  0.0000000000000D+00
309  3.0800000000000D+00  0.0000000000000D+00  0.0000000000000D+00
310  3.0900000000000D+00  0.0000000000000D+00  0.0000000000000D+00
311  3.1000000000000D+00  0.0000000000000D+00  0.0000000000000D+00
312  3.1100000000000D+00  0.0000000000000D+00  0.0000000000000D+00
313  3.1200000000000D+00  0.0000000000000D+00  0.0000000000000D+00
314  3.1300000000000D+00  0.0000000000000D+00  0.0000000000000D+00
315  3.1400000000000D+00  0.0000000000000D+00  0.0000000000000D+00
316  3.1500000000000D+00  0.0000000000000D+00  0.0000000000000D+00
317  3.1600000000000D+00  0.0000000000000D+00  0.0000000000000D+00
318  3.1700000000000D+00  0.0000000000000D+00  0.0000000000000D+00
319  3.1800000000000D+00  0.0000000000000D+00  0.0000000000000D+00
320  3.1900000000000D+00  0.0000000000000D+00  0.0000000000000D+00
321  3.2000000000000D+00  0.0000000000000D+00  0.0000000000000D+00
322  3.2100000000000D+00  0.0000000000000D+00  0.0000000000000D+00
323  3.2200000000000D+00  0.0000000000000D+00  0.0000000000000D+00
324  3.2300000000000D+00  0.0000000000000D+00  0.0000000000000D+00
325  3.2400000000000D+00  0.0000000000000D+00  0.0000000000000D+00
326  3.2500000000000D+00  0.0000000000000D+00  0.0000000000000D+00
327  3.2600000000000D+00  0.0000000000000D+00  0.0000000000000D+00
328  3.2700000000000D+00  0.0000000000000D+00  0.0000000000000D+00
329  3.2800000000000D+00  0.0000000000000D+00  0.0000000000000D+00
330  3.2900000000000D+00  0.0000000000000D+00  0.0000000000000D+00
331  3.3000000000000D+00  0.0000000000000D+00  0.0000000000000D+00
332  3.3100000000000D+00  0.0000000000000D+00  0.0000000000000D+00
333  3.3200000000000D+00  0.0000000000000D+00  0.0000000000000D+00
334  3.3300000000000D+00  0.0000000000000D+00  0.0000000000000D+00
335  3.3400000000000D+00  0.0000000000000D+00  0.0000000000000D+00
336  3.3500000000000D+00  0.0000000000000D+00  0.0000000000000D+00
337  3.3600000000000D+00  0.0000000000000D+00  0.0000000000000D+00
338  3.3700000000000D+00  0.0000000000000D+00  0.0000000000000D+00
339  3.3800000000000D+00  0.0000000000000D+00  0.0000000000000D+00
340  3.3900000000000D+00  0.0000000000000D+00  0.0000000000000D+00
341  3.4000000000000D+00  0.0000000000000D+00  0.0000000000000D+00
342  3.4100000000000D+00  0.0000000000000D+00  0.0000000000000D+00
343  3.4200000000000D+00  0.0000000000000D+00  0.0000000000000D+00
344  3.4300000000000D+00  0.0000000000000D+00  0.0000000000000D+00
345  3.4400000000000D+00  0.0000000000000D+00  0.0000000000000D+00
346  3.4500000000000D+00  0.0000000000000D+00  0.0000000000000D+00
347  3.4600000000000D+00  0.0000000000000D+00  0.0000000000000D+00
348  3.4700000000000D+00  0.0000000000000D+00  0.0000000000000D+00
349  3.4800000000000D+00  0.0000000000000D+00  0.0000000000000D+00
350  3.4900000000000D+00  0.0000000000000D+00  0.0000000000000D+00
351  3.5000000000000D+00  0.0000000000000D+00  0.0000000000000D+00
352  3.5100000000000D+00  0.0000000000000D+00  0.0000000000000D+00
353  3.5200000000000D+00  0.0000000000000D+00  0.0000000000000D+00
354  3.5300000000000D+00  0.0000000000000D+00  0.0000000000000D+00
355  3.5400000000000D+00  0.0000000000000D+00  0.0000000000000D+00
356  3.5500000000000D+00  0.0000000000000D+00  0.0000000000000D+00
357  3.5600000000000D+00  0.0000000000000D+00  0.0000000000000D+00
358  3.5700000000000D+00  0.0000000000000D+00  0.0000000000000D+00
359  3.5800000000000D+00  0.0000000000000D+00  0.0000000000000D+00
360  3.5900000000000D+00  0.0000000000000D+00  0.0000000000000D+00
361  3.6000000000000D+00  0.0000000000000D+00  0.0000000000000D+00
362  3.6100000000000D+00  0.0000000000000D+00  0.0000000000000D+00
363  3.6200000000000D+00  0.0000000000000D+00  0.0000000000000D+00
364  3.6300000000000D+00  0.0000000000000D+00  0.0000000000000D+00
365  3.6400000000000D+00  0.0000000000000D+00  0.0000000000000D+00
366  3.6500000000000D+00  0.0000000000000D+00  0.0000000000000D+00
367  3.6600000000000D+00  0.0000000000000D+00  0.0000000000000D+00
368  3.6700000000000D+00  0.0000000000000D+00  0.0000000000000D+00
369  3.6800000000000D+00  0.0000000000000D+00  0.0000000000000D+00
370  3.6900000000000D+00  0.0000000000000D+00  0.0000000000000D+00
371  3.7000000000000D+00  0.0000000000000D+00  0.0000000000000D+00
372  3.7100000000000D+00  0.0000000000000D+00  0.0000000000000D+00
373  3.7200000000000D+00  0.0000000000000D+00  0.0000000000000D+00
374  3.7300000000000D+00  0.0000000000000D+00  0.0000000000000D+00
375  3.7400000000000D+00  0.0000000000000D+00  0.0000000000000D+00
376  3.7500000000000D+00  0.0000000000000D+00  0.0000000000000D+00
377  3.7600000000000D+00  0.0000000000000D+00  0.0000000000000D+00
378  3.7700000000000D+00  0.0000000000000D+00  0.0000000000000D+00
379  3.7800000000000D+00  0.0000000000000D+00  0.0000000000000D+00
380  3.7900000000000D+00  0.0000000000000D+00  0.0000000000000D+00
381  3.8000000000000D+00  0.0000000000000D+00  0.0000000000000D+00
382  3.8100000000000D+00  0.0000000000000D+00  0.0000000000000D+00
383  3.8200000000000D+00  0.0000000000000D+00  0.0000000000000D+00
384  3.8300000000000D+00  0.0000000000000D+00  0.0000000000000D+00
385  3.8400000000000D+00  0.0000000000000D+00  0.0000000000000D+00
386  3.8500000000000D+00  0.0000000000000D+00  0.0000000000000D+00
387  3.8600000000000D+00  0.0000000000000D+00  0.0000000000000D+00
388  3.8700000000000D+00  0.0000000000000D+00  0.0000000000000D+00
389  3.8800000000000D+00  0.0000000000000D+00  0.0000000000000D+00
390  3.8900000000000D+00  0.0000000000000D+00  0.0000000000000D+00
391  3.9000000000000D+00  0.0000000000000D+00  0.0000000000000D+00
392  3.9100000000000D+00  0.0000000000000D+00  0.0000000000000D+00
393  3.9200000000000D+00  0.0000000000000D+00  0.0000000000000D+00
394  3.9300000000000D+00  0.0000000000000D+00  0.0000000000000D+00
395  3.9400000000000D+00  0.0000000000000D+00  0.0000000000000D+00
396  3.9500000000000D+00  0.0000000000000D+00  0.0000000000000D+00
397  3.9600000000000D+00  0.0000000000000D+00  0.0000000000000D+00
398  3.9700000000000D+00  0.0000000000000D+00  0.0000000000000D+00
399  3.9800000000000D+00  0.0000000000000D+00  0.0000000000000D+00
400  3.9900000000000D+00  0.0000000000000D+00  0.0000000000000D+00
401  4.0000000000000D+00  0.0000000000000D+00  0.0000000000000D+00
402  4.0100000000000D+00  0.0000000000000D+00  0.0000000000000D+00
403  4.0200000000000D+00  0.0000000000000D+00  0.0000000000000D+00
404  4.0300000000000D+00  0.0000000000000D+00  0.0000000000000D+00
405  4.0400000000000D+00  0.0000000000000D+00  0.0000000000000D+00
406  4.0500000000000D+00  0.0000000000000D+00  0.0000000000000D+00
407  4.0600000000000D+00  0.0000000000000D+00  0.0000000000000D+00
408  4.0700000000000D+00  0.0000000000000D+00  0.0000000000000D+00
409  4.0800000000000D+00  0.0000000000000D+00  0.0000000000000D+00
410  4.0900000000000D+00  0.0000000000000D+00  0.0000000000000D+00
411  4.1000000000000D+00  0.0000000000000D+00  0.0000000000000D+00
412  4.1100000000000D+00  0.0000000000000D+00  0.0000000000000D+00
413  4.1200000000000D+00  0.0000000000000D+00  0.0000000000000D+00
414  4.1300000000000D+00  0.0000000000000D+00  0.0000000000000D+00
415  4.1400000000000D+00  0.0000000000000D+00  0.0000000000000D+00
416  4.1500000000000D+00  0.0000000000000D+00  0.0000000000000D+00
417  4.1600000000000D+00  0.0000000000000D+00  0.0000000000000D+00
418  4.1700000000000D+00  0.0000000000000D+00  0.0000000000000D+00
419  4.1800000000000D+00  0.0000000000000D+00  0.0000000000000D+00
420  4.1900000000000D+00  0.0000000000000D+00  0.0000000000000D+00
421  4.2000000000000D+00  0.0000000000000D+00  0.0000000000000D+00
422  4.2100000000000D+00  0.0000000000000D+00  0.0000000000000D+00
423  4.2200000000000D+00  0.0000000000000D+00  0.0000000000000D+00
424  4.2300000000000D+00  0.0000000000000D+00  0.0000000000000D+00
425  4.2400000000000D+00  0.0000000000000D+00  0.0000000000000D+00
426  4.2500000000000D+00  0.0000000000000D+00  0.0000000000000D+00
427  4.2600000000000D+00  0.0000000000000D+00  0.0000000000000D+00
428  4.2700000000000D+00  0.0000000000000D+00  0.0000000000000D+00
429  4.2800000000000D+00  0.0000000000000D+00  0.0000000000000D+00
430  4.2900000000000D+00  0.0000000000000D+00  0.0000000000000D+00
431  4.3000000000000D+00  0.0000000000000D+00  0.0000000000000D+00
432  4.3100000000000D+00  0.0000000000000D+00  0.0000000000000D+00
433  4.3200000000000D+00  0.0000000000000D+00  0.0000000000000D+00
434  4.3300000000000D+00  0.0000000000000D+00  0.0000000000000D+00
435  4.3400000000000D+00  0.0000000000000D+00  0.0000000000000D+00
436  4.3500000000000D+00  0.0000000000000D+00  0.0000000000000D+00
437  4.3600000000000D+00  0.0000000000000D+00  0.0000000000000D+00
438  4.3700000000000D+00  0.0000000000000D+00  0.0000000000000D+00
439  4.3800000000000D+00  0.0000000000000D+00  0.0000000000000D+00
440  4.3900000000000D+00  0.0000000000000D+00  0.0000000000000D+00
441  4.4000000000000D+00  0.0000000000000D+00  0.0000000000000D+00
442  4.4100000000000D+00  0.0000000000000D+00  0.0000000000000D+00
443  4.4200000000000D+00  0.0000000000000D+00  0.0000000000000D+00
444  4.4300000000000D+00  0.0000000000000D+00  0.0000000000000D+00