F     ONCVPSP  r_core=  1.41  1.60  1.70
9.0000      7.0000      160626    zatom,zion,pspd
8      11   2     4   600     0    pspcod,pspxc,lmax,lloc,mmax,r2well
5.99000000  4.00000000  0.00000000    rchrg fchrg qchrg
2     2     1     0     0    nproj
1                 extension_switch
0                         8.1415380888442D+00  1.1313673916090D+00
1  0.0000000000000D+00 -4.6393056063465D-10  1.6204165786959D-09
2  1.0000000000000D-02  1.0037092687742D-01 -5.2093044497326D-02
3  2.0000000000000D-02  2.0039146602329D-01 -1.0371160091952D-01
4  3.0000000000000D-02  2.9971305249316D-01 -1.5438519120713D-01
5  4.0000000000000D-02  3.9799075365584D-01 -2.0365131758760D-01
6  5.0000000000000D-02  4.9488505231640D-01 -2.5105935377103D-01
7  6.0000000000000D-02  5.9006359052848D-01 -2.9617431856362D-01
8  7.0000000000000D-02  6.8320286154025D-01 -3.3858049461862D-01
9  8.0000000000000D-02  7.7398983778157D-01 -3.7788485666556D-01
10  9.0000000000000D-02  8.6212352337378D-01 -4.1372027555763D-01
11  1.0000000000000D-01  9.4731642032087D-01 -4.4574846683950D-01
12  1.1000000000000D-01  1.0292958983187D+00 -4.7366265524060D-01
13  1.2000000000000D-01  1.1078054589888D+00 -4.9718992951934D-01
14  1.3000000000000D-01  1.1826058862985D+00 -5.1609326539294D-01
15  1.4000000000000D-01  1.2534762759637D+00 -5.3017319785393D-01
16  1.5000000000000D-01  1.3202149377274D+00 -5.3926912796423D-01
17  1.6000000000000D-01  1.3826401655689D+00 -5.4326025319090D-01
18  1.7000000000000D-01  1.4405908721003D+00 -5.4206611446404D-01
19  1.8000000000000D-01  1.4939270846435D+00 -5.3564675735265D-01
20  1.9000000000000D-01  1.5425303017435D+00 -5.2400250901955D-01
21  2.0000000000000D-01  1.5863037101364D+00 -5.0717337688578D-01
22  2.1000000000000D-01  1.6251722634531D+00 -4.8523807915398D-01
23  2.2000000000000D-01  1.6590826251768D+00 -4.5831272145903D-01
24  2.3000000000000D-01  1.6880029795775D+00 -4.2654913787989D-01
25  2.4000000000000D-01  1.7119227154964D+00 -3.9013291830535D-01
26  2.5000000000000D-01  1.7308519889422D+00 -3.4928114764854D-01
27  2.6000000000000D-01  1.7448211714701D+00 -3.0423988559928D-01
28  2.7000000000000D-01  1.7538801922263D+00 -2.5528141844308D-01
29  2.8000000000000D-01  1.7580977823549D+00 -2.0270131691788D-01
30  2.9000000000000D-01  1.7575606311525D+00 -1.4681533608330D-01
31  3.0000000000000D-01  1.7523724639277D+00 -8.7956194710858D-02
32  3.1000000000000D-01  1.7426530519474D+00 -2.6470272736521D-02
33  3.2000000000000D-01  1.7285371651495D+00  3.7285734168755D-02
34  3.3000000000000D-01  1.7101734784387D+00  1.0294816387572D-01
35  3.4000000000000D-01  1.6877234423855D+00  1.7014970244428D-01
36  3.5000000000000D-01  1.6613601289934D+00  2.3852262675955D-01
37  3.6000000000000D-01  1.6312670629093D+00  3.0770193939070D-01
38  3.7000000000000D-01  1.5976370480168D+00  3.7732836202412D-01
39  3.8000000000000D-01  1.5606709987914D+00  4.4705115640891D-01
40  3.9000000000000D-01  1.5205767851155D+00  5.1653074476905D-01
41  4.0000000000000D-01  1.4775680984616D+00  5.8544110503238D-01
42  4.1000000000000D-01  1.4318633464782D+00  6.5347191994600D-01
43  4.2000000000000D-01  1.3836845820589D+00  7.2033046312571D-01
44  4.3000000000000D-01  1.3332564719773D+00  7.8574320925101D-01
45  4.4000000000000D-01  1.2808053091330D+00  8.4945715989331D-01
46  4.5000000000000D-01  1.2265580714128D+00  9.1124088076859D-01
47  4.6000000000000D-01  1.1707415291430D+00  9.7088525045704D-01
48  4.7000000000000D-01  1.1135814021151D+00  1.0282039247428D+00
49  4.8000000000000D-01  1.0553015662406D+00  1.0830335246141D+00
50  4.9000000000000D-01  9.9612330904084D-01  1.1352335595462D+00
51  5.0000000000000D-01  9.3626463243931D-01  1.1846861008823D+00
52  5.1000000000000D-01  8.7593960070693D-01  1.2312952228679D+00
53  5.2000000000000D-01  8.1535773093904D-01  1.2749862311024D+00
54  5.3000000000000D-01  7.5472342312975D-01  1.3157046998021D+00
55  5.4000000000000D-01  6.9423542676708D-01  1.3534153402652D+00
56  5.5000000000000D-01  6.3408634091111D-01  1.3881007232635D+00
57  5.6000000000000D-01  5.7446214494180D-01  1.4197598777228D+00
58  5.7000000000000D-01  5.1554175757569D-01  1.4484067869977D+00
59  5.8000000000000D-01  4.5749662234831D-01  1.4740688022884D+00
60  5.9000000000000D-01  4.0049031853493D-01  1.4967849903140D+00
61  6.0000000000000D-01  3.4467819742718D-01  1.5166044292771D+00
62  6.1000000000000D-01  2.9020704498018D-01  1.5335844634738D+00
63  6.2000000000000D-01  2.3721477307420D-01  1.5477889226994D+00
64  6.3000000000000D-01  1.8583014298285D-01  1.5592863079029D+00
65  6.4000000000000D-01  1.3617252606099D-01  1.5681479395183D+00
66  6.5000000000000D-01  8.8351708157908D-02  1.5744460595441D+00
67  6.6000000000000D-01  4.2467745771250D-02  1.5782518729407D+00
68  6.7000000000000D-01 -1.3891165445025D-03  1.5796335083657D+00
69  6.8000000000000D-01 -4.3138456530689D-02  1.5786538727298D+00
70  6.9000000000000D-01 -8.2709599974105D-02  1.5753683687325D+00
71  7.0000000000000D-01 -1.2004144821385D-01  1.5698224395015D+00
72  7.1000000000000D-01 -1.5508219263854D-01  1.5620488998344D+00
73  7.2000000000000D-01 -1.8778890045302D-01  1.5520650094389D+00
74  7.3000000000000D-01 -2.1812695524338D-01  1.5398692399655D+00
75  7.4000000000000D-01 -2.4606933464618D-01  1.5254376764082D+00
76  7.5000000000000D-01 -2.7159571761800D-01  1.5087201319592D+00
77  7.6000000000000D-01 -2.9469135439018D-01  1.4896351989277D+00
78  7.7000000000000D-01 -3.1534635257850D-01  1.4680738891817D+00
79  7.8000000000000D-01 -3.3355686184037D-01  1.4439260379553D+00
80  7.9000000000000D-01 -3.4932647006447D-01  1.4170974886179D+00
81  8.0000000000000D-01 -3.6266683268391D-01  1.3875123714393D+00
82  8.1000000000000D-01 -3.7359826975158D-01  1.3551157306204D+00
83  8.2000000000000D-01 -3.8215028742460D-01  1.3198757784234D+00
84  8.3000000000000D-01 -3.8836201754474D-01  1.2817858974502D+00
85  8.4000000000000D-01 -3.9228256395002D-01  1.2408663519512D+00
86  8.5000000000000D-01 -3.9397124466377D-01  1.1971656661448D+00
87  8.6000000000000D-01 -3.9349772077467D-01  1.1507616360749D+00
88  8.7000000000000D-01 -3.9094200447366D-01  1.1017619470843D+00
89  8.8000000000000D-01 -3.8639434051014D-01  1.0503043749661D+00
90  8.9000000000000D-01 -3.7995495725110D-01  9.9655655526986D-01
91  9.0000000000000D-01 -3.7173368554597D-01  9.4071531200028D-01
92  9.1000000000000D-01 -3.6184944566522D-01  8.8300554381021D-01
93  9.2000000000000D-01 -3.5042960468410D-01  8.2367867283541D-01
94  9.3000000000000D-01 -3.3760920878088D-01  7.6301066835615D-01
95  9.4000000000000D-01 -3.2353009696775D-01  7.0129966431821D-01
96  9.5000000000000D-01 -3.0833990475789D-01  6.3886319643253D-01
97  9.6000000000000D-01 -2.9219096815396D-01  5.7603509092586D-01
98  9.7000000000000D-01 -2.7523914008378D-01  5.1316204288463D-01
99  9.8000000000000D-01 -2.5764253300766D-01  4.5059992759966D-01
100  9.9000000000000D-01 -2.3956020277988D-01  3.8870989293382D-01
101  1.0000000000000D+00 -2.2115079008285D-01  3.2785428501889D-01
102  1.0100000000000D+00 -2.0257113667050D-01  2.6839246280432D-01
103  1.0200000000000D+00 -1.8397489437208D-01  2.1067655952035D-01
104  1.0300000000000D+00 -1.6551114525523D-01  1.5504725080251D-01
105  1.0400000000000D+00 -1.4732305151290D-01  1.0182958999396D-01
106  1.0500000000000D+00 -1.2954655354562D-01  5.1328971012795D-02
107  1.0600000000000D+00 -1.1230913434825D-01  3.8272782201715D-03
108  1.0700000000000D+00 -9.5728667632118D-02 -4.0420719322108D-02
109  1.0800000000000D+00 -7.9912366234713D-02 -8.1190674502244D-02
110  1.0900000000000D+00 -6.4955846117216D-02 -1.1829161892432D-01
111  1.1000000000000D+00 -5.0942319999233D-02 -1.5156852294382D-01
112  1.1100000000000D+00 -3.7941932932303D-02 -1.8090441768414D-01
113  1.1200000000000D+00 -2.6011250315059D-02 -2.0622204348859D-01
114  1.1300000000000D+00 -1.5192906829660D-02 -2.2748499575986D-01
115  1.1400000000000D+00 -5.5154226956621D-03 -2.4469834585173D-01
116  1.1500000000000D+00  3.0068084792118D-03 -2.5790872149439D-01
117  1.1600000000000D+00  1.0373358633306D-02 -2.6720383986244D-01
118  1.1700000000000D+00  1.6597431604586D-02 -2.7271149370025D-01
119  1.1800000000000D+00  2.1705359645553D-02 -2.7459799776052D-01
120  1.1900000000000D+00  2.5735935489240D-02 -2.7306611142654D-01
121  1.2000000000000D+00  2.8739587733418D-02 -2.6835246114880D-01
122  1.2100000000000D+00  3.0777409575941D-02 -2.6072449373751D-01
123  1.2200000000000D+00  3.1920052193371D-02 -2.5047699562691D-01
124  1.2300000000000D+00  3.2246497395556D-02 -2.3792822425340D-01
125  1.2400000000000D+00  3.1842725092139D-02 -2.2341570061862D-01
126  1.2500000000000D+00  3.0800292279588D-02 -2.0729171589388D-01
127  1.2600000000000D+00  2.9214842558622D-02 -1.8991861262033D-01
128  1.2700000000000D+00  2.7184565726376D-02 -1.7166390286974D-01
129  1.2800000000000D+00  2.4808627895908D-02 -1.5289528903242D-01
130  1.2900000000000D+00  2.2185592665383D-02 -1.3397565218489D-01
131  1.3000000000000D+00  1.9411854386701D-02 -1.1525807577746D-01
132  1.3100000000000D+00  1.6580105301635D-02 -9.7080975090467D-02
133  1.3200000000000D+00  1.3777856815043D-02 -7.9763396907615D-02
134  1.3300000000000D+00  1.1086034106625D-02 -6.3600551279016D-02
135  1.3400000000000D+00  8.5776645958197D-03 -4.8859641519066D-02
136  1.3500000000000D+00  6.3166771904270D-03 -3.5776046883707D-02
137  1.3600000000000D+00  4.3574842481155D-03 -2.4553476335691D-02
138  1.3700000000000D+00  2.7416915213885D-03 -1.5348185681331D-02
139  1.3800000000000D+00  1.4908043209893D-03 -8.2333831099706D-03
140  1.3900000000000D+00  6.5110635123290D-04 -3.4328338672190D-03
141  1.4000000000000D+00  2.3744073146612D-04 -1.0235293818517D-03
142  1.4100000000000D+00  7.5662734548082D-05 -1.7109476248085D-04
143  1.4200000000000D+00  1.0185449741835D-05  1.2979088559813D-06
144  1.4300000000000D+00 -4.2768135478208D-06 -9.3871449268091D-06
145  1.4400000000000D+00 -2.5152160990754D-07 -1.1790952476823D-06
146  1.4500000000000D+00  1.2232114044333D-06  3.2114903412411D-07
147  1.4600000000000D+00 -1.4537239267424D-07  4.4279400723883D-07
148  1.4700000000000D+00 -2.6069965525610D-07  7.9407267716442D-07
149  1.4800000000000D+00  0.0000000000000D+00  0.0000000000000D+00
150  1.4900000000000D+00  0.0000000000000D+00  0.0000000000000D+00
151  1.5000000000000D+00  0.0000000000000D+00  0.0000000000000D+00
152  1.5100000000000D+00  0.0000000000000D+00  0.0000000000000D+00
153  1.5200000000000D+00  0.0000000000000D+00  0.0000000000000D+00
154  1.5300000000000D+00  0.0000000000000D+00  0.0000000000000D+00
155  1.5400000000000D+00  0.0000000000000D+00  0.0000000000000D+00
156  1.5500000000000D+00  0.0000000000000D+00  0.0000000000000D+00
157  1.5600000000000D+00  0.0000000000000D+00  0.0000000000000D+00
158  1.5700000000000D+00  0.0000000000000D+00  0.0000000000000D+00
159  1.5800000000000D+00  0.0000000000000D+00  0.0000000000000D+00
160  1.5900000000000D+00  0.0000000000000D+00  0.0000000000000D+00
161  1.6000000000000D+00  0.0000000000000D+00  0.0000000000000D+00
162  1.6100000000000D+00  0.0000000000000D+00  0.0000000000000D+00
163  1.6200000000000D+00  0.0000000000000D+00  0.0000000000000D+00
164  1.6300000000000D+00  0.0000000000000D+00  0.0000000000000D+00
165  1.6400000000000D+00  0.0000000000000D+00  0.0000000000000D+00
166  1.6500000000000D+00  0.0000000000000D+00  0.0000000000000D+00
167  1.6600000000000D+00  0.0000000000000D+00  0.0000000000000D+00
168  1.6700000000000D+00  0.0000000000000D+00  0.0000000000000D+00
169  1.6800000000000D+00  0.0000000000000D+00  0.0000000000000D+00
170  1.6900000000000D+00  0.0000000000000D+00  0.0000000000000D+00
171  1.7000000000000D+00  0.0000000000000D+00  0.0000000000000D+00
172  1.7100000000000D+00  0.0000000000000D+00  0.0000000000000D+00
173  1.7200000000000D+00  0.0000000000000D+00  0.0000000000000D+00
174  1.7300000000000D+00  0.0000000000000D+00  0.0000000000000D+00
175  1.7400000000000D+00  0.0000000000000D+00  0.0000000000000D+00
176  1.7500000000000D+00  0.0000000000000D+00  0.0000000000000D+00
177  1.7600000000000D+00  0.0000000000000D+00  0.0000000000000D+00
178  1.7700000000000D+00  0.0000000000000D+00  0.0000000000000D+00
179  1.7800000000000D+00  0.0000000000000D+00  0.0000000000000D+00
180  1.7900000000000D+00  0.0000000000000D+00  0.0000000000000D+00
181  1.8000000000000D+00  0.0000000000000D+00  0.0000000000000D+00
182  1.8100000000000D+00  0.0000000000000D+00  0.0000000000000D+00
183  1.8200000000000D+00  0.0000000000000D+00  0.0000000000000D+00
184  1.8300000000000D+00  0.0000000000000D+00  0.0000000000000D+00
185  1.8400000000000D+00  0.0000000000000D+00  0.0000000000000D+00
186  1.8500000000000D+00  0.0000000000000D+00  0.0000000000000D+00
187  1.8600000000000D+00  0.0000000000000D+00  0.0000000000000D+00
188  1.8700000000000D+00  0.0000000000000D+00  0.0000000000000D+00
189  1.8800000000000D+00  0.0000000000000D+00  0.0000000000000D+00
190  1.8900000000000D+00  0.0000000000000D+00  0.0000000000000D+00
191  1.9000000000000D+00  0.0000000000000D+00  0.0000000000000D+00
192  1.9100000000000D+00  0.0000000000000D+00  0.0000000000000D+00
193  1.9200000000000D+00  0.0000000000000D+00  0.0000000000000D+00
194  1.9300000000000D+00  0.0000000000000D+00  0.0000000000000D+00
195  1.9400000000000D+00  0.0000000000000D+00  0.0000000000000D+00
196  1.9500000000000D+00  0.0000000000000D+00  0.0000000000000D+00
197  1.9600000000000D+00  0.0000000000000D+00  0.0000000000000D+00
198  1.9700000000000D+00  0.0000000000000D+00  0.0000000000000D+00
199  1.9800000000000D+00  0.0000000000000D+00  0.0000000000000D+00
200  1.9900000000000D+00  0.0000000000000D+00  0.0000000000000D+00
201  2.0000000000000D+00  0.0000000000000D+00  0.0000000000000D+00
202  2.0100000000000D+00  0.0000000000000D+00  0.0000000000000D+00
203  2.0200000000000D+00  0.0000000000000D+00  0.0000000000000D+00
204  2.0300000000000D+00  0.0000000000000D+00  0.0000000000000D+00
205  2.0400000000000D+00  0.0000000000000D+00  0.0000000000000D+00
206  2.0500000000000D+00  0.0000000000000D+00  0.0000000000000D+00
207  2.0600000000000D+00  0.0000000000000D+00  0.0000000000000D+00
208  2.0700000000000D+00  0.0000000000000D+00  0.0000000000000D+00
209  2.0800000000000D+00  0.0000000000000D+00  0.0000000000000D+00
210  2.0900000000000D+00  0.0000000000000D+00  0.0000000000000D+00
211  2.1000000000000D+00  0.0000000000000D+00  0.0000000000000D+00
212  2.1100000000000D+00  0.0000000000000D+00  0.0000000000000D+00
213  2.1200000000000D+00  0.0000000000000D+00  0.0000000000000D+00
214  2.1300000000000D+00  0.0000000000000D+00  0.0000000000000D+00
215  2.1400000000000D+00  0.0000000000000D+00  0.0000000000000D+00
216  2.1500000000000D+00  0.0000000000000D+00  0.0000000000000D+00
217  2.1600000000000D+00  0.0000000000000D+00  0.0000000000000D+00
218  2.1700000000000D+00  0.0000000000000D+00  0.0000000000000D+00
219  2.1800000000000D+00  0.0000000000000D+00  0.0000000000000D+00
220  2.1900000000000D+00  0.0000000000000D+00  0.0000000000000D+00
221  2.2000000000000D+00  0.0000000000000D+00  0.0000000000000D+00
222  2.2100000000000D+00  0.0000000000000D+00  0.0000000000000D+00
223  2.2200000000000D+00  0.0000000000000D+00  0.0000000000000D+00
224  2.2300000000000D+00  0.0000000000000D+00  0.0000000000000D+00
225  2.2400000000000D+00  0.0000000000000D+00  0.0000000000000D+00
226  2.2500000000000D+00  0.0000000000000D+00  0.0000000000000D+00
227  2.2600000000000D+00  0.0000000000000D+00  0.0000000000000D+00
228  2.2700000000000D+00  0.0000000000000D+00  0.0000000000000D+00
229  2.2800000000000D+00  0.0000000000000D+00  0.0000000000000D+00
230  2.2900000000000D+00  0.0000000000000D+00  0.0000000000000D+00
231  2.3000000000000D+00  0.0000000000000D+00  0.0000000000000D+00
232  2.3100000000000D+00  0.0000000000000D+00  0.0000000000000D+00
233  2.3200000000000D+00  0.0000000000000D+00  0.0000000000000D+00
234  2.3300000000000D+00  0.0000000000000D+00  0.0000000000000D+00
235  2.3400000000000D+00  0.0000000000000D+00  0.0000000000000D+00
236  2.3500000000000D+00  0.0000000000000D+00  0.0000000000000D+00
237  2.3600000000000D+00  0.0000000000000D+00  0.0000000000000D+00
238  2.3700000000000D+00  0.0000000000000D+00  0.0000000000000D+00
239  2.3800000000000D+00  0.0000000000000D+00  0.0000000000000D+00
240  2.3900000000000D+00  0.0000000000000D+00  0.0000000000000D+00
241  2.4000000000000D+00  0.0000000000000D+00  0.0000000000000D+00
242  2.4100000000000D+00  0.0000000000000D+00  0.0000000000000D+00
243  2.4200000000000D+00  0.0000000000000D+00  0.0000000000000D+00
244  2.4300000000000D+00  0.0000000000000D+00  0.0000000000000D+00
245  2.4400000000000D+00  0.0000000000000D+00  0.0000000000000D+00
246  2.4500000000000D+00  0.0000000000000D+00  0.0000000000000D+00
247  2.4600000000000D+00  0.0000000000000D+00  0.0000000000000D+00
248  2.4700000000000D+00  0.0000000000000D+00  0.0000000000000D+00
249  2.4800000000000D+00  0.0000000000000D+00  0.0000000000000D+00
250  2.4900000000000D+00  0.0000000000000D+00  0.0000000000000D+00
251  2.5000000000000D+00  0.0000000000000D+00  0.0000000000000D+00
252  2.5100000000000D+00  0.0000000000000D+00  0.0000000000000D+00
253  2.5200000000000D+00  0.0000000000000D+00  0.0000000000000D+00
254  2.5300000000000D+00  0.0000000000000D+00  0.0000000000000D+00
255  2.5400000000000D+00  0.0000000000000D+00  0.0000000000000D+00
256  2.5500000000000D+00  0.0000000000000D+00  0.0000000000000D+00
257  2.5600000000000D+00  0.0000000000000D+00  0.0000000000000D+00
258  2.5700000000000D+00  0.0000000000000D+00  0.0000000000000D+00
259  2.5800000000000D+00  0.0000000000000D+00  0.0000000000000D+00
260  2.5900000000000D+00  0.0000000000000D+00  0.0000000000000D+00
261  2.6000000000000D+00  0.0000000000000D+00  0.0000000000000D+00
262  2.6100000000000D+00  0.0000000000000D+00  0.0000000000000D+00
263  2.6200000000000D+00  0.0000000000000D+00  0.0000000000000D+00
264  2.6300000000000D+00  0.0000000000000D+00  0.0000000000000D+00
265  2.6400000000000D+00  0.0000000000000D+00  0.0000000000000D+00
266  2.6500000000000D+00  0.0000000000000D+00  0.0000000000000D+00
267  2.6600000000000D+00  0.0000000000000D+00  0.0000000000000D+00
268  2.6700000000000D+00  0.0000000000000D+00  0.0000000000000D+00
269  2.6800000000000D+00  0.0000000000000D+00  0.0000000000000D+00
270  2.6900000000000D+00  0.0000000000000D+00  0.0000000000000D+00
271  2.7000000000000D+00  0.0000000000000D+00  0.0000000000000D+00
272  2.7100000000000D+00  0.0000000000000D+00  0.0000000000000D+00
273  2.7200000000000D+00  0.0000000000000D+00  0.0000000000000D+00
274  2.7300000000000D+00  0.0000000000000D+00  0.0000000000000D+00
275  2.7400000000000D+00  0.0000000000000D+00  0.0000000000000D+00
276  2.7500000000000D+00  0.0000000000000D+00  0.0000000000000D+00
277  2.7600000000000D+00  0.0000000000000D+00  0.0000000000000D+00
278  2.7700000000000D+00  0.0000000000000D+00  0.0000000000000D+00
279  2.7800000000000D+00  0.0000000000000D+00  0.0000000000000D+00
280  2.7900000000000D+00  0.0000000000000D+00  0.0000000000000D+00
281  2.8000000000000D+00  0.0000000000000D+00  0.0000000000000D+00
282  2.8100000000000D+00  0.0000000000000D+00  0.0000000000000D+00
283  2.8200000000000D+00  0.0000000000000D+00  0.0000000000000D+00
284  2.8300000000000D+00  0.0000000000000D+00  0.0000000000000D+00
285  2.8400000000000D+00  0.0000000000000D+00  0.0000000000000D+00
286  2.8500000000000D+00  0.0000000000000D+00  0.0000000000000D+00
287  2.8600000000000D+00  0.0000000000000D+00  0.0000000000000D+00
288  2.8700000000000D+00  0.0000000000000D+00  0.0000000000000D+00
289  2.8800000000000D+00  0.0000000000000D+00  0.0000000000000D+00
290  2.8900000000000D+00  0.0000000000000D+00  0.0000000000000D+00
291  2.9000000000000D+00  0.0000000000000D+00  0.0000000000000D+00
292  2.9100000000000D+00  0.0000000000000D+00  0.0000000000000D+00
293  2.9200000000000D+00  0.0000000000000D+00  0.0000000000000D+00
294  2.9300000000000D+00  0.0000000000000D+00  0.0000000000000D+00
295  2.9400000000000D+00  0.0000000000000D+00  0.0000000000000D+00
296  2.9500000000000D+00  0.0000000000000D+00  0.0000000000000D+00
297  2.9600000000000D+00  0.0000000000000D+00  0.0000000000000D+00
298  2.9700000000000D+00  0.0000000000000D+00  0.0000000000000D+00
299  2.9800000000000D+00  0.0000000000000D+00  0.0000000000000D+00
300  2.9900000000000D+00  0.0000000000000D+00  0.0000000000000D+00
301  3.0000000000000D+00  0.0000000000000D+00  0.0000000000000D+00
302  3.0100000000000D+00  0.0000000000000D+00  0.0000000000000D+00
303  3.0200000000000D+00  0.0000000000000D+00  0.0000000000000D+00
304  3.0300000000000D+00  0.0000000000000D+00  0.0000000000000D+00
305  3.0400000000000D+00  0.0000000000000D+00  0.0000000000000D+00
306  3.0500000000000D+00  0.0000000000000D+00  0.0000000000000D+00
307  3.0600000000000D+00  0.0000000000000D+00  0.0000000000000D+00
308  3.0700000000000D+00  0.0000000000000D+00  0.0000000000000D+00
309  3.0800000000000D+00  0.0000000000000D+00  0.0000000000000D+00
310  3.0900000000000D+00  0.0000000000000D+00  0.0000000000000D+00
311  3.1000000000000D+00  0.0000000000000D+00  0.0000000000000D+00
312  3.1100000000000D+00  0.0000000000000D+00  0.0000000000000D+00
313  3.1200000000000D+00  0.0000000000000D+00  0.0000000000000D+00
314  3.1300000000000D+00  0.0000000000000D+00  0.0000000000000D+00
315  3.1400000000000D+00  0.0000000000000D+00  0.0000000000000D+00
316  3.1500000000000D+00  0.0000000000000D+00  0.0000000000000D+00
317  3.1600000000000D+00  0.0000000000000D+00  0.0000000000000D+00
318  3.1700000000000D+00  0.0000000000000D+00  0.0000000000000D+00
319  3.1800000000000D+00  0.0000000000000D+00  0.0000000000000D+00
320  3.1900000000000D+00  0.0000000000000D+00  0.0000000000000D+00
321  3.2000000000000D+00  0.0000000000000D+00  0.0000000000000D+00
322  3.2100000000000D+00  0.0000000000000D+00  0.0000000000000D+00
323  3.2200000000000D+00  0.0000000000000D+00  0.0000000000000D+00
324  3.2300000000000D+00  0.0000000000000D+00  0.0000000000000D+00
325  3.2400000000000D+00  0.0000000000000D+00  0.0000000000000D+00
326  3.2500000000000D+00  0.0000000000000D+00  0.0000000000000D+00
327  3.2600000000000D+00  0.0000000000000D+00  0.0000000000000D+00
328  3.2700000000000D+00  0.0000000000000D+00  0.0000000000000D+00
329  3.2800000000000D+00  0.0000000000000D+00  0.0000000000000D+00
330  3.2900000000000D+00  0.0000000000000D+00  0.0000000000000D+00
331  3.3000000000000D+00  0.0000000000000D+00  0.0000000000000D+00
332  3.3100000000000D+00  0.0000000000000D+00  0.0000000000000D+00
333  3.3200000000000D+00  0.0000000000000D+00  0.0000000000000D+00
334  3.3300000000000D+00  0.0000000000000D+00  0.0000000000000D+00
335  3.3400000000000D+00  0.0000000000000D+00  0.0000000000000D+00
336  3.3500000000000D+00  0.0000000000000D+00  0.0000000000000D+00
337  3.3600000000000D+00  0.0000000000000D+00  0.0000000000000D+00
338  3.3700000000000D+00  0.0000000000000D+00  0.0000000000000D+00
339  3.3800000000000D+00  0.0000000000000D+00  0.0000000000000D+00
340  3.3900000000000D+00  0.0000000000000D+00  0.0000000000000D+00
341  3.4000000000000D+00  0.0000000000000D+00  0.0000000000000D+00
342  3.4100000000000D+00  0.0000000000000D+00  0.0000000000000D+00
343  3.4200000000000D+00  0.0000000000000D+00  0.0000000000000D+00
344  3.4300000000000D+00  0.0000000000000D+00  0.0000000000000D+00
345  3.4400000000000D+00  0.0000000000000D+00  0.0000000000000D+00
346  3.4500000000000D+00  0.0000000000000D+00  0.0000000000000D+00
347  3.4600000000000D+00  0.0000000000000D+00  0.0000000000000D+00
348  3.4700000000000D+00  0.0000000000000D+00  0.0000000000000D+00
349  3.4800000000000D+00  0.0000000000000D+00  0.0000000000000D+00
350  3.4900000000000D+00  0.0000000000000D+00  0.0000000000000D+00
351  3.5000000000000D+00  0.0000000000000D+00  0.0000000000000D+00
352  3.5100000000000D+00  0.0000000000000D+00  0.0000000000000D+00
353  3.5200000000000D+00  0.0000000000000D+00  0.0000000000000D+00
354  3.5300000000000D+00  0.0000000000000D+00  0.0000000000000D+00
355  3.5400000000000D+00  0.0000000000000D+00  0.0000000000000D+00
356  3.5500000000000D+00  0.0000000000000D+00  0.0000000000000D+00
357  3.5600000000000D+00  0.0000000000000D+00  0.0000000000000D+00
358  3.5700000000000D+00  0.0000000000000D+00  0.0000000000000D+00
359  3.5800000000000D+00  0.0000000000000D+00  0.0000000000000D+00
360  3.5900000000000D+00  0.0000000000000D+00  0.0000000000000D+00
361  3.6000000000000D+00  0.0000000000000D+00  0.0000000000000D+00
362  3.6100000000000D+00  0.0000000000000D+00  0.0000000000000D+00
363  3.6200000000000D+00  0.0000000000000D+00  0.0000000000000D+00
364  3.6300000000000D+00  0.0000000000000D+00  0.0000000000000D+00
365  3.6400000000000D+00  0.0000000000000D+00  0.0000000000000D+00
366  3.6500000000000D+00  0.0000000000000D+00  0.0000000000000D+00
367  3.6600000000000D+00  0.0000000000000D+00  0.0000000000000D+00
368  3.6700000000000D+00  0.0000000000000D+00  0.0000000000000D+00
369  3.6800000000000D+00  0.0000000000000D+00  0.0000000000000D+00
370  3.6900000000000D+00  0.0000000000000D+00  0.0000000000000D+00
371  3.7000000000000D+00  0.0000000000000D+00  0.0000000000000D+00
372  3.7100000000000D+00  0.0000000000000D+00  0.0000000000000D+00
373  3.7200000000000D+00  0.0000000000000D+00  0.0000000000000D+00
374  3.7300000000000D+00  0.0000000000000D+00  0.0000000000000D+00
375  3.7400000000000D+00  0.0000000000000D+00  0.0000000000000D+00
376  3.7500000000000D+00  0.0000000000000D+00  0.0000000000000D+00
377  3.7600000000000D+00  0.0000000000000D+00  0.0000000000000D+00
378  3.7700000000000D+00  0.0000000000000D+00  0.0000000000000D+00
379  3.7800000000000D+00  0.0000000000000D+00  0.0000000000000D+00
380  3.7900000000000D+00  0.0000000000000D+00  0.0000000000000D+00
381  3.8000000000000D+00  0.0000000000000D+00  0.0000000000000D+00
382  3.8100000000000D+00  0.0000000000000D+00  0.0000000000000D+00
383  3.8200000000000D+00  0.0000000000000D+00  0.0000000000000D+00
384  3.8300000000000D+00  0.0000000000000D+00  0.0000000000000D+00
385  3.8400000000000D+00  0.0000000000000D+00  0.0000000000000D+00
386  3.8500000000000D+00  0.0000000000000D+00  0.0000000000000D+00
387  3.8600000000000D+00  0.0000000000000D+00  0.0000000000000D+00
388  3.8700000000000D+00  0.0000000000000D+00  0.0000000000000D+00
389  3.8800000000000D+00  0.0000000000000D+00  0.0000000000000D+00
390  3.8900000000000D+00  0.0000000000000D+00  0.0000000000000D+00
391  3.9000000000000D+00  0.0000000000000D+00  0.0000000000000D+00
392  3.9100000000000D+00  0.0000000000000D+00  0.0000000000000D+00
393  3.9200000000000D+00  0.0000000000000D+00  0.0000000000000D+00
394  3.9300000000000D+00  0.0000000000000D+00  0.0000000000000D+00
395  3.9400000000000D+00  0.0000000000000D+00  0.0000000000000D+00
396  3.9500000000000D+00  0.0000000000000D+00  0.0000000000000D+00
397  3.9600000000000D+00  0.0000000000000D+00  0.0000000000000D+00
398  3.9700000000000D+00  0.0000000000000D+00  0.0000000000000D+00
399  3.9800000000000D+00  0.0000000000000D+00  0.0000000000000D+00
400  3.9900000000000D+00  0.0000000000000D+00  0.0000000000000D+00
401  4.0000000000000D+00  0.0000000000000D+00  0.0000000000000D+00
402  4.0100000000000D+00  0.0000000000000D+00  0.0000000000000D+00
403  4.0200000000000D+00  0.0000000000000D+00  0.0000000000000D+00
404  4.0300000000000D+00  0.0000000000000D+00  0.0000000000000D+00
405  4.0400000000000D+00  0.0000000000000D+00  0.0000000000000D+00
406  4.0500000000000D+00  0.0000000000000D+00  0.0000000000000D+00
407  4.0600000000000D+00  0.0000000000000D+00  0.0000000000000D+00
408  4.0700000000000D+00  0.0000000000000D+00  0.0000000000000D+00
409  4.0800000000000D+00  0.0000000000000D+00  0.0000000000000D+00
410  4.0900000000000D+00  0.0000000000000D+00  0.0000000000000D+00
411  4.1000000000000D+00  0.0000000000000D+00  0.0000000000000D+00
412  4.1100000000000D+00  0.0000000000000D+00  0.0000000000000D+00
413  4.1200000000000D+00  0.0000000000000D+00  0.0000000000000D+00
414  4.1300000000000D+00  0.0000000000000D+00  0.0000000000000D+00
415  4.1400000000000D+00  0.0000000000000D+00  0.0000000000000D+00
416  4.1500000000000D+00  0.0000000000000D+00  0.0000000000000D+00
417  4.1600000000000D+00  0.0000000000000D+00  0.0000000000000D+00
418  4.1700000000000D+00  0.0000000000000D+00  0.0000000000000D+00
419  4.1800000000000D+00  0.0000000000000D+00  0.0000000000000D+00
420  4.1900000000000D+00  0.0000000000000D+00  0.0000000000000D+00
421  4.2000000000000D+00  0.0000000000000D+00  0.0000000000000D+00
422  4.2100000000000D+00  0.0000000000000D+00  0.0000000000000D+00
423  4.2200000000000D+00  0.0000000000000D+00  0.0000000000000D+00
424  4.2300000000000D+00  0.0000000000000D+00  0.0000000000000D+00
425  4.2400000000000D+00  0.0000000000000D+00  0.0000000000000D+00
426  4.2500000000000D+00  0.0000000000000D+00  0.0000000000000D+00
427  4.2600000000000D+00  0.0000000000000D+00  0.0000000000000D+00
428  4.2700000000000D+00  0.0000000000000D+00  0.0000000000000D+00
429  4.2800000000000D+00  0.0000000000000D+00  0.0000000000000D+00
430  4.2900000000000D+00  0.0000000000000D+00  0.0000000000000D+00
431  4.3000000000000D+00  0.0000000000000D+00  0.0000000000000D+00
432  4.3100000000000D+00  0.0000000000000D+00  0.0000000000000D+00
433  4.3200000000000D+00  0.0000000000000D+00  0.0000000000000D+00
434  4.3300000000000D+00  0.0000000000000D+00  0.0000000000000D+00
435  4.3400000000000D+00  0.0000000000000D+00  0.0000000000000D+00
436  4.3500000000000D+00  0.0000000000000D+00  0.0000000000000D+00
437  4.3600000000000D+00  0.0000000000000D+00  0.0000000000000D+00
438  4.3700000000000D+00  0.0000000000000D+00  0.0000000000000D+00
439  4.3800000000000D+00  0.0000000000000D+00  0.0000000000000D+00
440  4.3900000000000D+00  0.0000000000000D+00  0.0000000000000D+00
441  4.4000000000000D+00  0.0000000000000D+00  0.0000000000000D+00
442  4.4100000000000D+00  0.0000000000000D+00  0.0000000000000D+00
443  4.4200000000000D+00  0.0000000000000D+00  0.0000000000000D+00
444  4.4300000000000D+00  0.0000000000000D+00  0.0000000000000D+00