F     ONCVPSP  r_core=  1.57  1.66  1.70
9.0000      7.0000      160626    zatom,zion,pspd
8      11   2     4   600     0    pspcod,pspxc,lmax,lloc,mmax,r2well
5.99000000  4.00000000  0.00000000    rchrg fchrg qchrg
2     2     1     0     0    nproj
1                 extension_switch
0                         6.6977491216912D+00  9.0355323436637D-01
1  0.0000000000000D+00 -6.2152505364566D-12 -1.3114453967233D-11
2  1.0000000000000D-02  9.1739835832572D-02 -3.8868897982969D-02
3  2.0000000000000D-02  1.8321283263489D-01 -7.7466262864704D-02
4  3.0000000000000D-02  2.7415310504810D-01 -1.1552189359277D-01
5  4.0000000000000D-02  3.6429667190528D-01 -1.5276824809690D-01
6  5.0000000000000D-02  4.5338240045144D-01 -1.8894175998681D-01
7  6.0000000000000D-02  5.4115294111558D-01 -2.2378413988608D-01
8  7.0000000000000D-02  6.2735564969158D-01 -2.5704365626156D-01
9  8.0000000000000D-02  7.1174349379079D-01 -2.8847639059532D-01
10  9.0000000000000D-02  7.9407594043838D-01 -3.1784746173289D-01
11  1.0000000000000D-01  8.7411982169791D-01 -3.4493221423197D-01
12  1.1000000000000D-01  9.5165017522637D-01 -3.6951736553147D-01
13  1.2000000000000D-01  1.0264510566841D+00 -3.9140210676459D-01
14  1.3000000000000D-01  1.0983163209547D+00 -4.1039915205581D-01
15  1.4000000000000D-01  1.1670503691660D+00 -4.2633573117259D-01
16  1.5000000000000D-01  1.2324688585523D+00 -4.3905452045183D-01
17  1.6000000000000D-01  1.2943993722524D+00 -4.4841450699319D-01
18  1.7000000000000D-01  1.3526820462081D+00 -4.5429178120764D-01
19  1.8000000000000D-01  1.4071701504095D+00 -4.5658025293553D-01
20  1.9000000000000D-01  1.4577306218260D+00 -4.5519228650509D-01
21  2.0000000000000D-01  1.5042445464742D+00 -4.5005925029363D-01
22  2.1000000000000D-01  1.5466075881963D+00 -4.4113197658081D-01
23  2.2000000000000D-01  1.5847303618660D+00 -4.2838112774956D-01
24  2.3000000000000D-01  1.6185387488937D+00 -4.1179746519585D-01
25  2.4000000000000D-01  1.6479741530802D+00 -3.9139201765372D-01
26  2.5000000000000D-01  1.6729936950584D+00 -3.6719614603029D-01
27  2.6000000000000D-01  1.6935703437699D+00 -3.3926150227150D-01
28  2.7000000000000D-01  1.7096929836519D+00 -3.0765988024811D-01
29  2.8000000000000D-01  1.7213664164486D+00 -2.7248295715663D-01
30  2.9000000000000D-01  1.7286112968188D+00 -2.3384192447254D-01
31  3.0000000000000D-01  1.7314640011862D+00 -1.9186700807070D-01
32  3.1000000000000D-01  1.7299764295597D+00 -1.4670687773481D-01
33  3.2000000000000D-01  1.7242157403526D+00 -9.8527946915391D-02
34  3.3000000000000D-01  1.7142640185378D+00 -4.7513564255756D-02
35  3.4000000000000D-01  1.7002178777933D+00  6.1369009130610D-03
36  3.5000000000000D-01  1.6821879976188D+00  6.2209076209909D-02
37  3.6000000000000D-01  1.6602985967388D+00  1.2047470336570D-01
38  3.7000000000000D-01  1.6346868444402D+00  1.8069285058517D-01
39  3.8000000000000D-01  1.6055022118350D+00  2.4261121506330D-01
40  3.9000000000000D-01  1.5729057653764D+00  3.0596750989323D-01
41  4.0000000000000D-01  1.5370694052949D+00  3.7049092888891D-01
42  4.1000000000000D-01  1.4981750519561D+00  4.3590368214373D-01
43  4.2000000000000D-01  1.4564137834728D+00  5.0192259445627D-01
44  4.3000000000000D-01  1.4119849282242D+00  5.6826075808246D-01
45  4.4000000000000D-01  1.3650951162539D+00  6.3462923062224D-01
46  4.5000000000000D-01  1.3159572938179D+00  7.0073876821944D-01
47  4.6000000000000D-01  1.2647897056524D+00  7.6630158365232D-01
48  4.7000000000000D-01  1.2118148498057D+00  8.3103311831643D-01
49  4.8000000000000D-01  1.1572584101504D+00  8.9465381655642D-01
50  4.9000000000000D-01  1.1013481719372D+00  9.5689089028875D-01
51  5.0000000000000D-01  1.0443129259915D+00  1.0174800613738D+00
52  5.1000000000000D-01  9.8638136736884D-01  1.0761672687451D+00
53  5.2000000000000D-01  9.2778099448663D-01  1.1327103268831D+00
54  5.3000000000000D-01  8.6873701493036D-01  1.1868805218365D+00
55  5.4000000000000D-01  8.0947126429706D-01  1.2384641306359D+00
56  5.5000000000000D-01  7.5020114458124D-01  1.2872638496240D+00
57  5.6000000000000D-01  6.9113858873319D-01  1.3331001169332D+00
58  5.7000000000000D-01  6.3248905812386D-01  1.3758123140790D+00
59  5.8000000000000D-01  5.7445057973441D-01  1.4152598314081D+00
60  5.9000000000000D-01  5.1721282995229D-01  1.4513229819367D+00
61  6.0000000000000D-01  4.6095627189908D-01  1.4839037479455D+00
62  6.1000000000000D-01  4.0585135323713D-01  1.5129263445549D+00
63  6.2000000000000D-01  3.5205777140380D-01  1.5383375843943D+00
64  6.3000000000000D-01  2.9972381320185D-01  1.5601070274017D+00
65  6.4000000000000D-01  2.4898577563294D-01  1.5782268997423D+00
66  6.5000000000000D-01  1.9996747479808D-01  1.5927117658249D+00
67  6.6000000000000D-01  1.5277984960267D-01  1.6035979374185D+00
68  6.7000000000000D-01  1.0752066689658D-01  1.6109426039370D+00
69  6.8000000000000D-01  6.4274334547696D-02  1.6148226680644D+00
70  6.9000000000000D-01  2.3111828793362D-02  1.6153332710432D+00
71  7.0000000000000D-01 -1.5909257963933D-02  1.6125859921475D+00
72  7.1000000000000D-01 -5.2744542952363D-02  1.6067067071100D+00
73  7.2000000000000D-01 -8.7362546681093D-02  1.5978330905801D+00
74  7.3000000000000D-01 -1.1974424895892D-01  1.5861117480486D+00
75  7.4000000000000D-01 -1.4988250207157D-01  1.5716949631067D+00
76  7.5000000000000D-01 -1.7778129620961D-01  1.5547370463913D+00
77  7.6000000000000D-01 -2.0345487256396D-01  1.5353902731322D+00
78  7.7000000000000D-01 -2.2692667985848D-01  1.5138003968490D+00
79  7.8000000000000D-01 -2.4822817022126D-01  1.4901017238555D+00
80  7.9000000000000D-01 -2.6739743079663D-01  1.4644117405303D+00
81  8.0000000000000D-01 -2.8447766191734D-01  1.4368254543589D+00
82  8.1000000000000D-01 -2.9951545437776D-01  1.4074088748936D+00
83  8.2000000000000D-01 -3.1256008526022D-01  1.3762084617807D+00
84  8.3000000000000D-01 -3.2366420037616D-01  1.3432729492725D+00
85  8.4000000000000D-01 -3.3288401781699D-01  1.3086596992269D+00
86  8.5000000000000D-01 -3.4027914029282D-01  1.2724339550216D+00
87  8.6000000000000D-01 -3.4591239859823D-01  1.2346688051013D+00
88  8.7000000000000D-01 -3.4984968084977D-01  1.1954449825773D+00
89  8.8000000000000D-01 -3.5215975291880D-01  1.1548506364788D+00
90  8.9000000000000D-01 -3.5291406986706D-01  1.1129810733554D+00
91  9.0000000000000D-01 -3.5218657776272D-01  1.0699384639912D+00
92  9.1000000000000D-01 -3.5005350547483D-01  1.0258315128591D+00
93  9.2000000000000D-01 -3.4659314614416D-01  9.8077508832118D-01
94  9.3000000000000D-01 -3.4188562814617D-01  9.3488981200502D-01
95  9.4000000000000D-01 -3.3601267548541D-01  8.8830160618543D-01
96  9.5000000000000D-01 -3.2905735770479D-01  8.4114119851106D-01
97  9.6000000000000D-01 -3.2110382954816D-01  7.9354358396117D-01
98  9.7000000000000D-01 -3.1223706077055D-01  7.4564744443233D-01
99  9.8000000000000D-01 -3.0254255666850D-01  6.9759452700990D-01
100  9.9000000000000D-01 -2.9210607006085D-01  6.4952898249231D-01
101  1.0000000000000D+00 -2.8101330563658D-01  6.0159666641636D-01
102  1.0100000000000D+00 -2.6934961775684D-01  5.5394440543935D-01
103  1.0200000000000D+00 -2.5719970296386D-01  5.0671923250847D-01
104  1.0300000000000D+00 -2.4464728861521D-01  4.6006759485316D-01
105  1.0400000000000D+00 -2.3177481922515D-01  4.1413453944622D-01
106  1.0500000000000D+00 -2.1866314222352D-01  3.6906288103231D-01
107  1.0600000000000D+00 -2.0539119499270D-01  3.2499235841242D-01
108  1.0700000000000D+00 -1.9203569514733D-01  2.8205878505694D-01
109  1.0800000000000D+00 -1.7867083612341D-01  2.4039320053235D-01
110  1.0900000000000D+00 -1.6536799022617D-01  2.0012102957787D-01
111  1.1000000000000D+00 -1.5219542133940D-01  1.6136125590501D-01
112  1.1100000000000D+00 -1.3921800953810D-01  1.2422561799407D-01
113  1.1200000000000D+00 -1.2649698985958D-01  8.8817834288862D-02
114  1.1300000000000D+00 -1.1408970747170D-01  5.5232865207277D-02
115  1.1400000000000D+00 -1.0204939143612D-01  2.3556219315449D-02
116  1.1500000000000D+00 -9.0424949219712D-02 -6.1366890476772D-03
117  1.1600000000000D+00 -7.9260783994784D-02 -3.3781123714910D-02
118  1.1700000000000D+00 -6.8596636654072D-02 -5.9323545529702D-02
119  1.1800000000000D+00 -5.8467454349759D-02 -8.2722059723354D-02
120  1.1900000000000D+00 -4.8903287194706D-02 -1.0394678596629D-01
121  1.2000000000000D+00 -3.9929214560423D-02 -1.2298014584039D-01
122  1.2100000000000D+00 -3.1565302169391D-02 -1.3981706320184D-01
123  1.2200000000000D+00 -2.3826591107151D-02 -1.5446507306211D-01
124  1.2300000000000D+00 -1.6723119399733D-02 -1.6694433621250D-01
125  1.2400000000000D+00 -1.0259976653474D-02 -1.7728755719141D-01
126  1.2500000000000D+00 -4.4373921503979D-03 -1.8553980341973D-01
127  1.2600000000000D+00  7.4914371642577D-04 -1.9175822507725D-01
128  1.2700000000000D+00  5.3087250935681D-03 -1.9601167628364D-01
129  1.2800000000000D+00  9.2548443033616D-03 -1.9838024013385D-01
130  1.2900000000000D+00  1.2605173635909D-02 -1.9895465619392D-01
131  1.3000000000000D+00  1.5381316880329D-02 -1.9783565505779D-01
132  1.3100000000000D+00  1.7608532592555D-02 -1.9513320644042D-01
133  1.3200000000000D+00  1.9315430249214D-02 -1.9096568265860D-01
134  1.3300000000000D+00  2.0533641575254D-02 -1.8545894422859D-01
135  1.3400000000000D+00  2.1297469286220D-02 -1.7874535420048D-01
136  1.3500000000000D+00  2.1643515891774D-02 -1.7096272879265D-01
137  1.3600000000000D+00  2.1610295284032D-02 -1.6225323235256D-01
138  1.3700000000000D+00  2.1237829929998D-02 -1.5276222494069D-01
139  1.3800000000000D+00  2.0567237004071D-02 -1.4263707258589D-01
140  1.3900000000000D+00  1.9640306527725D-02 -1.3202592936197D-01
141  1.4000000000000D+00  1.8499074984168D-02 -1.2107650177683D-01
142  1.4100000000000D+00  1.7185397841738D-02 -1.0993480595038D-01
143  1.4200000000000D+00  1.5740524455174D-02 -9.8743928068360D-02
144  1.4300000000000D+00  1.4204678909415D-02 -8.7642799114799D-02
145  1.4400000000000D+00  1.2616650223419D-02 -7.6764994313423D-02
146  1.4500000000000D+00  1.1013395535477D-02 -6.6237568445508D-02
147  1.4600000000000D+00  9.4296593065556D-03 -5.6179936449233D-02
148  1.4700000000000D+00  7.8976122927340D-03 -4.6702810846012D-02
149  1.4800000000000D+00  6.4465128099290D-03 -3.7907203894786D-02
150  1.4900000000000D+00  5.1023937311941D-03 -2.9883505100900D-02
151  1.5000000000000D+00  3.8877776523257D-03 -2.2710641708945D-02
152  1.5100000000000D+00  2.8214226345183D-03 -1.6455329673815D-02
153  1.5200000000000D+00  1.9187934817865D-03 -1.1175472141340D-02
154  1.5300000000000D+00  1.1877606639697D-03 -6.8957509295759D-03
155  1.5400000000000D+00  6.3384313816069D-04 -3.6390834832438D-03
156  1.5500000000000D+00  2.7642379164278D-04 -1.5135414173818D-03
157  1.5600000000000D+00  1.0013758052987D-04 -4.4840981965966D-04
158  1.5700000000000D+00  2.9939861670898D-05 -6.2300240378641D-05
159  1.5800000000000D+00  4.3572842109972D-06  8.4491132594627D-06
160  1.5900000000000D+00 -1.0104779251209D-06 -7.6302091421752D-06
161  1.6000000000000D+00 -2.7617206557056D-07 -5.8216005330006D-06
162  1.6100000000000D+00  3.7075465576527D-07  8.8320425972327D-07
163  1.6200000000000D+00  1.5196565842099D-07  5.5615973918379D-07
164  1.6300000000000D+00 -1.3677888655733D-07  4.4138748086868D-07
165  1.6400000000000D+00 -5.4322670435907D-08  1.7530005734997D-07
166  1.6500000000000D+00  0.0000000000000D+00  0.0000000000000D+00
167  1.6600000000000D+00  0.0000000000000D+00  0.0000000000000D+00
168  1.6700000000000D+00  0.0000000000000D+00  0.0000000000000D+00
169  1.6800000000000D+00  0.0000000000000D+00  0.0000000000000D+00
170  1.6900000000000D+00  0.0000000000000D+00  0.0000000000000D+00
171  1.7000000000000D+00  0.0000000000000D+00  0.0000000000000D+00
172  1.7100000000000D+00  0.0000000000000D+00  0.0000000000000D+00
173  1.7200000000000D+00  0.0000000000000D+00  0.0000000000000D+00
174  1.7300000000000D+00  0.0000000000000D+00  0.0000000000000D+00
175  1.7400000000000D+00  0.0000000000000D+00  0.0000000000000D+00
176  1.7500000000000D+00  0.0000000000000D+00  0.0000000000000D+00
177  1.7600000000000D+00  0.0000000000000D+00  0.0000000000000D+00
178  1.7700000000000D+00  0.0000000000000D+00  0.0000000000000D+00
179  1.7800000000000D+00  0.0000000000000D+00  0.0000000000000D+00
180  1.7900000000000D+00  0.0000000000000D+00  0.0000000000000D+00
181  1.8000000000000D+00  0.0000000000000D+00  0.0000000000000D+00
182  1.8100000000000D+00  0.0000000000000D+00  0.0000000000000D+00
183  1.8200000000000D+00  0.0000000000000D+00  0.0000000000000D+00
184  1.8300000000000D+00  0.0000000000000D+00  0.0000000000000D+00
185  1.8400000000000D+00  0.0000000000000D+00  0.0000000000000D+00
186  1.8500000000000D+00  0.0000000000000D+00  0.0000000000000D+00
187  1.8600000000000D+00  0.0000000000000D+00  0.0000000000000D+00
188  1.8700000000000D+00  0.0000000000000D+00  0.0000000000000D+00
189  1.8800000000000D+00  0.0000000000000D+00  0.0000000000000D+00
190  1.8900000000000D+00  0.0000000000000D+00  0.0000000000000D+00
191  1.9000000000000D+00  0.0000000000000D+00  0.0000000000000D+00
192  1.9100000000000D+00  0.0000000000000D+00  0.0000000000000D+00
193  1.9200000000000D+00  0.0000000000000D+00  0.0000000000000D+00
194  1.9300000000000D+00  0.0000000000000D+00  0.0000000000000D+00
195  1.9400000000000D+00  0.0000000000000D+00  0.0000000000000D+00
196  1.9500000000000D+00  0.0000000000000D+00  0.0000000000000D+00
197  1.9600000000000D+00  0.0000000000000D+00  0.0000000000000D+00
198  1.9700000000000D+00  0.0000000000000D+00  0.0000000000000D+00
199  1.9800000000000D+00  0.0000000000000D+00  0.0000000000000D+00
200  1.9900000000000D+00  0.0000000000000D+00  0.0000000000000D+00
201  2.0000000000000D+00  0.0000000000000D+00  0.0000000000000D+00
202  2.0100000000000D+00  0.0000000000000D+00  0.0000000000000D+00
203  2.0200000000000D+00  0.0000000000000D+00  0.0000000000000D+00
204  2.0300000000000D+00  0.0000000000000D+00  0.0000000000000D+00
205  2.0400000000000D+00  0.0000000000000D+00  0.0000000000000D+00
206  2.0500000000000D+00  0.0000000000000D+00  0.0000000000000D+00
207  2.0600000000000D+00  0.0000000000000D+00  0.0000000000000D+00
208  2.0700000000000D+00  0.0000000000000D+00  0.0000000000000D+00
209  2.0800000000000D+00  0.0000000000000D+00  0.0000000000000D+00
210  2.0900000000000D+00  0.0000000000000D+00  0.0000000000000D+00
211  2.1000000000000D+00  0.0000000000000D+00  0.0000000000000D+00
212  2.1100000000000D+00  0.0000000000000D+00  0.0000000000000D+00
213  2.1200000000000D+00  0.0000000000000D+00  0.0000000000000D+00
214  2.1300000000000D+00  0.0000000000000D+00  0.0000000000000D+00
215  2.1400000000000D+00  0.0000000000000D+00  0.0000000000000D+00
216  2.1500000000000D+00  0.0000000000000D+00  0.0000000000000D+00
217  2.1600000000000D+00  0.0000000000000D+00  0.0000000000000D+00
218  2.1700000000000D+00  0.0000000000000D+00  0.0000000000000D+00
219  2.1800000000000D+00  0.0000000000000D+00  0.0000000000000D+00
220  2.1900000000000D+00  0.0000000000000D+00  0.0000000000000D+00
221  2.2000000000000D+00  0.0000000000000D+00  0.0000000000000D+00
222  2.2100000000000D+00  0.0000000000000D+00  0.0000000000000D+00
223  2.2200000000000D+00  0.0000000000000D+00  0.0000000000000D+00
224  2.2300000000000D+00  0.0000000000000D+00  0.0000000000000D+00
225  2.2400000000000D+00  0.0000000000000D+00  0.0000000000000D+00
226  2.2500000000000D+00  0.0000000000000D+00  0.0000000000000D+00
227  2.2600000000000D+00  0.0000000000000D+00  0.0000000000000D+00
228  2.2700000000000D+00  0.0000000000000D+00  0.0000000000000D+00
229  2.2800000000000D+00  0.0000000000000D+00  0.0000000000000D+00
230  2.2900000000000D+00  0.0000000000000D+00  0.0000000000000D+00
231  2.3000000000000D+00  0.0000000000000D+00  0.0000000000000D+00
232  2.3100000000000D+00  0.0000000000000D+00  0.0000000000000D+00
233  2.3200000000000D+00  0.0000000000000D+00  0.0000000000000D+00
234  2.3300000000000D+00  0.0000000000000D+00  0.0000000000000D+00
235  2.3400000000000D+00  0.0000000000000D+00  0.0000000000000D+00
236  2.3500000000000D+00  0.0000000000000D+00  0.0000000000000D+00
237  2.3600000000000D+00  0.0000000000000D+00  0.0000000000000D+00
238  2.3700000000000D+00  0.0000000000000D+00  0.0000000000000D+00
239  2.3800000000000D+00  0.0000000000000D+00  0.0000000000000D+00
240  2.3900000000000D+00  0.0000000000000D+00  0.0000000000000D+00
241  2.4000000000000D+00  0.0000000000000D+00  0.0000000000000D+00
242  2.4100000000000D+00  0.0000000000000D+00  0.0000000000000D+00
243  2.4200000000000D+00  0.0000000000000D+00  0.0000000000000D+00
244  2.4300000000000D+00  0.0000000000000D+00  0.0000000000000D+00
245  2.4400000000000D+00  0.0000000000000D+00  0.0000000000000D+00
246  2.4500000000000D+00  0.0000000000000D+00  0.0000000000000D+00
247  2.4600000000000D+00  0.0000000000000D+00  0.0000000000000D+00
248  2.4700000000000D+00  0.0000000000000D+00  0.0000000000000D+00
249  2.4800000000000D+00  0.0000000000000D+00  0.0000000000000D+00
250  2.4900000000000D+00  0.0000000000000D+00  0.0000000000000D+00
251  2.5000000000000D+00  0.0000000000000D+00  0.0000000000000D+00
252  2.5100000000000D+00  0.0000000000000D+00  0.0000000000000D+00
253  2.5200000000000D+00  0.0000000000000D+00  0.0000000000000D+00
254  2.5300000000000D+00  0.0000000000000D+00  0.0000000000000D+00
255  2.5400000000000D+00  0.0000000000000D+00  0.0000000000000D+00
256  2.5500000000000D+00  0.0000000000000D+00  0.0000000000000D+00
257  2.5600000000000D+00  0.0000000000000D+00  0.0000000000000D+00
258  2.5700000000000D+00  0.0000000000000D+00  0.0000000000000D+00
259  2.5800000000000D+00  0.0000000000000D+00  0.0000000000000D+00
260  2.5900000000000D+00  0.0000000000000D+00  0.0000000000000D+00
261  2.6000000000000D+00  0.0000000000000D+00  0.0000000000000D+00
262  2.6100000000000D+00  0.0000000000000D+00  0.0000000000000D+00
263  2.6200000000000D+00  0.0000000000000D+00  0.0000000000000D+00
264  2.6300000000000D+00  0.0000000000000D+00  0.0000000000000D+00
265  2.6400000000000D+00  0.0000000000000D+00  0.0000000000000D+00
266  2.6500000000000D+00  0.0000000000000D+00  0.0000000000000D+00
267  2.6600000000000D+00  0.0000000000000D+00  0.0000000000000D+00
268  2.6700000000000D+00  0.0000000000000D+00  0.0000000000000D+00
269  2.6800000000000D+00  0.0000000000000D+00  0.0000000000000D+00
270  2.6900000000000D+00  0.0000000000000D+00  0.0000000000000D+00
271  2.7000000000000D+00  0.0000000000000D+00  0.0000000000000D+00
272  2.7100000000000D+00  0.0000000000000D+00  0.0000000000000D+00
273  2.7200000000000D+00  0.0000000000000D+00  0.0000000000000D+00
274  2.7300000000000D+00  0.0000000000000D+00  0.0000000000000D+00
275  2.7400000000000D+00  0.0000000000000D+00  0.0000000000000D+00
276  2.7500000000000D+00  0.0000000000000D+00  0.0000000000000D+00
277  2.7600000000000D+00  0.0000000000000D+00  0.0000000000000D+00
278  2.7700000000000D+00  0.0000000000000D+00  0.0000000000000D+00
279  2.7800000000000D+00  0.0000000000000D+00  0.0000000000000D+00
280  2.7900000000000D+00  0.0000000000000D+00  0.0000000000000D+00
281  2.8000000000000D+00  0.0000000000000D+00  0.0000000000000D+00
282  2.8100000000000D+00  0.0000000000000D+00  0.0000000000000D+00
283  2.8200000000000D+00  0.0000000000000D+00  0.0000000000000D+00
284  2.8300000000000D+00  0.0000000000000D+00  0.0000000000000D+00
285  2.8400000000000D+00  0.0000000000000D+00  0.0000000000000D+00
286  2.8500000000000D+00  0.0000000000000D+00  0.0000000000000D+00
287  2.8600000000000D+00  0.0000000000000D+00  0.0000000000000D+00
288  2.8700000000000D+00  0.0000000000000D+00  0.0000000000000D+00
289  2.8800000000000D+00  0.0000000000000D+00  0.0000000000000D+00
290  2.8900000000000D+00  0.0000000000000D+00  0.0000000000000D+00
291  2.9000000000000D+00  0.0000000000000D+00  0.0000000000000D+00
292  2.9100000000000D+00  0.0000000000000D+00  0.0000000000000D+00
293  2.9200000000000D+00  0.0000000000000D+00  0.0000000000000D+00
294  2.9300000000000D+00  0.0000000000000D+00  0.0000000000000D+00
295  2.9400000000000D+00  0.0000000000000D+00  0.0000000000000D+00
296  2.9500000000000D+00  0.0000000000000D+00  0.0000000000000D+00
297  2.9600000000000D+00  0.0000000000000D+00  0.0000000000000D+00
298  2.9700000000000D+00  0.0000000000000D+00  0.0000000000000D+00
299  2.9800000000000D+00  0.0000000000000D+00  0.0000000000000D+00
300  2.9900000000000D+00  0.0000000000000D+00  0.0000000000000D+00
301  3.0000000000000D+00  0.0000000000000D+00  0.0000000000000D+00
302  3.0100000000000D+00  0.0000000000000D+00  0.0000000000000D+00
303  3.0200000000000D+00  0.0000000000000D+00  0.0000000000000D+00
304  3.0300000000000D+00  0.0000000000000D+00  0.0000000000000D+00
305  3.0400000000000D+00  0.0000000000000D+00  0.0000000000000D+00
306  3.0500000000000D+00  0.0000000000000D+00  0.0000000000000D+00
307  3.0600000000000D+00  0.0000000000000D+00  0.0000000000000D+00
308  3.0700000000000D+00  0.0000000000000D+00  0.0000000000000D+00
309  3.0800000000000D+00  0.0000000000000D+00  0.0000000000000D+00
310  3.0900000000000D+00  0.0000000000000D+00  0.0000000000000D+00
311  3.1000000000000D+00  0.0000000000000D+00  0.0000000000000D+00
312  3.1100000000000D+00  0.0000000000000D+00  0.0000000000000D+00
313  3.1200000000000D+00  0.0000000000000D+00  0.0000000000000D+00
314  3.1300000000000D+00  0.0000000000000D+00  0.0000000000000D+00
315  3.1400000000000D+00  0.0000000000000D+00  0.0000000000000D+00
316  3.1500000000000D+00  0.0000000000000D+00  0.0000000000000D+00
317  3.1600000000000D+00  0.0000000000000D+00  0.0000000000000D+00
318  3.1700000000000D+00  0.0000000000000D+00  0.0000000000000D+00
319  3.1800000000000D+00  0.0000000000000D+00  0.0000000000000D+00
320  3.1900000000000D+00  0.0000000000000D+00  0.0000000000000D+00
321  3.2000000000000D+00  0.0000000000000D+00  0.0000000000000D+00
322  3.2100000000000D+00  0.0000000000000D+00  0.0000000000000D+00
323  3.2200000000000D+00  0.0000000000000D+00  0.0000000000000D+00
324  3.2300000000000D+00  0.0000000000000D+00  0.0000000000000D+00
325  3.2400000000000D+00  0.0000000000000D+00  0.0000000000000D+00
326  3.2500000000000D+00  0.0000000000000D+00  0.0000000000000D+00
327  3.2600000000000D+00  0.0000000000000D+00  0.0000000000000D+00
328  3.2700000000000D+00  0.0000000000000D+00  0.0000000000000D+00
329  3.2800000000000D+00  0.0000000000000D+00  0.0000000000000D+00
330  3.2900000000000D+00  0.0000000000000D+00  0.0000000000000D+00
331  3.3000000000000D+00  0.0000000000000D+00  0.0000000000000D+00
332  3.3100000000000D+00  0.0000000000000D+00  0.0000000000000D+00
333  3.3200000000000D+00  0.0000000000000D+00  0.0000000000000D+00
334  3.3300000000000D+00  0.0000000000000D+00  0.0000000000000D+00
335  3.3400000000000D+00  0.0000000000000D+00  0.0000000000000D+00
336  3.3500000000000D+00  0.0000000000000D+00  0.0000000000000D+00
337  3.3600000000000D+00  0.0000000000000D+00  0.0000000000000D+00
338  3.3700000000000D+00  0.0000000000000D+00  0.0000000000000D+00
339  3.3800000000000D+00  0.0000000000000D+00  0.0000000000000D+00
340  3.3900000000000D+00  0.0000000000000D+00  0.0000000000000D+00
341  3.4000000000000D+00  0.0000000000000D+00  0.0000000000000D+00
342  3.4100000000000D+00  0.0000000000000D+00  0.0000000000000D+00
343  3.4200000000000D+00  0.0000000000000D+00  0.0000000000000D+00
344  3.4300000000000D+00  0.0000000000000D+00  0.0000000000000D+00
345  3.4400000000000D+00  0.0000000000000D+00  0.0000000000000D+00
346  3.4500000000000D+00  0.0000000000000D+00  0.0000000000000D+00
347  3.4600000000000D+00  0.0000000000000D+00  0.0000000000000D+00
348  3.4700000000000D+00  0.0000000000000D+00  0.0000000000000D+00
349  3.4800000000000D+00  0.0000000000000D+00  0.0000000000000D+00
350  3.4900000000000D+00  0.0000000000000D+00  0.0000000000000D+00
351  3.5000000000000D+00  0.0000000000000D+00  0.0000000000000D+00
352  3.5100000000000D+00  0.0000000000000D+00  0.0000000000000D+00
353  3.5200000000000D+00  0.0000000000000D+00  0.0000000000000D+00
354  3.5300000000000D+00  0.0000000000000D+00  0.0000000000000D+00
355  3.5400000000000D+00  0.0000000000000D+00  0.0000000000000D+00
356  3.5500000000000D+00  0.0000000000000D+00  0.0000000000000D+00
357  3.5600000000000D+00  0.0000000000000D+00  0.0000000000000D+00
358  3.5700000000000D+00  0.0000000000000D+00  0.0000000000000D+00
359  3.5800000000000D+00  0.0000000000000D+00  0.0000000000000D+00
360  3.5900000000000D+00  0.0000000000000D+00  0.0000000000000D+00
361  3.6000000000000D+00  0.0000000000000D+00  0.0000000000000D+00
362  3.6100000000000D+00  0.0000000000000D+00  0.0000000000000D+00
363  3.6200000000000D+00  0.0000000000000D+00  0.0000000000000D+00
364  3.6300000000000D+00  0.0000000000000D+00  0.0000000000000D+00
365  3.6400000000000D+00  0.0000000000000D+00  0.0000000000000D+00
366  3.6500000000000D+00  0.0000000000000D+00  0.0000000000000D+00
367  3.6600000000000D+00  0.0000000000000D+00  0.0000000000000D+00
368  3.6700000000000D+00  0.0000000000000D+00  0.0000000000000D+00
369  3.6800000000000D+00  0.0000000000000D+00  0.0000000000000D+00
370  3.6900000000000D+00  0.0000000000000D+00  0.0000000000000D+00
371  3.7000000000000D+00  0.0000000000000D+00  0.0000000000000D+00
372  3.7100000000000D+00  0.0000000000000D+00  0.0000000000000D+00
373  3.7200000000000D+00  0.0000000000000D+00  0.0000000000000D+00
374  3.7300000000000D+00  0.0000000000000D+00  0.0000000000000D+00
375  3.7400000000000D+00  0.0000000000000D+00  0.0000000000000D+00
376  3.7500000000000D+00  0.0000000000000D+00  0.0000000000000D+00
377  3.7600000000000D+00  0.0000000000000D+00  0.0000000000000D+00
378  3.7700000000000D+00  0.0000000000000D+00  0.0000000000000D+00
379  3.7800000000000D+00  0.0000000000000D+00  0.0000000000000D+00
380  3.7900000000000D+00  0.0000000000000D+00  0.0000000000000D+00
381  3.8000000000000D+00  0.0000000000000D+00  0.0000000000000D+00
382  3.8100000000000D+00  0.0000000000000D+00  0.0000000000000D+00
383  3.8200000000000D+00  0.0000000000000D+00  0.0000000000000D+00
384  3.8300000000000D+00  0.0000000000000D+00  0.0000000000000D+00
385  3.8400000000000D+00  0.0000000000000D+00  0.0000000000000D+00
386  3.8500000000000D+00  0.0000000000000D+00  0.0000000000000D+00
387  3.8600000000000D+00  0.0000000000000D+00  0.0000000000000D+00
388  3.8700000000000D+00  0.0000000000000D+00  0.0000000000000D+00
389  3.8800000000000D+00  0.0000000000000D+00  0.0000000000000D+00
390  3.8900000000000D+00  0.0000000000000D+00  0.0000000000000D+00
391  3.9000000000000D+00  0.0000000000000D+00  0.0000000000000D+00
392  3.9100000000000D+00  0.0000000000000D+00  0.0000000000000D+00
393  3.9200000000000D+00  0.0000000000000D+00  0.0000000000000D+00
394  3.9300000000000D+00  0.0000000000000D+00  0.0000000000000D+00
395  3.9400000000000D+00  0.0000000000000D+00  0.0000000000000D+00
396  3.9500000000000D+00  0.0000000000000D+00  0.0000000000000D+00
397  3.9600000000000D+00  0.0000000000000D+00  0.0000000000000D+00
398  3.9700000000000D+00  0.0000000000000D+00  0.0000000000000D+00
399  3.9800000000000D+00  0.0000000000000D+00  0.0000000000000D+00
400  3.9900000000000D+00  0.0000000000000D+00  0.0000000000000D+00
401  4.0000000000000D+00  0.0000000000000D+00  0.0000000000000D+00
402  4.0100000000000D+00  0.0000000000000D+00  0.0000000000000D+00
403  4.0200000000000D+00  0.0000000000000D+00  0.0000000000000D+00
404  4.0300000000000D+00  0.0000000000000D+00  0.0000000000000D+00
405  4.0400000000000D+00  0.0000000000000D+00  0.0000000000000D+00
406  4.0500000000000D+00  0.0000000000000D+00  0.0000000000000D+00
407  4.0600000000000D+00  0.0000000000000D+00  0.0000000000000D+00
408  4.0700000000000D+00  0.0000000000000D+00  0.0000000000000D+00
409  4.0800000000000D+00  0.0000000000000D+00  0.0000000000000D+00
410  4.0900000000000D+00  0.0000000000000D+00  0.0000000000000D+00
411  4.1000000000000D+00  0.0000000000000D+00  0.0000000000000D+00
412  4.1100000000000D+00  0.0000000000000D+00  0.0000000000000D+00
413  4.1200000000000D+00  0.0000000000000D+00  0.0000000000000D+00
414  4.1300000000000D+00  0.0000000000000D+00  0.0000000000000D+00
415  4.1400000000000D+00  0.0000000000000D+00  0.0000000000000D+00
416  4.1500000000000D+00  0.0000000000000D+00  0.0000000000000D+00
417  4.1600000000000D+00  0.0000000000000D+00  0.0000000000000D+00
418  4.1700000000000D+00  0.0000000000000D+00  0.0000000000000D+00
419  4.1800000000000D+00  0.0000000000000D+00  0.0000000000000D+00
420  4.1900000000000D+00  0.0000000000000D+00  0.0000000000000D+00
421  4.2000000000000D+00  0.0000000000000D+00  0.0000000000000D+00
422  4.2100000000000D+00  0.0000000000000D+00  0.0000000000000D+00
423  4.2200000000000D+00  0.0000000000000D+00  0.0000000000000D+00
424  4.2300000000000D+00  0.0000000000000D+00  0.0000000000000D+00
425  4.2400000000000D+00  0.0000000000000D+00  0.0000000000000D+00
426  4.2500000000000D+00  0.0000000000000D+00  0.0000000000000D+00
427  4.2600000000000D+00  0.0000000000000D+00  0.0000000000000D+00
428  4.2700000000000D+00  0.0000000000000D+00  0.0000000000000D+00
429  4.2800000000000D+00  0.0000000000000D+00  0.0000000000000D+00
430  4.2900000000000D+00  0.0000000000000D+00  0.0000000000000D+00
431  4.3000000000000D+00  0.0000000000000D+00  0.0000000000000D+00
432  4.3100000000000D+00  0.0000000000000D+00  0.0000000000000D+00
433  4.3200000000000D+00  0.0000000000000D+00  0.0000000000000D+00
434  4.3300000000000D+00  0.0000000000000D+00  0.0000000000000D+00
435  4.3400000000000D+00  0.0000000000000D+00  0.0000000000000D+00
436  4.3500000000000D+00  0.0000000000000D+00  0.0000000000000D+00
437  4.3600000000000D+00  0.0000000000000D+00  0.0000000000000D+00
438  4.3700000000000D+00  0.0000000000000D+00  0.0000000000000D+00
439  4.3800000000000D+00  0.0000000000000D+00  0.0000000000000D+00
440  4.3900000000000D+00  0.0000000000000D+00  0.0000000000000D+00
441  4.4000000000000D+00  0.0000000000000D+00  0.0000000000000D+00
442  4.4100000000000D+00  0.0000000000000D+00  0.0000000000000D+00
443  4.4200000000000D+00  0.0000000000000D+00  0.0000000000000D+00
444  4.4300000000000D+00  0.0000000000000D+00  0.0000000000000D+00