F     ONCVPSP  r_core=  1.31  1.60  1.26
9.0000      7.0000      150725    zatom,zion,pspd
8      11   2     4   600     0    pspcod,pspxc,lmax,lloc,mmax,r2well
5.99000000  4.00000000  0.00000000    rchrg fchrg qchrg
2     2     1     0     0    nproj
1                 extension_switch
0                         2.8769631822035D+00 -3.6002045999724D-01
1  0.0000000000000D+00 -6.7567230699339D-09 -4.2209946704563D-08
2  1.0000000000000D-02  9.2733276735951D-02  5.5681770520066D-02
3  2.0000000000000D-02  1.8497759771649D-01  1.0972241566328D-01
4  3.0000000000000D-02  2.7625011010099D-01  1.6051424992131D-01
5  4.0000000000000D-02  3.6608006529057D-01  2.0651584882964D-01
6  5.0000000000000D-02  4.5401461884398D-01  2.4628364378588D-01
7  6.0000000000000D-02  5.3962433265871D-01  2.7850170471416D-01
8  7.0000000000000D-02  6.2250828826595D-01  3.0200915709916D-01
9  8.0000000000000D-02  7.0229872684493D-01  3.1582472212364D-01
10  9.0000000000000D-02  7.7866513978572D-01  3.1916792000367D-01
11  1.0000000000000D-01  8.5131774317744D-01  3.1147653622792D-01
12  1.1000000000000D-01  9.2001028030512D-01  2.9242001722739D-01
13  1.2000000000000D-01  9.8454210791797D-01  2.6190853485840D-01
14  1.3000000000000D-01  1.0447595344813D+00  2.2009753669820D-01
15  1.4000000000000D-01  1.1005563916278D+00  1.6738768016599D-01
16  1.5000000000000D-01  1.1518738333544D+00  1.0442013147015D-01
17  1.6000000000000D-01  1.1986993709401D+00  3.2067293885231D-02
18  1.7000000000000D-01  1.2410651648477D+00 -4.8580887590258D-02
19  1.8000000000000D-01  1.2790456077931D+00 -1.3623481800903D-01
20  1.9000000000000D-01  1.3127542454939D+00 -2.2942703718905D-01
21  2.0000000000000D-01  1.3423400931204D+00 -3.2653752274443D-01
22  2.1000000000000D-01  1.3679834159803D+00 -4.2582207212708D-01
23  2.2000000000000D-01  1.3898910522740D+00 -5.2544326728582D-01
24  2.3000000000000D-01  1.4082913637071D+00 -6.2350347708327D-01
25  2.4000000000000D-01  1.4234289061961D+00 -7.1807931363956D-01
26  2.5000000000000D-01  1.4355589177367D+00 -8.0725693000705D-01
27  2.6000000000000D-01  1.4449417236388D+00 -8.8916752855600D-01
28  2.7000000000000D-01  1.4518371607066D+00 -9.6202244251518D-01
29  2.8000000000000D-01  1.4564991215343D+00 -1.0241471574189D+00
30  2.9000000000000D-01  1.4591703178953D+00 -1.0740136547233D+00
31  3.0000000000000D-01  1.4600773582689D+00 -1.1102704863296D+00
32  3.1000000000000D-01  1.4594262289317D+00 -1.1317700257686D+00
33  3.2000000000000D-01  1.4573982608406D+00 -1.1375923887361D+00
34  3.3000000000000D-01  1.4541466558703D+00 -1.1270655717405D+00
35  3.4000000000000D-01  1.4497936359933D+00 -1.0997814218828D+00
36  3.5000000000000D-01  1.4444282678697D+00 -1.0556071221253D+00
37  3.6000000000000D-01  1.4381050032453D+00 -9.9469195361802D-01
38  3.7000000000000D-01  1.4308429627476D+00 -9.1746917838307D-01
39  3.8000000000000D-01  1.4226259773392D+00 -8.2465297052069D-01
40  3.9000000000000D-01  1.4134033880700D+00 -7.1723041060382D-01
41  4.0000000000000D-01  1.4030915911093D+00 -5.9644864457148D-01
42  4.1000000000000D-01  1.3915763015572D+00 -4.6379739370734D-01
43  4.2000000000000D-01  1.3787154964900D+00 -3.2098708469083D-01
44  4.3000000000000D-01  1.3643429852974D+00 -1.6992294679344D-01
45  4.4000000000000D-01  1.3482725438523D+00 -1.2675495677811D-02
46  4.5000000000000D-01  1.3303025386137D+00  1.4855211134361D-01
47  4.6000000000000D-01  1.3102209575864D+00  3.1145930648805D-01
48  4.7000000000000D-01  1.2878107573202D+00  4.7368533895820D-01
49  4.8000000000000D-01  1.2628554289507D+00  6.3284787051266D-01
50  4.9000000000000D-01  1.2351446817973D+00  7.8658228375170D-01
51  5.0000000000000D-01  1.2044801403055D+00  9.3258103176366D-01
52  5.1000000000000D-01  1.1706809492204D+00  1.0686323534195D+00
53  5.2000000000000D-01  1.1335891828152D+00  1.1926576859748D+00
54  5.3000000000000D-01  1.0930749567787D+00  1.3027471256655D+00
55  5.4000000000000D-01  1.0490411459237D+00  1.3971923173172D+00
56  5.5000000000000D-01  1.0014276171707D+00  1.4745161952947D+00
57  5.6000000000000D-01  9.5021489515575D-01  1.5334990494978D+00
58  5.7000000000000D-01  8.9542718719670D-01  1.5732004509385D+00
59  5.8000000000000D-01  8.3713470506195D-01  1.5929766405389D+00
60  5.9000000000000D-01  7.7545523283309D-01  1.5924930610164D+00
61  6.0000000000000D-01  7.1055490295063D-01  1.5717317938716D+00
62  6.1000000000000D-01  6.4264815604880D-01  1.5309937500563D+00
63  6.2000000000000D-01  5.7199687416861D-01  1.4708955522872D+00
64  6.3000000000000D-01  4.9890869123652D-01  1.3923611381921D+00
65  6.4000000000000D-01  4.2373449887618D-01  1.2966082037873D+00
66  6.5000000000000D-01  3.4686517968847D-01  1.1851296962146D+00
67  6.6000000000000D-01  2.6872761362439D-01  1.0596706502483D+00
68  6.7000000000000D-01  1.8978001581897D-01  9.2220074376589D-01
69  6.8000000000000D-01  1.1050667614616D-01  7.7488302247178D-01
70  6.9000000000000D-01  3.1412181377152D-02  6.2003931104915D-01
71  7.0000000000000D-01 -4.6984789848364D-02  4.6011288641145D-01
72  7.1000000000000D-01 -1.2415800123865D-01  2.9762903732354D-01
73  7.2000000000000D-01 -1.9958041809537D-01  1.3515417277060D-01
74  7.3000000000000D-01 -2.7273108307760D-01 -2.4745832026298D-02
75  7.4000000000000D-01 -3.4310199744268D-01 -1.7954734819026D-01
76  7.5000000000000D-01 -4.1020489610796D-01 -3.2681005799937D-01
77  7.6000000000000D-01 -4.7357780615239D-01 -4.6421667500438D-01
78  7.7000000000000D-01 -5.3279128158645D-01 -5.8961064430212D-01
79  7.8000000000000D-01 -5.8745421224287D-01 -7.0103118111083D-01
80  7.9000000000000D-01 -6.3721911144453D-01 -7.9674505038451D-01
81  8.0000000000000D-01 -6.8178679555511D-01 -8.7527454520913D-01
82  8.1000000000000D-01 -7.2091037847473D-01 -9.3542118623661D-01
83  8.2000000000000D-01 -7.5439851543600D-01 -9.7628473733113D-01
84  8.3000000000000D-01 -7.8211784289297D-01 -9.9727721267295D-01
85  8.4000000000000D-01 -8.0399457466117D-01 -9.9813163640342D-01
86  8.5000000000000D-01 -8.2001522853201D-01 -9.7890540601973D-01
87  8.6000000000000D-01 -8.3022647210496D-01 -9.3997820356858D-01
88  8.7000000000000D-01 -8.3473409130397D-01 -8.8204449263011D-01
89  8.8000000000000D-01 -8.3370109971653D-01 -8.0610073248793D-01
90  8.9000000000000D-01 -8.2734502125640D-01 -7.1342753210787D-01
91  9.0000000000000D-01 -8.1593439245662D-01 -6.0556705400350D-01
92  9.1000000000000D-01 -7.9978454370544D-01 -4.8429606020642D-01
93  9.2000000000000D-01 -7.7925273071668D-01 -3.5159506793951D-01
94  9.3000000000000D-01 -7.5473269826994D-01 -2.0961414987835D-01
95  9.4000000000000D-01 -7.2664876757414D-01 -6.0635971886935D-02
96  9.5000000000000D-01 -6.9544954633942D-01  9.2963291202413D-02
97  9.6000000000000D-01 -6.6160136665055D-01  2.4875448467480D-01
98  9.7000000000000D-01 -6.2558155992066D-01  4.0429674606289D-01
99  9.8000000000000D-01 -5.8787168043532D-01  5.5717880640068D-01
100  9.9000000000000D-01 -5.4895078941879D-01  7.0505960615432D-01
101  1.0000000000000D+00 -5.0928890986692D-01  8.4570752457843D-01
102  1.0100000000000D+00 -4.6934075888779D-01  9.7703754593184D-01
103  1.0200000000000D+00 -4.2953985890148D-01  1.0971457228606D+00
104  1.0300000000000D+00 -3.9029312195760D-01  1.2043403449730D+00
105  1.0400000000000D+00 -3.5197599234118D-01  1.2971692811503D+00
106  1.0500000000000D+00 -3.1492822297593D-01  1.3744430280973D+00
107  1.0600000000000D+00 -2.7945034909922D-01  1.4352530769316D+00
108  1.0700000000000D+00 -2.4580091007152D-01  1.4789852923384D+00
109  1.0800000000000D+00 -2.1419445697276D-01  1.5053280852547D+00
110  1.0900000000000D+00 -1.8480036872326D-01  1.5142752573469D+00
111  1.1000000000000D+00 -1.5774248640998D-01  1.5061234805630D+00
112  1.1100000000000D+00 -1.3309955951146D-01  1.4814644789272D+00
113  1.1200000000000D+00 -1.1090648364754D-01  1.4411720709095D+00
114  1.1300000000000D+00 -9.1156295286196D-02  1.3863843225211D+00
115  1.1400000000000D+00 -7.3802875854376D-02  1.3184811451112D+00
116  1.1500000000000D+00 -5.8764305303136D-02  1.2390577517448D+00
117  1.1600000000000D+00 -4.5926792357036D-02  1.1498944683460D+00
118  1.1700000000000D+00 -3.5149099666450D-02  1.0529234533589D+00
119  1.1800000000000D+00 -2.6267374122684D-02  9.5019293044083D-01
120  1.1900000000000D+00 -1.9100284095780D-02  8.4382959263067D-01
121  1.2000000000000D+00 -1.3454360574278D-02  7.3599986613890D-01
122  1.2100000000000D+00 -9.1294369557567D-03  6.2887073490778D-01
123  1.2200000000000D+00 -5.9240792315334D-03  5.2457084710051D-01
124  1.2300000000000D+00 -3.6408995361963D-03  4.2515260932471D-01
125  1.2400000000000D+00 -2.0916461975479D-03  3.3255600200083D-01
126  1.2500000000000D+00 -1.1020021474447D-03  2.4857434008772D-01
127  1.2600000000000D+00 -5.1588038458983D-04  1.7482418763530D-01
128  1.2700000000000D+00 -1.9931653488381D-04  1.1275455516598D-01
129  1.2800000000000D+00 -4.4513171479156D-05  6.3369722655427D-02
130  1.2900000000000D+00  2.7205947462202D-05  2.7674153587228D-02
131  1.3000000000000D+00  6.8833038699686D-05  7.3763769862270D-03
132  1.3100000000000D+00  7.4994310138410D-05 -5.5623304084145D-05
133  1.3200000000000D+00  2.5311084323763D-05 -5.7306404565291D-04
134  1.3300000000000D+00 -8.0297837633458D-06  2.3652542070390D-04
135  1.3400000000000D+00 -1.3877132940322D-06  4.6835684635846D-05
136  1.3500000000000D+00  1.8429211809056D-06 -4.5728617024179D-05
137  1.3600000000000D+00 -1.2773267337861D-07 -2.1173222489823D-07
138  1.3700000000000D+00 -1.2621840646392D-07 -2.0922214588353D-07
139  1.3800000000000D+00  0.0000000000000D+00  0.0000000000000D+00
140  1.3900000000000D+00  0.0000000000000D+00  0.0000000000000D+00
141  1.4000000000000D+00  0.0000000000000D+00  0.0000000000000D+00
142  1.4100000000000D+00  0.0000000000000D+00  0.0000000000000D+00
143  1.4200000000000D+00  0.0000000000000D+00  0.0000000000000D+00
144  1.4300000000000D+00  0.0000000000000D+00  0.0000000000000D+00
145  1.4400000000000D+00  0.0000000000000D+00  0.0000000000000D+00
146  1.4500000000000D+00  0.0000000000000D+00  0.0000000000000D+00
147  1.4600000000000D+00  0.0000000000000D+00  0.0000000000000D+00
148  1.4700000000000D+00  0.0000000000000D+00  0.0000000000000D+00
149  1.4800000000000D+00  0.0000000000000D+00  0.0000000000000D+00
150  1.4900000000000D+00  0.0000000000000D+00  0.0000000000000D+00
151  1.5000000000000D+00  0.0000000000000D+00  0.0000000000000D+00
152  1.5100000000000D+00  0.0000000000000D+00  0.0000000000000D+00
153  1.5200000000000D+00  0.0000000000000D+00  0.0000000000000D+00
154  1.5300000000000D+00  0.0000000000000D+00  0.0000000000000D+00
155  1.5400000000000D+00  0.0000000000000D+00  0.0000000000000D+00
156  1.5500000000000D+00  0.0000000000000D+00  0.0000000000000D+00
157  1.5600000000000D+00  0.0000000000000D+00  0.0000000000000D+00
158  1.5700000000000D+00  0.0000000000000D+00  0.0000000000000D+00
159  1.5800000000000D+00  0.0000000000000D+00  0.0000000000000D+00
160  1.5900000000000D+00  0.0000000000000D+00  0.0000000000000D+00
161  1.6000000000000D+00  0.0000000000000D+00  0.0000000000000D+00
162  1.6100000000000D+00  0.0000000000000D+00  0.0000000000000D+00
163  1.6200000000000D+00  0.0000000000000D+00  0.0000000000000D+00
164  1.6300000000000D+00  0.0000000000000D+00  0.0000000000000D+00
165  1.6400000000000D+00  0.0000000000000D+00  0.0000000000000D+00
166  1.6500000000000D+00  0.0000000000000D+00  0.0000000000000D+00
167  1.6600000000000D+00  0.0000000000000D+00  0.0000000000000D+00
168  1.6700000000000D+00  0.0000000000000D+00  0.0000000000000D+00
169  1.6800000000000D+00  0.0000000000000D+00  0.0000000000000D+00
170  1.6900000000000D+00  0.0000000000000D+00  0.0000000000000D+00
171  1.7000000000000D+00  0.0000000000000D+00  0.0000000000000D+00
172  1.7100000000000D+00  0.0000000000000D+00  0.0000000000000D+00
173  1.7200000000000D+00  0.0000000000000D+00  0.0000000000000D+00
174  1.7300000000000D+00  0.0000000000000D+00  0.0000000000000D+00
175  1.7400000000000D+00  0.0000000000000D+00  0.0000000000000D+00
176  1.7500000000000D+00  0.0000000000000D+00  0.0000000000000D+00
177  1.7600000000000D+00  0.0000000000000D+00  0.0000000000000D+00
178  1.7700000000000D+00  0.0000000000000D+00  0.0000000000000D+00
179  1.7800000000000D+00  0.0000000000000D+00  0.0000000000000D+00
180  1.7900000000000D+00  0.0000000000000D+00  0.0000000000000D+00
181  1.8000000000000D+00  0.0000000000000D+00  0.0000000000000D+00
182  1.8100000000000D+00  0.0000000000000D+00  0.0000000000000D+00
183  1.8200000000000D+00  0.0000000000000D+00  0.0000000000000D+00
184  1.8300000000000D+00  0.0000000000000D+00  0.0000000000000D+00
185  1.8400000000000D+00  0.0000000000000D+00  0.0000000000000D+00
186  1.8500000000000D+00  0.0000000000000D+00  0.0000000000000D+00
187  1.8600000000000D+00  0.0000000000000D+00  0.0000000000000D+00
188  1.8700000000000D+00  0.0000000000000D+00  0.0000000000000D+00
189  1.8800000000000D+00  0.0000000000000D+00  0.0000000000000D+00
190  1.8900000000000D+00  0.0000000000000D+00  0.0000000000000D+00
191  1.9000000000000D+00  0.0000000000000D+00  0.0000000000000D+00
192  1.9100000000000D+00  0.0000000000000D+00  0.0000000000000D+00
193  1.9200000000000D+00  0.0000000000000D+00  0.0000000000000D+00
194  1.9300000000000D+00  0.0000000000000D+00  0.0000000000000D+00
195  1.9400000000000D+00  0.0000000000000D+00  0.0000000000000D+00
196  1.9500000000000D+00  0.0000000000000D+00  0.0000000000000D+00
197  1.9600000000000D+00  0.0000000000000D+00  0.0000000000000D+00
198  1.9700000000000D+00  0.0000000000000D+00  0.0000000000000D+00
199  1.9800000000000D+00  0.0000000000000D+00  0.0000000000000D+00
200  1.9900000000000D+00  0.0000000000000D+00  0.0000000000000D+00
201  2.0000000000000D+00  0.0000000000000D+00  0.0000000000000D+00
202  2.0100000000000D+00  0.0000000000000D+00  0.0000000000000D+00
203  2.0200000000000D+00  0.0000000000000D+00  0.0000000000000D+00
204  2.0300000000000D+00  0.0000000000000D+00  0.0000000000000D+00
205  2.0400000000000D+00  0.0000000000000D+00  0.0000000000000D+00
206  2.0500000000000D+00  0.0000000000000D+00  0.0000000000000D+00
207  2.0600000000000D+00  0.0000000000000D+00  0.0000000000000D+00
208  2.0700000000000D+00  0.0000000000000D+00  0.0000000000000D+00
209  2.0800000000000D+00  0.0000000000000D+00  0.0000000000000D+00
210  2.0900000000000D+00  0.0000000000000D+00  0.0000000000000D+00
211  2.1000000000000D+00  0.0000000000000D+00  0.0000000000000D+00
212  2.1100000000000D+00  0.0000000000000D+00  0.0000000000000D+00
213  2.1200000000000D+00  0.0000000000000D+00  0.0000000000000D+00
214  2.1300000000000D+00  0.0000000000000D+00  0.0000000000000D+00
215  2.1400000000000D+00  0.0000000000000D+00  0.0000000000000D+00
216  2.1500000000000D+00  0.0000000000000D+00  0.0000000000000D+00
217  2.1600000000000D+00  0.0000000000000D+00  0.0000000000000D+00
218  2.1700000000000D+00  0.0000000000000D+00  0.0000000000000D+00
219  2.1800000000000D+00  0.0000000000000D+00  0.0000000000000D+00
220  2.1900000000000D+00  0.0000000000000D+00  0.0000000000000D+00
221  2.2000000000000D+00  0.0000000000000D+00  0.0000000000000D+00
222  2.2100000000000D+00  0.0000000000000D+00  0.0000000000000D+00
223  2.2200000000000D+00  0.0000000000000D+00  0.0000000000000D+00
224  2.2300000000000D+00  0.0000000000000D+00  0.0000000000000D+00
225  2.2400000000000D+00  0.0000000000000D+00  0.0000000000000D+00
226  2.2500000000000D+00  0.0000000000000D+00  0.0000000000000D+00
227  2.2600000000000D+00  0.0000000000000D+00  0.0000000000000D+00
228  2.2700000000000D+00  0.0000000000000D+00  0.0000000000000D+00
229  2.2800000000000D+00  0.0000000000000D+00  0.0000000000000D+00
230  2.2900000000000D+00  0.0000000000000D+00  0.0000000000000D+00
231  2.3000000000000D+00  0.0000000000000D+00  0.0000000000000D+00
232  2.3100000000000D+00  0.0000000000000D+00  0.0000000000000D+00
233  2.3200000000000D+00  0.0000000000000D+00  0.0000000000000D+00
234  2.3300000000000D+00  0.0000000000000D+00  0.0000000000000D+00
235  2.3400000000000D+00  0.0000000000000D+00  0.0000000000000D+00
236  2.3500000000000D+00  0.0000000000000D+00  0.0000000000000D+00
237  2.3600000000000D+00  0.0000000000000D+00  0.0000000000000D+00
238  2.3700000000000D+00  0.0000000000000D+00  0.0000000000000D+00
239  2.3800000000000D+00  0.0000000000000D+00  0.0000000000000D+00
240  2.3900000000000D+00  0.0000000000000D+00  0.0000000000000D+00
241  2.4000000000000D+00  0.0000000000000D+00  0.0000000000000D+00
242  2.4100000000000D+00  0.0000000000000D+00  0.0000000000000D+00
243  2.4200000000000D+00  0.0000000000000D+00  0.0000000000000D+00
244  2.4300000000000D+00  0.0000000000000D+00  0.0000000000000D+00
245  2.4400000000000D+00  0.0000000000000D+00  0.0000000000000D+00
246  2.4500000000000D+00  0.0000000000000D+00  0.0000000000000D+00
247  2.4600000000000D+00  0.0000000000000D+00  0.0000000000000D+00
248  2.4700000000000D+00  0.0000000000000D+00  0.0000000000000D+00
249  2.4800000000000D+00  0.0000000000000D+00  0.0000000000000D+00
250  2.4900000000000D+00  0.0000000000000D+00  0.0000000000000D+00
251  2.5000000000000D+00  0.0000000000000D+00  0.0000000000000D+00
252  2.5100000000000D+00  0.0000000000000D+00  0.0000000000000D+00
253  2.5200000000000D+00  0.0000000000000D+00  0.0000000000000D+00
254  2.5300000000000D+00  0.0000000000000D+00  0.0000000000000D+00
255  2.5400000000000D+00  0.0000000000000D+00  0.0000000000000D+00
256  2.5500000000000D+00  0.0000000000000D+00  0.0000000000000D+00
257  2.5600000000000D+00  0.0000000000000D+00  0.0000000000000D+00
258  2.5700000000000D+00  0.0000000000000D+00  0.0000000000000D+00
259  2.5800000000000D+00  0.0000000000000D+00  0.0000000000000D+00
260  2.5900000000000D+00  0.0000000000000D+00  0.0000000000000D+00
261  2.6000000000000D+00  0.0000000000000D+00  0.0000000000000D+00
262  2.6100000000000D+00  0.0000000000000D+00  0.0000000000000D+00
263  2.6200000000000D+00  0.0000000000000D+00  0.0000000000000D+00
264  2.6300000000000D+00  0.0000000000000D+00  0.0000000000000D+00
265  2.6400000000000D+00  0.0000000000000D+00  0.0000000000000D+00
266  2.6500000000000D+00  0.0000000000000D+00  0.0000000000000D+00
267  2.6600000000000D+00  0.0000000000000D+00  0.0000000000000D+00
268  2.6700000000000D+00  0.0000000000000D+00  0.0000000000000D+00
269  2.6800000000000D+00  0.0000000000000D+00  0.0000000000000D+00
270  2.6900000000000D+00  0.0000000000000D+00  0.0000000000000D+00
271  2.7000000000000D+00  0.0000000000000D+00  0.0000000000000D+00
272  2.7100000000000D+00  0.0000000000000D+00  0.0000000000000D+00
273  2.7200000000000D+00  0.0000000000000D+00  0.0000000000000D+00
274  2.7300000000000D+00  0.0000000000000D+00  0.0000000000000D+00
275  2.7400000000000D+00  0.0000000000000D+00  0.0000000000000D+00
276  2.7500000000000D+00  0.0000000000000D+00  0.0000000000000D+00
277  2.7600000000000D+00  0.0000000000000D+00  0.0000000000000D+00
278  2.7700000000000D+00  0.0000000000000D+00  0.0000000000000D+00
279  2.7800000000000D+00  0.0000000000000D+00  0.0000000000000D+00
280  2.7900000000000D+00  0.0000000000000D+00  0.0000000000000D+00
281  2.8000000000000D+00  0.0000000000000D+00  0.0000000000000D+00
282  2.8100000000000D+00  0.0000000000000D+00  0.0000000000000D+00
283  2.8200000000000D+00  0.0000000000000D+00  0.0000000000000D+00
284  2.8300000000000D+00  0.0000000000000D+00  0.0000000000000D+00
285  2.8400000000000D+00  0.0000000000000D+00  0.0000000000000D+00
286  2.8500000000000D+00  0.0000000000000D+00  0.0000000000000D+00
287  2.8600000000000D+00  0.0000000000000D+00  0.0000000000000D+00
288  2.8700000000000D+00  0.0000000000000D+00  0.0000000000000D+00
289  2.8800000000000D+00  0.0000000000000D+00  0.0000000000000D+00
290  2.8900000000000D+00  0.0000000000000D+00  0.0000000000000D+00
291  2.9000000000000D+00  0.0000000000000D+00  0.0000000000000D+00
292  2.9100000000000D+00  0.0000000000000D+00  0.0000000000000D+00
293  2.9200000000000D+00  0.0000000000000D+00  0.0000000000000D+00
294  2.9300000000000D+00  0.0000000000000D+00  0.0000000000000D+00
295  2.9400000000000D+00  0.0000000000000D+00  0.0000000000000D+00
296  2.9500000000000D+00  0.0000000000000D+00  0.0000000000000D+00
297  2.9600000000000D+00  0.0000000000000D+00  0.0000000000000D+00
298  2.9700000000000D+00  0.0000000000000D+00  0.0000000000000D+00
299  2.9800000000000D+00  0.0000000000000D+00  0.0000000000000D+00
300  2.9900000000000D+00  0.0000000000000D+00  0.0000000000000D+00
301  3.0000000000000D+00  0.0000000000000D+00  0.0000000000000D+00
302  3.0100000000000D+00  0.0000000000000D+00  0.0000000000000D+00
303  3.0200000000000D+00  0.0000000000000D+00  0.0000000000000D+00
304  3.0300000000000D+00  0.0000000000000D+00  0.0000000000000D+00
305  3.0400000000000D+00  0.0000000000000D+00  0.0000000000000D+00
306  3.0500000000000D+00  0.0000000000000D+00  0.0000000000000D+00
307  3.0600000000000D+00  0.0000000000000D+00  0.0000000000000D+00
308  3.0700000000000D+00  0.0000000000000D+00  0.0000000000000D+00
309  3.0800000000000D+00  0.0000000000000D+00  0.0000000000000D+00
310  3.0900000000000D+00  0.0000000000000D+00  0.0000000000000D+00
311  3.1000000000000D+00  0.0000000000000D+00  0.0000000000000D+00
312  3.1100000000000D+00  0.0000000000000D+00  0.0000000000000D+00
313  3.1200000000000D+00  0.0000000000000D+00  0.0000000000000D+00
314  3.1300000000000D+00  0.0000000000000D+00  0.0000000000000D+00
315  3.1400000000000D+00  0.0000000000000D+00  0.0000000000000D+00
316  3.1500000000000D+00  0.0000000000000D+00  0.0000000000000D+00
317  3.1600000000000D+00  0.0000000000000D+00  0.0000000000000D+00
318  3.1700000000000D+00  0.0000000000000D+00  0.0000000000000D+00
319  3.1800000000000D+00  0.0000000000000D+00  0.0000000000000D+00
320  3.1900000000000D+00  0.0000000000000D+00  0.0000000000000D+00
321  3.2000000000000D+00  0.0000000000000D+00  0.0000000000000D+00
322  3.2100000000000D+00  0.0000000000000D+00  0.0000000000000D+00
323  3.2200000000000D+00  0.0000000000000D+00  0.0000000000000D+00
324  3.2300000000000D+00  0.0000000000000D+00  0.0000000000000D+00
325  3.2400000000000D+00  0.0000000000000D+00  0.0000000000000D+00
326  3.2500000000000D+00  0.0000000000000D+00  0.0000000000000D+00
327  3.2600000000000D+00  0.0000000000000D+00  0.0000000000000D+00
328  3.2700000000000D+00  0.0000000000000D+00  0.0000000000000D+00
329  3.2800000000000D+00  0.0000000000000D+00  0.0000000000000D+00
330  3.2900000000000D+00  0.0000000000000D+00  0.0000000000000D+00
331  3.3000000000000D+00  0.0000000000000D+00  0.0000000000000D+00
332  3.3100000000000D+00  0.0000000000000D+00  0.0000000000000D+00
333  3.3200000000000D+00  0.0000000000000D+00  0.0000000000000D+00
334  3.3300000000000D+00  0.0000000000000D+00  0.0000000000000D+00
335  3.3400000000000D+00  0.0000000000000D+00  0.0000000000000D+00
336  3.3500000000000D+00  0.0000000000000D+00  0.0000000000000D+00
337  3.3600000000000D+00  0.0000000000000D+00  0.0000000000000D+00
338  3.3700000000000D+00  0.0000000000000D+00  0.0000000000000D+00
339  3.3800000000000D+00  0.0000000000000D+00  0.0000000000000D+00
340  3.3900000000000D+00  0.0000000000000D+00  0.0000000000000D+00
341  3.4000000000000D+00  0.0000000000000D+00  0.0000000000000D+00
342  3.4100000000000D+00  0.0000000000000D+00  0.0000000000000D+00
343  3.4200000000000D+00  0.0000000000000D+00  0.0000000000000D+00
344  3.4300000000000D+00  0.0000000000000D+00  0.0000000000000D+00
345  3.4400000000000D+00  0.0000000000000D+00  0.0000000000000D+00
346  3.4500000000000D+00  0.0000000000000D+00  0.0000000000000D+00
347  3.4600000000000D+00  0.0000000000000D+00  0.0000000000000D+00
348  3.4700000000000D+00  0.0000000000000D+00  0.0000000000000D+00
349  3.4800000000000D+00  0.0000000000000D+00  0.0000000000000D+00
350  3.4900000000000D+00  0.0000000000000D+00  0.0000000000000D+00
351  3.5000000000000D+00  0.0000000000000D+00  0.0000000000000D+00
352  3.5100000000000D+00  0.0000000000000D+00  0.0000000000000D+00
353  3.5200000000000D+00  0.0000000000000D+00  0.0000000000000D+00
354  3.5300000000000D+00  0.0000000000000D+00  0.0000000000000D+00
355  3.5400000000000D+00  0.0000000000000D+00  0.0000000000000D+00
356  3.5500000000000D+00  0.0000000000000D+00  0.0000000000000D+00
357  3.5600000000000D+00  0.0000000000000D+00  0.0000000000000D+00
358  3.5700000000000D+00  0.0000000000000D+00  0.0000000000000D+00
359  3.5800000000000D+00  0.0000000000000D+00  0.0000000000000D+00
360  3.5900000000000D+00  0.0000000000000D+00  0.0000000000000D+00
361  3.6000000000000D+00  0.0000000000000D+00  0.0000000000000D+00
362  3.6100000000000D+00  0.0000000000000D+00  0.0000000000000D+00
363  3.6200000000000D+00  0.0000000000000D+00  0.0000000000000D+00
364  3.6300000000000D+00  0.0000000000000D+00  0.0000000000000D+00
365  3.6400000000000D+00  0.0000000000000D+00  0.0000000000000D+00
366  3.6500000000000D+00  0.0000000000000D+00  0.0000000000000D+00
367  3.6600000000000D+00  0.0000000000000D+00  0.0000000000000D+00
368  3.6700000000000D+00  0.0000000000000D+00  0.0000000000000D+00
369  3.6800000000000D+00  0.0000000000000D+00  0.0000000000000D+00
370  3.6900000000000D+00  0.0000000000000D+00  0.0000000000000D+00
371  3.7000000000000D+00  0.0000000000000D+00  0.0000000000000D+00
372  3.7100000000000D+00  0.0000000000000D+00  0.0000000000000D+00
373  3.7200000000000D+00  0.0000000000000D+00  0.0000000000000D+00
374  3.7300000000000D+00  0.0000000000000D+00  0.0000000000000D+00
375  3.7400000000000D+00  0.0000000000000D+00  0.0000000000000D+00
376  3.7500000000000D+00  0.0000000000000D+00  0.0000000000000D+00
377  3.7600000000000D+00  0.0000000000000D+00  0.0000000000000D+00
378  3.7700000000000D+00  0.0000000000000D+00  0.0000000000000D+00
379  3.7800000000000D+00  0.0000000000000D+00  0.0000000000000D+00
380  3.7900000000000D+00  0.0000000000000D+00  0.0000000000000D+00
381  3.8000000000000D+00  0.0000000000000D+00  0.0000000000000D+00
382  3.8100000000000D+00  0.0000000000000D+00  0.0000000000000D+00
383  3.8200000000000D+00  0.0000000000000D+00  0.0000000000000D+00
384  3.8300000000000D+00  0.0000000000000D+00  0.0000000000000D+00
385  3.8400000000000D+00  0.0000000000000D+00  0.0000000000000D+00
386  3.8500000000000D+00  0.0000000000000D+00  0.0000000000000D+00
387  3.8600000000000D+00  0.0000000000000D+00  0.0000000000000D+00
388  3.8700000000000D+00  0.0000000000000D+00  0.0000000000000D+00
389  3.8800000000000D+00  0.0000000000000D+00  0.0000000000000D+00
390  3.8900000000000D+00  0.0000000000000D+00  0.0000000000000D+00
391  3.9000000000000D+00  0.0000000000000D+00  0.0000000000000D+00
392  3.9100000000000D+00  0.0000000000000D+00  0.0000000000000D+00
393  3.9200000000000D+00  0.0000000000000D+00  0.0000000000000D+00
394  3.9300000000000D+00  0.0000000000000D+00  0.0000000000000D+00
395  3.9400000000000D+00  0.0000000000000D+00  0.0000000000000D+00
396  3.9500000000000D+00  0.0000000000000D+00  0.0000000000000D+00
397  3.9600000000000D+00  0.0000000000000D+00  0.0000000000000D+00
398  3.9700000000000D+00  0.0000000000000D+00  0.0000000000000D+00
399  3.9800000000000D+00  0.0000000000000D+00  0.0000000000000D+00
400  3.9900000000000D+00  0.0000000000000D+00  0.0000000000000D+00
401  4.0000000000000D+00  0.0000000000000D+00  0.0000000000000D+00
402  4.0100000000000D+00  0.0000000000000D+00  0.0000000000000D+00
403  4.0200000000000D+00  0.0000000000000D+00  0.0000000000000D+00
404  4.0300000000000D+00  0.0000000000000D+00  0.0000000000000D+00
405  4.0400000000000D+00  0.0000000000000D+00  0.0000000000000D+00
406  4.0500000000000D+00  0.0000000000000D+00  0.0000000000000D+00
407  4.0600000000000D+00  0.0000000000000D+00  0.0000000000000D+00
408  4.0700000000000D+00  0.0000000000000D+00  0.0000000000000D+00
409  4.0800000000000D+00  0.0000000000000D+00  0.0000000000000D+00
410  4.0900000000000D+00  0.0000000000000D+00  0.0000000000000D+00
411  4.1000000000000D+00  0.0000000000000D+00  0.0000000000000D+00
412  4.1100000000000D+00  0.0000000000000D+00  0.0000000000000D+00
413  4.1200000000000D+00  0.0000000000000D+00  0.0000000000000D+00
414  4.1300000000000D+00  0.0000000000000D+00  0.0000000000000D+00
415  4.1400000000000D+00  0.0000000000000D+00  0.0000000000000D+00
416  4.1500000000000D+00  0.0000000000000D+00  0.0000000000000D+00
417  4.1600000000000D+00  0.0000000000000D+00  0.0000000000000D+00
418  4.1700000000000D+00  0.0000000000000D+00  0.0000000000000D+00
419  4.1800000000000D+00  0.0000000000000D+00  0.0000000000000D+00
420  4.1900000000000D+00  0.0000000000000D+00  0.0000000000000D+00
421  4.2000000000000D+00  0.0000000000000D+00  0.0000000000000D+00
422  4.2100000000000D+00  0.0000000000000D+00  0.0000000000000D+00
423  4.2200000000000D+00  0.0000000000000D+00  0.0000000000000D+00
424  4.2300000000000D+00  0.0000000000000D+00  0.0000000000000D+00
425  4.2400000000000D+00  0.0000000000000D+00  0.0000000000000D+00
426  4.2500000000000D+00  0.0000000000000D+00  0.0000000000000D+00
427  4.2600000000000D+00  0.0000000000000D+00  0.0000000000000D+00
428  4.2700000000000D+00  0.0000000000000D+00  0.0000000000000D+00
429  4.2800000000000D+00  0.0000000000000D+00  0.0000000000000D+00
430  4.2900000000000D+00  0.0000000000000D+00  0.0000000000000D+00
431  4.3000000000000D+00  0.0000000000000D+00  0.0000000000000D+00
432  4.3100000000000D+00  0.0000000000000D+00  0.0000000000000D+00
433  4.3200000000000D+00  0.0000000000000D+00  0.0000000000000D+00
434  4.3300000000000D+00  0.0000000000000D+00  0.0000000000000D+00
435  4.3400000000000D+00  0.0000000000000D+00  0.0000000000000D+00
436  4.3500000000000D+00  0.0000000000000D+00  0.0000000000000D+00
437  4.3600000000000D+00  0.0000000000000D+00  0.0000000000000D+00
438  4.3700000000000D+00  0.0000000000000D+00  0.0000000000000D+00
439  4.3800000000000D+00  0.0000000000000D+00  0.0000000000000D+00
440  4.3900000000000D+00  0.0000000000000D+00  0.0000000000000D+00
441  4.4000000000000D+00  0.0000000000000D+00  0.0000000000000D+00
442  4.4100000000000D+00  0.0000000000000D+00  0.0000000000000D+00
443  4.4200000000000D+00  0.0000000000000D+00  0.0000000000000D+00
444  4.4300000000000D+00  0.0000000000000D+00  0.0000000000000D+00