Ir    ONCVPSP  r_core=  2.52  1.92  1.85
77.0000     15.0000      150811    zatom,zion,pspd
8      11   2     4   500     0    pspcod,pspxc,lmax,lloc,mmax,r2well
4.99000000  5.00000000  0.00000000    rchrg fchrg qchrg
2     2     2     0     0    nproj
0                 extension_switch
0                         4.5534440175508D+00  5.6392333177645D-01
1  0.0000000000000D+00 -1.8763185449799D-11  4.2674919153995D-11
2  1.0000000000000D-02  2.2588068568743D-02 -3.0204082631918D-02
3  2.0000000000000D-02  4.5146951042768D-02 -6.0348295477156D-02
4  3.0000000000000D-02  6.7647564568330D-02 -9.0372972239274D-02
5  4.0000000000000D-02  9.0061031865290D-02 -1.2021885100490D-01
6  5.0000000000000D-02  1.1235878211412D-01 -1.4982727134469D-01
7  6.0000000000000D-02  1.3451264995760D-01 -1.7914036677839D-01
8  7.0000000000000D-02  1.5649497219607D-01 -2.0810125180498D-01
9  8.0000000000000D-02  1.7827868177398D-01 -2.3665420274165D-01
10  9.0000000000000D-02  1.9983739867556D-01 -2.6474483166089D-01
11  1.0000000000000D-01  2.2114551736925D-01 -2.9232025276324D-01
12  1.1000000000000D-01  2.4217829046303D-01 -3.1932924057364D-01
13  1.2000000000000D-01  2.6291190825685D-01 -3.4572237940199D-01
14  1.3000000000000D-01  2.8332357390316D-01 -3.7145220356234D-01
15  1.4000000000000D-01  3.0339157391186D-01 -3.9647332790072D-01
16  1.5000000000000D-01  3.2309534376239D-01 -4.2074256823812D-01
17  1.6000000000000D-01  3.4241552841213D-01 -4.4421905139179D-01
18  1.7000000000000D-01  3.6133403751748D-01 -4.6686431449581D-01
19  1.8000000000000D-01  3.7983409521077D-01 -4.8864239339901D-01
20  1.9000000000000D-01  3.9790028430378D-01 -5.0951989997564D-01
21  2.0000000000000D-01  4.1551858481547D-01 -5.2946608824040D-01
22  2.1000000000000D-01  4.3267640674832D-01 -5.4845290921539D-01
23  2.2000000000000D-01  4.4936261706464D-01 -5.6645505455087D-01
24  2.3000000000000D-01  4.6556756083958D-01 -5.8344998895472D-01
25  2.4000000000000D-01  4.8128307659363D-01 -5.9941797153699D-01
26  2.5000000000000D-01  4.9650250583176D-01 -6.1434206622542D-01
27  2.6000000000000D-01  5.1122069684034D-01 -6.2820814145505D-01
28  2.7000000000000D-01  5.2543400281608D-01 -6.4100485938031D-01
29  2.8000000000000D-01  5.3914027442317D-01 -6.5272365490027D-01
30  2.9000000000000D-01  5.5233884689568D-01 -6.6335870482787D-01
31  3.0000000000000D-01  5.6503052182231D-01 -6.7290688757099D-01
32  3.1000000000000D-01  5.7721754376891D-01 -6.8136773372721D-01
33  3.2000000000000D-01  5.8890357191159D-01 -6.8874336802547D-01
34  3.3000000000000D-01  6.0009364686945D-01 -6.9503844307592D-01
35  3.4000000000000D-01  6.1079415294044D-01 -7.0026006541384D-01
36  3.5000000000000D-01  6.2101277595721D-01 -7.0441771434539D-01
37  3.6000000000000D-01  6.3075845699192D-01 -7.0752315412145D-01
38  3.7000000000000D-01  6.4004134214931D-01 -7.0959033998065D-01
39  3.8000000000000D-01  6.4887272869669D-01 -7.1063531861523D-01
40  3.9000000000000D-01  6.5726500778716D-01 -7.1067612362133D-01
41  4.0000000000000D-01  6.6523160403881D-01 -7.0973266650206D-01
42  4.1000000000000D-01  6.7278691223775D-01 -7.0782662379323D-01
43  4.2000000000000D-01  6.7994623143662D-01 -7.0498132088193D-01
44  4.3000000000000D-01  6.8672569672250D-01 -7.0122161308484D-01
45  4.4000000000000D-01  6.9314220892973D-01 -6.9657376454665D-01
46  4.5000000000000D-01  6.9921336257282D-01 -6.9106532551119D-01
47  4.6000000000000D-01  7.0495737227392D-01 -6.8472500850589D-01
48  4.7000000000000D-01  7.1039299795694D-01 -6.7758256396746D-01
49  4.8000000000000D-01  7.1553946907737D-01 -6.6966865582049D-01
50  4.9000000000000D-01  7.2041640815281D-01 -6.6101473750360D-01
51  5.0000000000000D-01  7.2504375385407D-01 -6.5165292891780D-01
52  5.1000000000000D-01  7.2944168391127D-01 -6.4161589475098D-01
53  5.2000000000000D-01  7.3363053808257D-01 -6.3093672460976D-01
54  5.3000000000000D-01  7.3763074142617D-01 -6.1964881536613D-01
55  5.4000000000000D-01  7.4146272810872D-01 -6.0778575610133D-01
56  5.5000000000000D-01  7.4514686597452D-01 -5.9538121600375D-01
57  5.6000000000000D-01  7.4870338209201D-01 -5.8246883555097D-01
58  5.7000000000000D-01  7.5215228948435D-01 -5.6908212127905D-01
59  5.8000000000000D-01  7.5551331524218D-01 -5.5525434441518D-01
60  5.9000000000000D-01  7.5880583020678D-01 -5.4101844362139D-01
61  6.0000000000000D-01  7.6204878040251D-01 -5.2640693207076D-01
62  6.1000000000000D-01  7.6526062038753D-01 -5.1145180904902D-01
63  6.2000000000000D-01  7.6845924868215D-01 -4.9618447624856D-01
64  6.3000000000000D-01  7.7166194542438D-01 -4.8063565889431D-01
65  6.4000000000000D-01  7.7488531239290D-01 -4.6483533181619D-01
66  6.5000000000000D-01  7.7814521552771D-01 -4.4881265055664D-01
67  6.6000000000000D-01  7.8145673006994D-01 -4.3259588757861D-01
68  6.7000000000000D-01  7.8483408843291D-01 -4.1621237361523D-01
69  6.8000000000000D-01  7.8829063090760D-01 -3.9968844418070D-01
70  6.9000000000000D-01  7.9183875929750D-01 -3.8304939124117D-01
71  7.0000000000000D-01  7.9548989356899D-01 -3.6631942002392D-01
72  7.1000000000000D-01  7.9925443159596D-01 -3.4952161092553D-01
73  7.2000000000000D-01  8.0314171206915D-01 -3.3267788646191D-01
74  7.3000000000000D-01  8.0715998063396D-01 -3.1580898318791D-01
75  7.4000000000000D-01  8.1131635931290D-01 -2.9893442849950D-01
76  7.5000000000000D-01  8.1561681926249D-01 -2.8207252221857D-01
77  7.6000000000000D-01  8.2006615690801D-01 -2.6524032284931D-01
78  7.7000000000000D-01  8.2466797349320D-01 -2.4845363838430D-01
79  7.8000000000000D-01  8.2942465807646D-01 -2.3172702153011D-01
80  7.9000000000000D-01  8.3433737399938D-01 -2.1507376921468D-01
81  8.0000000000000D-01  8.3940604884807D-01 -1.9850592623227D-01
82  8.1000000000000D-01  8.4462936792297D-01 -1.8203429287714D-01
83  8.2000000000000D-01  8.5000477122734D-01 -1.6566843641279D-01
84  8.3000000000000D-01  8.5552845398022D-01 -1.4941670622120D-01
85  8.4000000000000D-01  8.6119537065498D-01 -1.3328625247484D-01
86  8.5000000000000D-01  8.6699924253956D-01 -1.1728304817279D-01
87  8.6000000000000D-01  8.7293256881036D-01 -1.0141191438265D-01
88  8.7000000000000D-01  8.7898664110666D-01 -8.5676548530463D-02
89  8.8000000000000D-01  8.8515156158825D-01 -7.0079555582656D-02
90  8.9000000000000D-01  8.9141626445387D-01 -5.4622481964745D-02
91  9.0000000000000D-01  8.9776854089327D-01 -3.9305852064909D-02
92  9.1000000000000D-01  9.0419506744076D-01 -2.4129207172591D-02
93  9.2000000000000D-01  9.1068143769282D-01 -9.0911467050677D-03
94  9.3000000000000D-01  9.1721219734694D-01  5.8106284218732D-03
95  9.4000000000000D-01  9.2377088251318D-01  2.0579270420332D-02
96  9.5000000000000D-01  9.3034006124400D-01  3.5218737391691D-02
97  9.6000000000000D-01  9.3690137822162D-01  4.9733744358353D-02
98  9.7000000000000D-01  9.4343560253559D-01  6.4129712698887D-02
99  9.8000000000000D-01  9.4992267847664D-01  7.8412718116350D-02
100  9.9000000000000D-01  9.5634177926524D-01  9.2589437269061D-02
101  1.0000000000000D+00  9.6267136362614D-01  1.0666709319036D-01
102  1.0100000000000D+00  9.6888923511213D-01  1.2065339962360D-01
103  1.0200000000000D+00  9.7497260407203D-01  1.3455650439763D-01
104  1.0300000000000D+00  9.8089815214978D-01  1.4838493196817D-01
105  1.0400000000000D+00  9.8664209919191D-01  1.6214752525134D-01
106  1.0500000000000D+00  9.9218027243284D-01  1.7585338687617D-01
107  1.0600000000000D+00  9.9748817781704D-01  1.8951181998484D-01
108  1.0700000000000D+00  1.0025410733082D+00  2.0313226871183D-01
109  1.0800000000000D+00  1.0073140440261D+00  2.1672425847545D-01
110  1.0900000000000D+00  1.0117820790407D+00  2.3029733621929D-01
111  1.1000000000000D+00  1.0159201496464D+00  2.4386101074363D-01
112  1.1100000000000D+00  1.0197032889250D+00  2.5742469327229D-01
113  1.1200000000000D+00  1.0231066724011D+00  2.7099763840395D-01
114  1.1300000000000D+00  1.0261056995788D+00  2.8458888560228D-01
115  1.1400000000000D+00  1.0286760761447D+00  2.9820720138397D-01
116  1.1500000000000D+00  1.0307938966086D+00  3.1186102236825D-01
117  1.1600000000000D+00  1.0324357271460D+00  3.2555839935769D-01
118  1.1700000000000D+00  1.0335786883987D+00  3.3930694262478D-01
119  1.1800000000000D+00  1.0342005379808D+00  3.5311376858196D-01
120  1.1900000000000D+00  1.0342797524317D+00  3.6698544801964D-01
121  1.2000000000000D+00  1.0337956083474D+00  3.8092795609925D-01
122  1.2100000000000D+00  1.0327282624198D+00  3.9494662429248D-01
123  1.2200000000000D+00  1.0310588301063D+00  4.0904609445957D-01
124  1.2300000000000D+00  1.0287694626475D+00  4.2323027526366D-01
125  1.2400000000000D+00  1.0258434221472D+00  4.3750230111668D-01
126  1.2500000000000D+00  1.0222651544296D+00  4.5186449385426D-01
127  1.2600000000000D+00  1.0180203593827D+00  4.6631832733579D-01
128  1.2700000000000D+00  1.0130960585022D+00  4.8086439516061D-01
129  1.2800000000000D+00  1.0074806593472D+00  4.9550238169231D-01
130  1.2900000000000D+00  1.0011640166229D+00  5.1023103657485D-01
131  1.3000000000000D+00  9.9413748961333D-01  5.2504815291279D-01
132  1.3100000000000D+00  9.8639399568539D-01  5.3995054929141D-01
133  1.3200000000000D+00  9.7792805959674D-01  5.5493405579130D-01
134  1.3300000000000D+00  9.6873585835545D-01  5.6999350413438D-01
135  1.3400000000000D+00  9.5881526136809D-01  5.8512272211133D-01
136  1.3500000000000D+00  9.4816586565094D-01  6.0031453238782D-01
137  1.3600000000000D+00  9.3678902587824D-01  6.1556075578779D-01
138  1.3700000000000D+00  9.2468787904369D-01  6.3085221914912D-01
139  1.3800000000000D+00  9.1186736356474D-01  6.4617876777276D-01
140  1.3900000000000D+00  8.9833423263229D-01  6.6152928252406D-01
141  1.4000000000000D+00  8.8409706165348D-01  6.7689170158263D-01
142  1.4100000000000D+00  8.6916624967436D-01  6.9225304678334D-01
143  1.4200000000000D+00  8.5355401462025D-01  7.0759945455860D-01
144  1.4300000000000D+00  8.3727438232057D-01  7.2291621131463D-01
145  1.4400000000000D+00  8.2034316920950D-01  7.3818779317771D-01
146  1.4500000000000D+00  8.0277795867387D-01  7.5339790993714D-01
147  1.4600000000000D+00  7.8459807106902D-01  7.6852955294282D-01
148  1.4700000000000D+00  7.6582452734404D-01  7.8356504682509D-01
149  1.4800000000000D+00  7.4648000642535D-01  7.9848610461823D-01
150  1.4900000000000D+00  7.2658879632656D-01  8.1327388611873D-01
151  1.5000000000000D+00  7.0617673917848D-01  8.2790905899743D-01
152  1.5100000000000D+00  6.8527117027284D-01  8.4237186232372D-01
153  1.5200000000000D+00  6.6390085128092D-01  8.5664217206565D-01
154  1.5300000000000D+00  6.4209589791745D-01  8.7069956798042D-01
155  1.5400000000000D+00  6.1988770215837D-01  8.8452340153152D-01
156  1.5500000000000D+00  5.9730884946130D-01  8.9809286400184D-01
157  1.5600000000000D+00  5.7439303106992D-01  9.1138705447583D-01
158  1.5700000000000D+00  5.5117495196145D-01  9.2438504670967D-01
159  1.5800000000000D+00  5.2769023459567D-01  9.3706595445625D-01
160  1.5900000000000D+00  5.0397531902950D-01  9.4940899425851D-01
161  1.6000000000000D+00  4.8006735969330D-01  9.6139354509000D-01
162  1.6100000000000D+00  4.5600411937344D-01  9.7299920388371D-01
163  1.6200000000000D+00  4.3182386083090D-01  9.8420583614916D-01
164  1.6300000000000D+00  4.0756523658520D-01  9.9499362073865D-01
165  1.6400000000000D+00  3.8326717740816D-01  1.0053430878139D+00
166  1.6500000000000D+00  3.5896878005369D-01  1.0152351490757D+00
167  1.6600000000000D+00  3.3470919485516D-01  1.0246511192017D+00
168  1.6700000000000D+00  3.1052751373007D-01  1.0335727275323D+00
169  1.6800000000000D+00  2.8646265927796D-01  1.0419821188941D+00
170  1.6900000000000D+00  2.6255327554239D-01  1.0498618425525D+00
171  1.7000000000000D+00  2.3883762114301D-01  1.0571948281783D+00
172  1.7100000000000D+00  2.1535346539464D-01  1.0639643477536D+00
173  1.7200000000000D+00  1.9213798810831D-01  1.0701539623424D+00
174  1.7300000000000D+00  1.6922768374467D-01  1.0757474525763D+00
175  1.7400000000000D+00  1.4665827058122D-01  1.0807287318530D+00
176  1.7500000000000D+00  1.2446460559322D-01  1.0850817368708D+00
177  1.7600000000000D+00  1.0268060577431D-01  1.0887903190394D+00
178  1.7700000000000D+00  8.1339177044741D-02  1.0918380544840D+00
179  1.7800000000000D+00  6.0472148019216D-02  1.0942081676049D+00
180  1.7900000000000D+00  4.0110216944082D-02  1.0958833625636D+00
181  1.8000000000000D+00  2.0282905359204D-02  1.0968452731823D+00
182  1.8100000000000D+00  1.0185153197190D-03  1.0970743488301D+00
183  1.8200000000000D+00 -1.7655882922826D-02  1.0965506750143D+00
184  1.8300000000000D+00 -3.5714469782433D-02  1.0952544615974D+00
185  1.8400000000000D+00 -5.3132761150604D-02  1.0931667811310D+00
186  1.8500000000000D+00 -6.9887667077546D-02  1.0902707858953D+00
187  1.8600000000000D+00 -8.5957574781361D-02  1.0865513583465D+00
188  1.8700000000000D+00 -1.0132244081127D-01  1.0819950913997D+00
189  1.8800000000000D+00 -1.1596385524577D-01  1.0765905265044D+00
190  1.8900000000000D+00 -1.2986510955251D-01  1.0703282229605D+00
191  1.9000000000000D+00 -1.4301125879867D-01  1.0632008351538D+00
192  1.9100000000000D+00 -1.5538917726997D-01  1.0552032014313D+00
193  1.9200000000000D+00 -1.6698760867796D-01  1.0463324124017D+00
194  1.9300000000000D+00 -1.7779721006177D-01  1.0365878757171D+00
195  1.9400000000000D+00 -1.8781058982216D-01  1.0259713742021D+00
196  1.9500000000000D+00 -1.9702233870710D-01  1.0144871100040D+00
197  1.9600000000000D+00 -2.0542905470732D-01  1.0021417402539D+00
198  1.9700000000000D+00 -2.1302936125262D-01  9.8894440830887D-01
199  1.9800000000000D+00 -2.1982391899288D-01  9.7490676664177D-01
200  1.9900000000000D+00 -2.2581543072567D-01  9.6004298864224D-01
201  2.0000000000000D+00 -2.3100863928693D-01  9.4436976858561D-01
202  2.0100000000000D+00 -2.3541031910941D-01  9.2790631329405D-01
203  2.0200000000000D+00 -2.3902926066326D-01  9.1067432622940D-01
204  2.0300000000000D+00 -2.4187624867297D-01  8.9269798191559D-01
205  2.0400000000000D+00 -2.4396403331569D-01  8.7400389015362D-01
206  2.0500000000000D+00 -2.4530729501925D-01  8.5462105122719D-01
207  2.0600000000000D+00 -2.4592260297861D-01  8.3458080229444D-01
208  2.0700000000000D+00 -2.4582836697263D-01  8.1391675422434D-01
209  2.0800000000000D+00 -2.4504478356666D-01  7.9266472040773D-01
210  2.0900000000000D+00 -2.4359377580802D-01  7.7086263615717D-01
211  2.1000000000000D+00 -2.4149892743397D-01  7.4855047022048D-01
212  2.1100000000000D+00 -2.3878541149856D-01  7.2577012820177D-01
213  2.1200000000000D+00 -2.3547991332418D-01  7.0256534767788D-01
214  2.1300000000000D+00 -2.3161054883721D-01  6.7898158663097D-01
215  2.1400000000000D+00 -2.2720677754088D-01  6.5506590393877D-01
216  2.1500000000000D+00 -2.2229931119701D-01  6.3086683357296D-01
217  2.1600000000000D+00 -2.1692001824756D-01  6.0643425248704D-01
218  2.1700000000000D+00 -2.1110182395855D-01  5.8181924209052D-01
219  2.1800000000000D+00 -2.0487860730082D-01  5.5707394489276D-01
220  2.1900000000000D+00 -1.9828509416800D-01  5.3225141557400D-01
221  2.2000000000000D+00 -1.9135674771230D-01  5.0740546769543D-01
222  2.2100000000000D+00 -1.8412965618046D-01  4.8259051660311D-01
223  2.2200000000000D+00 -1.7664041819748D-01  4.5786141832977D-01
224  2.2300000000000D+00 -1.6892602637251D-01  4.3327330590349D-01
225  2.2400000000000D+00 -1.6102374927571D-01  4.0888142302138D-01
226  2.2500000000000D+00 -1.5297101222284D-01  3.8474095573264D-01
227  2.2600000000000D+00 -1.4480527737000D-01  3.6090686294439D-01
228  2.2700000000000D+00 -1.3656392336476D-01  3.3743370596679D-01
229  2.2800000000000D+00 -1.2828412501470D-01  3.1437547788174D-01
230  2.2900000000000D+00 -1.2000273330963D-01  2.9178543320473D-01
231  2.3000000000000D+00 -1.1175615632497D-01  2.6971591853975D-01
232  2.3100000000000D+00 -1.0358024113284D-01  2.4821820451775D-01
233  2.3200000000000D+00 -9.5510157327562D-02  2.2734231984053D-01
234  2.3300000000000D+00 -8.7580282599962D-02  2.0713688806720D-01
235  2.3400000000000D+00 -7.9824090241445D-02  1.8764896703062D-01
236  2.3500000000000D+00 -7.2274039656862D-02  1.6892389239919D-01
237  2.3600000000000D+00 -6.4961469872407D-02  1.5100512540438D-01
238  2.3700000000000D+00 -5.7916495843490D-02  1.3393410447259D-01
239  2.3800000000000D+00 -5.1167909247854D-02  1.1775010318364D-01
240  2.3900000000000D+00 -4.4743082864101D-02  1.0249009329025D-01
241  2.4000000000000D+00 -3.8667878848408D-02  8.8188613251198D-02
242  2.4100000000000D+00 -3.2966562589221D-02  7.4877644734126D-02
243  2.4200000000000D+00 -2.7661720708380D-02  6.2586495013124D-02
244  2.4300000000000D+00 -2.2774184071955D-02  5.1341686525656D-02
245  2.4400000000000D+00 -1.8324774049754D-02  4.1170835240256D-02
246  2.4500000000000D+00 -1.4330020419298D-02  3.2093321209927D-02
247  2.4600000000000D+00 -1.0799008860873D-02  2.4113428842091D-02
248  2.4700000000000D+00 -7.7359239646123D-03  1.7225959439089D-02
249  2.4800000000000D+00 -5.1632933774581D-03  1.1467174661096D-02
250  2.4900000000000D+00 -3.1219262518741D-03  6.9146927238154D-03
251  2.5000000000000D+00 -1.6360759625087D-03  3.6112379245342D-03
252  2.5100000000000D+00 -6.7115749096692D-04  1.4719918424626D-03
253  2.5200000000000D+00 -1.3072175727380D-04  2.7799013284836D-04
254  2.5300000000000D+00  9.3295089195392D-05 -2.1371194722059D-04
255  2.5400000000000D+00  1.1622778671766D-04 -2.6060008794662D-04
256  2.5500000000000D+00  4.4854717419847D-05 -1.0004902089282D-04
257  2.5600000000000D+00 -2.1236292336656D-05  4.7461102991401D-05
258  2.5700000000000D+00 -3.7298222093057D-05  8.3230074198739D-05
259  2.5800000000000D+00 -1.8904055285453D-05  4.2140308266307D-05
260  2.5900000000000D+00  3.1487002442274D-06 -7.0839287578290D-06
261  2.6000000000000D+00  6.8396499326633D-06 -1.5377318419730D-05
262  2.6100000000000D+00  4.1934547826406D-06 -9.4230442832507D-06
263  2.6200000000000D+00 -1.1969738821174D-08  3.5785613508229D-08
264  2.6300000000000D+00 -3.3757253136941D-08  1.0092317233531D-07
265  2.6400000000000D+00 -2.4208754335292D-08  7.2376276466947D-08
266  2.6500000000000D+00  0.0000000000000D+00  0.0000000000000D+00
267  2.6600000000000D+00  0.0000000000000D+00  0.0000000000000D+00
268  2.6700000000000D+00  0.0000000000000D+00  0.0000000000000D+00
269  2.6800000000000D+00  0.0000000000000D+00  0.0000000000000D+00
270  2.6900000000000D+00  0.0000000000000D+00  0.0000000000000D+00
271  2.7000000000000D+00  0.0000000000000D+00  0.0000000000000D+00
272  2.7100000000000D+00  0.0000000000000D+00  0.0000000000000D+00
273  2.7200000000000D+00  0.0000000000000D+00  0.0000000000000D+00
274  2.7300000000000D+00  0.0000000000000D+00  0.0000000000000D+00
275  2.7400000000000D+00  0.0000000000000D+00  0.0000000000000D+00
276  2.7500000000000D+00  0.0000000000000D+00  0.0000000000000D+00
277  2.7600000000000D+00  0.0000000000000D+00  0.0000000000000D+00
278  2.7700000000000D+00  0.0000000000000D+00  0.0000000000000D+00
279  2.7800000000000D+00  0.0000000000000D+00  0.0000000000000D+00
280  2.7900000000000D+00  0.0000000000000D+00  0.0000000000000D+00
281  2.8000000000000D+00  0.0000000000000D+00  0.0000000000000D+00
282  2.8100000000000D+00  0.0000000000000D+00  0.0000000000000D+00
283  2.8200000000000D+00  0.0000000000000D+00  0.0000000000000D+00
284  2.8300000000000D+00  0.0000000000000D+00  0.0000000000000D+00
285  2.8400000000000D+00  0.0000000000000D+00  0.0000000000000D+00
286  2.8500000000000D+00  0.0000000000000D+00  0.0000000000000D+00
287  2.8600000000000D+00  0.0000000000000D+00  0.0000000000000D+00
288  2.8700000000000D+00  0.0000000000000D+00  0.0000000000000D+00
289  2.8800000000000D+00  0.0000000000000D+00  0.0000000000000D+00
290  2.8900000000000D+00  0.0000000000000D+00  0.0000000000000D+00
291  2.9000000000000D+00  0.0000000000000D+00  0.0000000000000D+00
292  2.9100000000000D+00  0.0000000000000D+00  0.0000000000000D+00
293  2.9200000000000D+00  0.0000000000000D+00  0.0000000000000D+00
294  2.9300000000000D+00  0.0000000000000D+00  0.0000000000000D+00
295  2.9400000000000D+00  0.0000000000000D+00  0.0000000000000D+00
296  2.9500000000000D+00  0.0000000000000D+00  0.0000000000000D+00
297  2.9600000000000D+00  0.0000000000000D+00  0.0000000000000D+00
298  2.9700000000000D+00  0.0000000000000D+00  0.0000000000000D+00
299  2.9800000000000D+00  0.0000000000000D+00  0.0000000000000D+00
300  2.9900000000000D+00  0.0000000000000D+00  0.0000000000000D+00
301  3.0000000000000D+00  0.0000000000000D+00  0.0000000000000D+00
302  3.0100000000000D+00  0.0000000000000D+00  0.0000000000000D+00
303  3.0200000000000D+00  0.0000000000000D+00  0.0000000000000D+00
304  3.0300000000000D+00  0.0000000000000D+00  0.0000000000000D+00
305  3.0400000000000D+00  0.0000000000000D+00  0.0000000000000D+00
306  3.0500000000000D+00  0.0000000000000D+00  0.0000000000000D+00
307  3.0600000000000D+00  0.0000000000000D+00  0.0000000000000D+00
308  3.0700000000000D+00  0.0000000000000D+00  0.0000000000000D+00
309  3.0800000000000D+00  0.0000000000000D+00  0.0000000000000D+00
310  3.0900000000000D+00  0.0000000000000D+00  0.0000000000000D+00
311  3.1000000000000D+00  0.0000000000000D+00  0.0000000000000D+00
312  3.1100000000000D+00  0.0000000000000D+00  0.0000000000000D+00
313  3.1200000000000D+00  0.0000000000000D+00  0.0000000000000D+00
314  3.1300000000000D+00  0.0000000000000D+00  0.0000000000000D+00
315  3.1400000000000D+00  0.0000000000000D+00  0.0000000000000D+00
316  3.1500000000000D+00  0.0000000000000D+00  0.0000000000000D+00
317  3.1600000000000D+00  0.0000000000000D+00  0.0000000000000D+00
318  3.1700000000000D+00  0.0000000000000D+00  0.0000000000000D+00
319  3.1800000000000D+00  0.0000000000000D+00  0.0000000000000D+00
320  3.1900000000000D+00  0.0000000000000D+00  0.0000000000000D+00
321  3.2000000000000D+00  0.0000000000000D+00  0.0000000000000D+00
322  3.2100000000000D+00  0.0000000000000D+00  0.0000000000000D+00
323  3.2200000000000D+00  0.0000000000000D+00  0.0000000000000D+00
324  3.2300000000000D+00  0.0000000000000D+00  0.0000000000000D+00
325  3.2400000000000D+00  0.0000000000000D+00  0.0000000000000D+00
326  3.2500000000000D+00  0.0000000000000D+00  0.0000000000000D+00
327  3.2600000000000D+00  0.0000000000000D+00  0.0000000000000D+00
328  3.2700000000000D+00  0.0000000000000D+00  0.0000000000000D+00
329  3.2800000000000D+00  0.0000000000000D+00  0.0000000000000D+00
330  3.2900000000000D+00  0.0000000000000D+00  0.0000000000000D+00
331  3.3000000000000D+00  0.0000000000000D+00  0.0000000000000D+00
332  3.3100000000000D+00  0.0000000000000D+00  0.0000000000000D+00
333  3.3200000000000D+00  0.0000000000000D+00  0.0000000000000D+00
334  3.3300000000000D+00  0.0000000000000D+00  0.0000000000000D+00
335  3.3400000000000D+00  0.0000000000000D+00  0.0000000000000D+00
336  3.3500000000000D+00  0.0000000000000D+00  0.0000000000000D+00
337  3.3600000000000D+00  0.0000000000000D+00  0.0000000000000D+00
338  3.3700000000000D+00  0.0000000000000D+00  0.0000000000000D+00
339  3.3800000000000D+00  0.0000000000000D+00  0.0000000000000D+00
340  3.3900000000000D+00  0.0000000000000D+00  0.0000000000000D+00
341  3.4000000000000D+00  0.0000000000000D+00  0.0000000000000D+00
342  3.4100000000000D+00  0.0000000000000D+00  0.0000000000000D+00
343  3.4200000000000D+00  0.0000000000000D+00  0.0000000000000D+00
344  3.4300000000000D+00  0.0000000000000D+00  0.0000000000000D+00
345  3.4400000000000D+00  0.0000000000000D+00  0.0000000000000D+00
346  3.4500000000000D+00  0.0000000000000D+00  0.0000000000000D+00
347  3.4600000000000D+00  0.0000000000000D+00  0.0000000000000D+00
348  3.4700000000000D+00  0.0000000000000D+00  0.0000000000000D+00
349  3.4800000000000D+00  0.0000000000000D+00  0.0000000000000D+00
350  3.4900000000000D+00  0.0000000000000D+00  0.0000000000000D+00
351  3.5000000000000D+00  0.0000000000000D+00  0.0000000000000D+00
352  3.5100000000000D+00  0.0000000000000D+00  0.0000000000000D+00
353  3.5200000000000D+00  0.0000000000000D+00  0.0000000000000D+00
354  3.5300000000000D+00  0.0000000000000D+00  0.0000000000000D+00
355  3.5400000000000D+00  0.0000000000000D+00  0.0000000000000D+00
356  3.5500000000000D+00  0.0000000000000D+00  0.0000000000000D+00
357  3.5600000000000D+00  0.0000000000000D+00  0.0000000000000D+00
358  3.5700000000000D+00  0.0000000000000D+00  0.0000000000000D+00
359  3.5800000000000D+00  0.0000000000000D+00  0.0000000000000D+00
360  3.5900000000000D+00  0.0000000000000D+00  0.0000000000000D+00
361  3.6000000000000D+00  0.0000000000000D+00  0.0000000000000D+00
362  3.6100000000000D+00  0.0000000000000D+00  0.0000000000000D+00
363  3.6200000000000D+00  0.0000000000000D+00  0.0000000000000D+00
364  3.6300000000000D+00  0.0000000000000D+00  0.0000000000000D+00
365  3.6400000000000D+00  0.0000000000000D+00  0.0000000000000D+00
366  3.6500000000000D+00  0.0000000000000D+00  0.0000000000000D+00
367  3.6600000000000D+00  0.0000000000000D+00  0.0000000000000D+00
368  3.6700000000000D+00  0.0000000000000D+00  0.0000000000000D+00
369  3.6800000000000D+00  0.0000000000000D+00  0.0000000000000D+00
370  3.6900000000000D+00  0.0000000000000D+00  0.0000000000000D+00
371  3.7000000000000D+00  0.0000000000000D+00  0.0000000000000D+00
372  3.7100000000000D+00  0.0000000000000D+00  0.0000000000000D+00
373  3.7200000000000D+00  0.0000000000000D+00  0.0000000000000D+00
374  3.7300000000000D+00  0.0000000000000D+00  0.0000000000000D+00
375  3.7400000000000D+00  0.0000000000000D+00  0.0000000000000D+00
376  3.7500000000000D+00  0.0000000000000D+00  0.0000000000000D+00
377  3.7600000000000D+00  0.0000000000000D+00  0.0000000000000D+00
378  3.7700000000000D+00  0.0000000000000D+00  0.0000000000000D+00
379  3.7800000000000D+00  0.0000000000000D+00  0.0000000000000D+00
380  3.7900000000000D+00  0.0000000000000D+00  0.0000000000000D+00
381  3.8000000000000D+00  0.0000000000000D+00  0.0000000000000D+00
382  3.8100000000000D+00  0.0000000000000D+00  0.0000000000000D+00
383  3.8200000000000D+00  0.0000000000000D+00  0.0000000000000D+00
384  3.8300000000000D+00  0.0000000000000D+00  0.0000000000000D+00
385  3.8400000000000D+00  0.0000000000000D+00  0.0000000000000D+00
386  3.8500000000000D+00  0.0000000000000D+00  0.0000000000000D+00
387  3.8600000000000D+00  0.0000000000000D+00  0.0000000000000D+00
388  3.8700000000000D+00  0.0000000000000D+00  0.0000000000000D+00
389  3.8800000000000D+00  0.0000000000000D+00  0.0000000000000D+00
390  3.8900000000000D+00  0.0000000000000D+00  0.0000000000000D+00
391  3.9000000000000D+00  0.0000000000000D+00  0.0000000000000D+00
392  3.9100000000000D+00  0.0000000000000D+00  0.0000000000000D+00
393  3.9200000000000D+00  0.0000000000000D+00  0.0000000000000D+00
394  3.9300000000000D+00  0.0000000000000D+00  0.0000000000000D+00
395  3.9400000000000D+00  0.0000000000000D+00  0.0000000000000D+00
396  3.9500000000000D+00  0.0000000000000D+00  0.0000000000000D+00
397  3.9600000000000D+00  0.0000000000000D+00  0.0000000000000D+00
398  3.9700000000000D+00  0.0000000000000D+00  0.0000000000000D+00
399  3.9800000000000D+00  0.0000000000000D+00  0.0000000000000D+00
400  3.9900000000000D+00  0.0000000000000D+00  0.0000000000000D+00
401  4.0000000000000D+00  0.0000000000000D+00  0.0000000000000D+00
402  4.0100000000000D+00  0.0000000000000D+00  0.0000000000000D+00
403  4.0200000000000D+00  0.0000000000000D+00  0.0000000000000D+00
404  4.0300000000000D+00  0.0000000000000D+00  0.0000000000000D+00
405  4.0400000000000D+00  0.0000000000000D+00  0.0000000000000D+00
406  4.0500000000000D+00  0.0000000000000D+00  0.0000000000000D+00
407  4.0600000000000D+00  0.0000000000000D+00  0.0000000000000D+00
408  4.0700000000000D+00  0.0000000000000D+00  0.0000000000000D+00
409  4.0800000000000D+00  0.0000000000000D+00  0.0000000000000D+00
410  4.0900000000000D+00  0.0000000000000D+00  0.0000000000000D+00
411  4.1000000000000D+00  0.0000000000000D+00  0.0000000000000D+00
412  4.1100000000000D+00  0.0000000000000D+00  0.0000000000000D+00
413  4.1200000000000D+00  0.0000000000000D+00  0.0000000000000D+00
414  4.1300000000000D+00  0.0000000000000D+00  0.0000000000000D+00
415  4.1400000000000D+00  0.0000000000000D+00  0.0000000000000D+00
416  4.1500000000000D+00  0.0000000000000D+00  0.0000000000000D+00
417  4.1600000000000D+00  0.0000000000000D+00  0.0000000000000D+00
418  4.1700000000000D+00  0.0000000000000D+00  0.0000000000000D+00
419  4.1800000000000D+00  0.0000000000000D+00  0.0000000000000D+00
420  4.1900000000000D+00  0.0000000000000D+00  0.0000000000000D+00
421  4.2000000000000D+00  0.0000000000000D+00  0.0000000000000D+00
422  4.2100000000000D+00  0.0000000000000D+00  0.0000000000000D+00
423  4.2200000000000D+00  0.0000000000000D+00  0.0000000000000D+00
424  4.2300000000000D+00  0.0000000000000D+00  0.0000000000000D+00
425  4.2400000000000D+00  0.0000000000000D+00  0.0000000000000D+00
426  4.2500000000000D+00  0.0000000000000D+00  0.0000000000000D+00
427  4.2600000000000D+00  0.0000000000000D+00  0.0000000000000D+00
428  4.2700000000000D+00  0.0000000000000D+00  0.0000000000000D+00
429  4.2800000000000D+00  0.0000000000000D+00  0.0000000000000D+00
430  4.2900000000000D+00  0.0000000000000D+00  0.0000000000000D+00
431  4.3000000000000D+00  0.0000000000000D+00  0.0000000000000D+00
432  4.3100000000000D+00  0.0000000000000D+00  0.0000000000000D+00
433  4.3200000000000D+00  0.0000000000000D+00  0.0000000000000D+00
434  4.3300000000000D+00  0.0000000000000D+00  0.0000000000000D+00
435  4.3400000000000D+00  0.0000000000000D+00  0.0000000000000D+00
436  4.3500000000000D+00  0.0000000000000D+00  0.0000000000000D+00
437  4.3600000000000D+00  0.0000000000000D+00  0.0000000000000D+00
438  4.3700000000000D+00  0.0000000000000D+00  0.0000000000000D+00
439  4.3800000000000D+00  0.0000000000000D+00  0.0000000000000D+00
440  4.3900000000000D+00  0.0000000000000D+00  0.0000000000000D+00
441  4.4000000000000D+00  0.0000000000000D+00  0.0000000000000D+00
442  4.4100000000000D+00  0.0000000000000D+00  0.0000000000000D+00
443  4.4200000000000D+00  0.0000000000000D+00  0.0000000000000D+00
444  4.4300000000000D+00  0.0000000000000D+00  0.0000000000000D+00