Tc    ONCVPSP-3.3.0  r_core=   1.40470   1.40470   1.35532
43.0000     15.0000      171103    zatom,zion,pspd
8   -1012   2     4   600     0    pspcod,pspxc,lmax,lloc,mmax,r2well
5.99000000  5.00000000  0.00000000    rchrg fchrg qchrg
2     2     2     0     0    nproj
1     1           extension_switch
0                         1.4515440997535D+01  1.4668303045856D+00
1  0.0000000000000D+00 -3.4163416540167D-10  1.7111410344217D-09
2  1.0000000000000D-02  6.0169569441568D-02 -3.1461313014727D-02
3  2.0000000000000D-02  1.2024953227282D-01 -6.2746668896414D-02
4  3.0000000000000D-02  1.8015054256613D-01 -9.3681785361826D-02
5  4.0000000000000D-02  2.3978377135201D-01 -1.2409570289196D-01
6  5.0000000000000D-02  2.9906115416920D-01 -1.5382237922017D-01
7  6.0000000000000D-02  3.5789562574800D-01 -1.8270220478529D-01
8  7.0000000000000D-02  4.1620133794659D-01 -2.1058341484769D-01
9  8.0000000000000D-02  4.7389385740209D-01 -2.3732337567723D-01
10  9.0000000000000D-02  5.3089033977390D-01 -2.6278972431195D-01
11  1.0000000000000D-01  5.8710967794085D-01 -2.8686134382270D-01
12  1.1000000000000D-01  6.4247262205694D-01 -3.0942915876478D-01
13  1.2000000000000D-01  6.9690186996326D-01 -3.3039673851099D-01
14  1.3000000000000D-01  7.5032212708748D-01 -3.4968069939475D-01
15  1.4000000000000D-01  8.0266013562411D-01 -3.6721089999671D-01
16  1.5000000000000D-01  8.5384467346864D-01 -3.8293042743132D-01
17  1.6000000000000D-01  9.0380652406368D-01 -3.9679537607474D-01
18  1.7000000000000D-01  9.5247841899361D-01 -4.0877442376655D-01
19  1.8000000000000D-01  9.9979495582306D-01 -4.1884821405674D-01
20  1.9000000000000D-01  1.0456924943024D+00 -4.2700855650015D-01
21  2.0000000000000D-01  1.0901090346475D+00 -4.3325746026581D-01
22  2.1000000000000D-01  1.1329840821294D+00 -4.3760601937508D-01
23  2.2000000000000D-01  1.1742585026753D+00 -4.4007317065833D-01
24  2.3000000000000D-01  1.2138743745668D+00 -4.4068434797672D-01
25  2.4000000000000D-01  1.2517748416282D+00 -4.3947005835035D-01
26  2.5000000000000D-01  1.2879039735059D+00 -4.3646440732750D-01
27  2.6000000000000D-01  1.3222066387547D+00 -4.3170360218849D-01
28  2.7000000000000D-01  1.3546283964534D+00 -4.2522446237537D-01
29  2.8000000000000D-01  1.3851154119766D+00 -4.1706296685474D-01
30  2.9000000000000D-01  1.4136144023411D+00 -4.0725286794241D-01
31  3.0000000000000D-01  1.4400726162304D+00 -3.9582440043917D-01
32  3.1000000000000D-01  1.4644378533800D+00 -3.8280311375036D-01
33  3.2000000000000D-01  1.4866585274801D+00 -3.6820885299532D-01
34  3.3000000000000D-01  1.5066837761289D+00 -3.5205491297645D-01
35  3.4000000000000D-01  1.5244636206577D+00 -3.3434738629533D-01
36  3.5000000000000D-01  1.5399491778526D+00 -3.1508472390784D-01
37  3.6000000000000D-01  1.5530929247300D+00 -2.9425752304188D-01
38  3.7000000000000D-01  1.5638490165974D+00 -2.7184855370671D-01
39  3.8000000000000D-01  1.5721736576574D+00 -2.4783303105345D-01
40  3.9000000000000D-01  1.5780255224069D+00 -2.2217913666142D-01
41  4.0000000000000D-01  1.5813662250614D+00 -1.9484878748646D-01
42  4.1000000000000D-01  1.5821608332104D+00 -1.6579864678069D-01
43  4.2000000000000D-01  1.5803784209024D+00 -1.3498136684948D-01
44  4.3000000000000D-01  1.5759926553816D+00 -1.0234704912021D-01
45  4.4000000000000D-01  1.5689824107738D+00 -6.7844902729547D-02
46  4.5000000000000D-01  1.5593324011557D+00 -3.1425078765847D-02
47  4.6000000000000D-01  1.5470338246649D+00  6.9593465026874D-03
48  4.7000000000000D-01  1.5320850096279D+00  4.7350269555438D-02
49  4.8000000000000D-01  1.5144920531080D+00  8.9782371919309D-02
50  4.9000000000000D-01  1.4942694418363D+00  1.3428088267801D-01
51  5.0000000000000D-01  1.4714406451739D+00  1.8085932913839D-01
52  5.1000000000000D-01  1.4460386695916D+00  2.2951731515783D-01
53  5.2000000000000D-01  1.4181065641432D+00  2.8023836759853D-01
54  5.3000000000000D-01  1.3876978665542D+00  3.3298789171287D-01
55  5.4000000000000D-01  1.3548769798612D+00  3.8771127595680D-01
56  5.5000000000000D-01  1.3197194700087D+00  4.4433218576453D-01
57  5.6000000000000D-01  1.2823122754453D+00  5.0275108419465D-01
58  5.7000000000000D-01  1.2427538205549D+00  5.6284401508940D-01
59  5.8000000000000D-01  1.2011540257021D+00  6.2446168148154D-01
60  5.9000000000000D-01  1.1576342077522D+00  6.8742884849060D-01
61  6.0000000000000D-01  1.1123268661481D+00  7.5154409587621D-01
62  6.1000000000000D-01  1.0653753509493D+00  8.1657994085504D-01
63  6.2000000000000D-01  1.0169334106759D+00  8.8228334675426D-01
64  6.3000000000000D-01  9.6716461930844D-01  9.4837662766104D-01
65  6.4000000000000D-01  9.1624168337110D-01  1.0145587535232D+00
66  6.5000000000000D-01  8.6434563164081D-01  1.0805070541813D+00
67  6.6000000000000D-01  8.1166489165821D-01  1.1458793147380D+00
68  6.7000000000000D-01  7.5839425884125D-01  1.2103162485288D+00
69  6.8000000000000D-01  7.0473376560536D-01  1.2734443278415D+00
70  6.9000000000000D-01  6.5088745943674D-01  1.3348789465786D+00
71  7.0000000000000D-01  5.9706210032965D-01  1.3942278833370D+00
72  7.1000000000000D-01  5.4346578937053D-01  1.4510950279560D+00
73  7.2000000000000D-01  4.9030654149156D-01  1.5050843296109D+00
74  7.3000000000000D-01  4.3779081651584D-01  1.5558039200446D+00
75  7.4000000000000D-01  3.8612202355194D-01  1.6028703616233D+00
76  7.5000000000000D-01  3.3549901454747D-01  1.6459129666686D+00
77  7.6000000000000D-01  2.8611458337130D-01  1.6845781319729D+00
78  7.7000000000000D-01  2.3815398714092D-01  1.7185336306636D+00
79  7.8000000000000D-01  1.9179350664177D-01  1.7474728026330D+00
80  7.9000000000000D-01  1.4719906259137D-01  1.7711185846565D+00
81  8.0000000000000D-01  1.0452490417760D-01  1.7892273220864D+00
82  8.1000000000000D-01  6.3912385750256D-02  1.8015923056440D+00
83  8.2000000000000D-01  2.5488846769599D-02  1.8080469793238D+00
84  8.3000000000000D-01 -1.0633390876955D-02  1.8084677687564D+00
85  8.4000000000000D-01 -4.4357895278449D-02  1.8027764835039D+00
86  8.5000000000000D-01 -7.5604855105548D-02  1.7909422516475D+00
87  8.6000000000000D-01 -1.0431165846789D-01  1.7729829506014D+00
88  8.7000000000000D-01 -1.3043331180001D-01  1.7489661042755D+00
89  8.8000000000000D-01 -1.5394269241229D-01  1.7190092234388D+00
90  8.9000000000000D-01 -1.7483063031228D-01  1.6832795732977D+00
91  9.0000000000000D-01 -1.9310581695329D-01  1.6419933598050D+00
92  9.1000000000000D-01 -2.0879454067189D-01  1.5954143339492D+00
93  9.2000000000000D-01 -2.2194025070494D-01  1.5438518211159D+00
94  9.3000000000000D-01 -2.3260295379863D-01  1.4876581904568D+00
95  9.4000000000000D-01 -2.4085844950633D-01  1.4272257869202D+00
96  9.5000000000000D-01 -2.4679741228806D-01  1.3629833560756D+00
97  9.6000000000000D-01 -2.5052433044160D-01  1.2953919989828D+00
98  9.7000000000000D-01 -2.5215631368405D-01  1.2249407010034D+00
99  9.8000000000000D-01 -2.5182178284233D-01  1.1521414845359D+00
100  9.9000000000000D-01 -2.4965905656048D-01  1.0775242410330D+00
101  1.0000000000000D+00 -2.4581485117393D-01  1.0016313022508D+00
102  1.0100000000000D+00 -2.4044271095787D-01  9.2501181456436D-01
103  1.0200000000000D+00 -2.3370138671676D-01  8.4821598295047D-01
104  1.0300000000000D+00 -2.2575318123094D-01  7.7178925318869D-01
105  1.0400000000000D+00 -2.1676228035100D-01  6.9626650174639D-01
106  1.0500000000000D+00 -2.0689308850366D-01  6.2216630256203D-01
107  1.0600000000000D+00 -1.9630858717364D-01  5.4998533905303D-01
108  1.0700000000000D+00 -1.8516873432424D-01  4.8019302721076D-01
109  1.0800000000000D+00 -1.7362892196616D-01  4.1322641263590D-01
110  1.0900000000000D+00 -1.6183850802942D-01  3.4948540017988D-01
111  1.1000000000000D+00 -1.4993943733736D-01  2.8932836952327D-01
112  1.1100000000000D+00 -1.3806496523150D-01  2.3306822510877D-01
113  1.1200000000000D+00 -1.2633849537248D-01  1.8096892093492D-01
114  1.1300000000000D+00 -1.1487254165210D-01  1.3324249450986D-01
115  1.1400000000000D+00 -1.0376782180990D-01  9.0046635150216D-02
116  1.1500000000000D+00 -9.3112488877270D-02  5.1482806085443D-02
117  1.1600000000000D+00 -8.2981503595832D-02  1.7594928275928D-02
118  1.1700000000000D+00 -7.3436147725850D-02 -1.1631380795311D-02
119  1.1800000000000D+00 -6.4523677010709D-02 -3.6269019991301D-02
120  1.1900000000000D+00 -5.6277165397001D-02 -5.6448812125823D-02
121  1.2000000000000D+00 -4.8715311289335D-02 -7.2359271226027D-02
122  1.2100000000000D+00 -4.1842552675609D-02 -8.4244962017697D-02
123  1.2200000000000D+00 -3.5650913136288D-02 -9.2395798393010D-02
124  1.2300000000000D+00 -3.0122308472847D-02 -9.7134866379182D-02
125  1.2400000000000D+00 -2.5230719664305D-02 -9.8807629931500D-02
126  1.2500000000000D+00 -2.0943072725042D-02 -9.7778428395781D-02
127  1.2600000000000D+00 -1.7220524421981D-02 -9.4424883619854D-02
128  1.2700000000000D+00 -1.4019742140851D-02 -8.9132446173955D-02
129  1.2800000000000D+00 -1.1294221976042D-02 -8.2288820667960D-02
130  1.2900000000000D+00 -8.9956107545779D-03 -7.4278420285989D-02
131  1.3000000000000D+00 -7.0750214288419D-03 -6.5476878315770D-02
132  1.3100000000000D+00 -5.4843211161079D-03 -5.6245699886364D-02
133  1.3200000000000D+00 -4.1773725699779D-03 -4.6927128246573D-02
134  1.3300000000000D+00 -3.1112118824186D-03 -3.7839292094600D-02
135  1.3400000000000D+00 -2.2471448939328D-03 -2.9271701711967D-02
136  1.3500000000000D+00 -1.5517460775198D-03 -2.1481156667308D-02
137  1.3600000000000D+00 -9.9789129181883D-04 -1.4691775917840D-02
138  1.3700000000000D+00 -5.6486941310475D-04 -9.0753450649348D-03
139  1.3800000000000D+00 -2.3981537592103D-04 -4.7433266795349D-03
140  1.3900000000000D+00 -1.7966611369842D-05 -1.9248459336383D-03
141  1.4000000000000D+00  9.6673512778963D-05 -5.9009777186540D-04
142  1.4100000000000D+00  8.5634551934926D-05 -1.2080888222906D-04
143  1.4200000000000D+00  1.0138197688755D-05 -4.2804389903001D-06
144  1.4300000000000D+00 -1.3883192702183D-05  6.6960178729903D-07
145  1.4400000000000D+00  9.3598933837935D-07 -6.0395822277052D-07
146  1.4500000000000D+00  2.5350806856949D-06 -1.2330820955899D-06
147  1.4600000000000D+00 -2.2631038651456D-07  6.4335614374894D-07
148  1.4700000000000D+00 -1.6522084820727D-07  4.6969054052993D-07
149  1.4800000000000D+00  0.0000000000000D+00  0.0000000000000D+00
150  1.4900000000000D+00  0.0000000000000D+00  0.0000000000000D+00
151  1.5000000000000D+00  0.0000000000000D+00  0.0000000000000D+00
152  1.5100000000000D+00  0.0000000000000D+00  0.0000000000000D+00
153  1.5200000000000D+00  0.0000000000000D+00  0.0000000000000D+00
154  1.5300000000000D+00  0.0000000000000D+00  0.0000000000000D+00
155  1.5400000000000D+00  0.0000000000000D+00  0.0000000000000D+00
156  1.5500000000000D+00  0.0000000000000D+00  0.0000000000000D+00
157  1.5600000000000D+00  0.0000000000000D+00  0.0000000000000D+00
158  1.5700000000000D+00  0.0000000000000D+00  0.0000000000000D+00
159  1.5800000000000D+00  0.0000000000000D+00  0.0000000000000D+00
160  1.5900000000000D+00  0.0000000000000D+00  0.0000000000000D+00
161  1.6000000000000D+00  0.0000000000000D+00  0.0000000000000D+00
162  1.6100000000000D+00  0.0000000000000D+00  0.0000000000000D+00
163  1.6200000000000D+00  0.0000000000000D+00  0.0000000000000D+00
164  1.6300000000000D+00  0.0000000000000D+00  0.0000000000000D+00
165  1.6400000000000D+00  0.0000000000000D+00  0.0000000000000D+00
166  1.6500000000000D+00  0.0000000000000D+00  0.0000000000000D+00
167  1.6600000000000D+00  0.0000000000000D+00  0.0000000000000D+00
168  1.6700000000000D+00  0.0000000000000D+00  0.0000000000000D+00
169  1.6800000000000D+00  0.0000000000000D+00  0.0000000000000D+00
170  1.6900000000000D+00  0.0000000000000D+00  0.0000000000000D+00
171  1.7000000000000D+00  0.0000000000000D+00  0.0000000000000D+00
172  1.7100000000000D+00  0.0000000000000D+00  0.0000000000000D+00
173  1.7200000000000D+00  0.0000000000000D+00  0.0000000000000D+00
174  1.7300000000000D+00  0.0000000000000D+00  0.0000000000000D+00
175  1.7400000000000D+00  0.0000000000000D+00  0.0000000000000D+00
176  1.7500000000000D+00  0.0000000000000D+00  0.0000000000000D+00
177  1.7600000000000D+00  0.0000000000000D+00  0.0000000000000D+00
178  1.7700000000000D+00  0.0000000000000D+00  0.0000000000000D+00
179  1.7800000000000D+00  0.0000000000000D+00  0.0000000000000D+00
180  1.7900000000000D+00  0.0000000000000D+00  0.0000000000000D+00
181  1.8000000000000D+00  0.0000000000000D+00  0.0000000000000D+00
182  1.8100000000000D+00  0.0000000000000D+00  0.0000000000000D+00
183  1.8200000000000D+00  0.0000000000000D+00  0.0000000000000D+00
184  1.8300000000000D+00  0.0000000000000D+00  0.0000000000000D+00
185  1.8400000000000D+00  0.0000000000000D+00  0.0000000000000D+00
186  1.8500000000000D+00  0.0000000000000D+00  0.0000000000000D+00
187  1.8600000000000D+00  0.0000000000000D+00  0.0000000000000D+00
188  1.8700000000000D+00  0.0000000000000D+00  0.0000000000000D+00
189  1.8800000000000D+00  0.0000000000000D+00  0.0000000000000D+00
190  1.8900000000000D+00  0.0000000000000D+00  0.0000000000000D+00
191  1.9000000000000D+00  0.0000000000000D+00  0.0000000000000D+00
192  1.9100000000000D+00  0.0000000000000D+00  0.0000000000000D+00
193  1.9200000000000D+00  0.0000000000000D+00  0.0000000000000D+00
194  1.9300000000000D+00  0.0000000000000D+00  0.0000000000000D+00
195  1.9400000000000D+00  0.0000000000000D+00  0.0000000000000D+00
196  1.9500000000000D+00  0.0000000000000D+00  0.0000000000000D+00
197  1.9600000000000D+00  0.0000000000000D+00  0.0000000000000D+00
198  1.9700000000000D+00  0.0000000000000D+00  0.0000000000000D+00
199  1.9800000000000D+00  0.0000000000000D+00  0.0000000000000D+00
200  1.9900000000000D+00  0.0000000000000D+00  0.0000000000000D+00
201  2.0000000000000D+00  0.0000000000000D+00  0.0000000000000D+00
202  2.0100000000000D+00  0.0000000000000D+00  0.0000000000000D+00
203  2.0200000000000D+00  0.0000000000000D+00  0.0000000000000D+00
204  2.0300000000000D+00  0.0000000000000D+00  0.0000000000000D+00
205  2.0400000000000D+00  0.0000000000000D+00  0.0000000000000D+00
206  2.0500000000000D+00  0.0000000000000D+00  0.0000000000000D+00
207  2.0600000000000D+00  0.0000000000000D+00  0.0000000000000D+00
208  2.0700000000000D+00  0.0000000000000D+00  0.0000000000000D+00
209  2.0800000000000D+00  0.0000000000000D+00  0.0000000000000D+00
210  2.0900000000000D+00  0.0000000000000D+00  0.0000000000000D+00
211  2.1000000000000D+00  0.0000000000000D+00  0.0000000000000D+00
212  2.1100000000000D+00  0.0000000000000D+00  0.0000000000000D+00
213  2.1200000000000D+00  0.0000000000000D+00  0.0000000000000D+00
214  2.1300000000000D+00  0.0000000000000D+00  0.0000000000000D+00
215  2.1400000000000D+00  0.0000000000000D+00  0.0000000000000D+00
216  2.1500000000000D+00  0.0000000000000D+00  0.0000000000000D+00
217  2.1600000000000D+00  0.0000000000000D+00  0.0000000000000D+00
218  2.1700000000000D+00  0.0000000000000D+00  0.0000000000000D+00
219  2.1800000000000D+00  0.0000000000000D+00  0.0000000000000D+00
220  2.1900000000000D+00  0.0000000000000D+00  0.0000000000000D+00
221  2.2000000000000D+00  0.0000000000000D+00  0.0000000000000D+00
222  2.2100000000000D+00  0.0000000000000D+00  0.0000000000000D+00
223  2.2200000000000D+00  0.0000000000000D+00  0.0000000000000D+00
224  2.2300000000000D+00  0.0000000000000D+00  0.0000000000000D+00
225  2.2400000000000D+00  0.0000000000000D+00  0.0000000000000D+00
226  2.2500000000000D+00  0.0000000000000D+00  0.0000000000000D+00
227  2.2600000000000D+00  0.0000000000000D+00  0.0000000000000D+00
228  2.2700000000000D+00  0.0000000000000D+00  0.0000000000000D+00
229  2.2800000000000D+00  0.0000000000000D+00  0.0000000000000D+00
230  2.2900000000000D+00  0.0000000000000D+00  0.0000000000000D+00
231  2.3000000000000D+00  0.0000000000000D+00  0.0000000000000D+00
232  2.3100000000000D+00  0.0000000000000D+00  0.0000000000000D+00
233  2.3200000000000D+00  0.0000000000000D+00  0.0000000000000D+00
234  2.3300000000000D+00  0.0000000000000D+00  0.0000000000000D+00
235  2.3400000000000D+00  0.0000000000000D+00  0.0000000000000D+00
236  2.3500000000000D+00  0.0000000000000D+00  0.0000000000000D+00
237  2.3600000000000D+00  0.0000000000000D+00  0.0000000000000D+00
238  2.3700000000000D+00  0.0000000000000D+00  0.0000000000000D+00
239  2.3800000000000D+00  0.0000000000000D+00  0.0000000000000D+00
240  2.3900000000000D+00  0.0000000000000D+00  0.0000000000000D+00
241  2.4000000000000D+00  0.0000000000000D+00  0.0000000000000D+00
242  2.4100000000000D+00  0.0000000000000D+00  0.0000000000000D+00
243  2.4200000000000D+00  0.0000000000000D+00  0.0000000000000D+00
244  2.4300000000000D+00  0.0000000000000D+00  0.0000000000000D+00
245  2.4400000000000D+00  0.0000000000000D+00  0.0000000000000D+00
246  2.4500000000000D+00  0.0000000000000D+00  0.0000000000000D+00
247  2.4600000000000D+00  0.0000000000000D+00  0.0000000000000D+00
248  2.4700000000000D+00  0.0000000000000D+00  0.0000000000000D+00
249  2.4800000000000D+00  0.0000000000000D+00  0.0000000000000D+00
250  2.4900000000000D+00  0.0000000000000D+00  0.0000000000000D+00
251  2.5000000000000D+00  0.0000000000000D+00  0.0000000000000D+00
252  2.5100000000000D+00  0.0000000000000D+00  0.0000000000000D+00
253  2.5200000000000D+00  0.0000000000000D+00  0.0000000000000D+00
254  2.5300000000000D+00  0.0000000000000D+00  0.0000000000000D+00
255  2.5400000000000D+00  0.0000000000000D+00  0.0000000000000D+00
256  2.5500000000000D+00  0.0000000000000D+00  0.0000000000000D+00
257  2.5600000000000D+00  0.0000000000000D+00  0.0000000000000D+00
258  2.5700000000000D+00  0.0000000000000D+00  0.0000000000000D+00
259  2.5800000000000D+00  0.0000000000000D+00  0.0000000000000D+00
260  2.5900000000000D+00  0.0000000000000D+00  0.0000000000000D+00
261  2.6000000000000D+00  0.0000000000000D+00  0.0000000000000D+00
262  2.6100000000000D+00  0.0000000000000D+00  0.0000000000000D+00
263  2.6200000000000D+00  0.0000000000000D+00  0.0000000000000D+00
264  2.6300000000000D+00  0.0000000000000D+00  0.0000000000000D+00
265  2.6400000000000D+00  0.0000000000000D+00  0.0000000000000D+00
266  2.6500000000000D+00  0.0000000000000D+00  0.0000000000000D+00
267  2.6600000000000D+00  0.0000000000000D+00  0.0000000000000D+00
268  2.6700000000000D+00  0.0000000000000D+00  0.0000000000000D+00
269  2.6800000000000D+00  0.0000000000000D+00  0.0000000000000D+00
270  2.6900000000000D+00  0.0000000000000D+00  0.0000000000000D+00
271  2.7000000000000D+00  0.0000000000000D+00  0.0000000000000D+00
272  2.7100000000000D+00  0.0000000000000D+00  0.0000000000000D+00
273  2.7200000000000D+00  0.0000000000000D+00  0.0000000000000D+00
274  2.7300000000000D+00  0.0000000000000D+00  0.0000000000000D+00
275  2.7400000000000D+00  0.0000000000000D+00  0.0000000000000D+00
276  2.7500000000000D+00  0.0000000000000D+00  0.0000000000000D+00
277  2.7600000000000D+00  0.0000000000000D+00  0.0000000000000D+00
278  2.7700000000000D+00  0.0000000000000D+00  0.0000000000000D+00
279  2.7800000000000D+00  0.0000000000000D+00  0.0000000000000D+00
280  2.7900000000000D+00  0.0000000000000D+00  0.0000000000000D+00
281  2.8000000000000D+00  0.0000000000000D+00  0.0000000000000D+00
282  2.8100000000000D+00  0.0000000000000D+00  0.0000000000000D+00
283  2.8200000000000D+00  0.0000000000000D+00  0.0000000000000D+00
284  2.8300000000000D+00  0.0000000000000D+00  0.0000000000000D+00
285  2.8400000000000D+00  0.0000000000000D+00  0.0000000000000D+00
286  2.8500000000000D+00  0.0000000000000D+00  0.0000000000000D+00
287  2.8600000000000D+00  0.0000000000000D+00  0.0000000000000D+00
288  2.8700000000000D+00  0.0000000000000D+00  0.0000000000000D+00
289  2.8800000000000D+00  0.0000000000000D+00  0.0000000000000D+00
290  2.8900000000000D+00  0.0000000000000D+00  0.0000000000000D+00
291  2.9000000000000D+00  0.0000000000000D+00  0.0000000000000D+00
292  2.9100000000000D+00  0.0000000000000D+00  0.0000000000000D+00
293  2.9200000000000D+00  0.0000000000000D+00  0.0000000000000D+00
294  2.9300000000000D+00  0.0000000000000D+00  0.0000000000000D+00
295  2.9400000000000D+00  0.0000000000000D+00  0.0000000000000D+00
296  2.9500000000000D+00  0.0000000000000D+00  0.0000000000000D+00
297  2.9600000000000D+00  0.0000000000000D+00  0.0000000000000D+00
298  2.9700000000000D+00  0.0000000000000D+00  0.0000000000000D+00
299  2.9800000000000D+00  0.0000000000000D+00  0.0000000000000D+00
300  2.9900000000000D+00  0.0000000000000D+00  0.0000000000000D+00
301  3.0000000000000D+00  0.0000000000000D+00  0.0000000000000D+00
302  3.0100000000000D+00  0.0000000000000D+00  0.0000000000000D+00
303  3.0200000000000D+00  0.0000000000000D+00  0.0000000000000D+00
304  3.0300000000000D+00  0.0000000000000D+00  0.0000000000000D+00
305  3.0400000000000D+00  0.0000000000000D+00  0.0000000000000D+00
306  3.0500000000000D+00  0.0000000000000D+00  0.0000000000000D+00
307  3.0600000000000D+00  0.0000000000000D+00  0.0000000000000D+00
308  3.0700000000000D+00  0.0000000000000D+00  0.0000000000000D+00
309  3.0800000000000D+00  0.0000000000000D+00  0.0000000000000D+00
310  3.0900000000000D+00  0.0000000000000D+00  0.0000000000000D+00
311  3.1000000000000D+00  0.0000000000000D+00  0.0000000000000D+00
312  3.1100000000000D+00  0.0000000000000D+00  0.0000000000000D+00
313  3.1200000000000D+00  0.0000000000000D+00  0.0000000000000D+00
314  3.1300000000000D+00  0.0000000000000D+00  0.0000000000000D+00
315  3.1400000000000D+00  0.0000000000000D+00  0.0000000000000D+00
316  3.1500000000000D+00  0.0000000000000D+00  0.0000000000000D+00
317  3.1600000000000D+00  0.0000000000000D+00  0.0000000000000D+00
318  3.1700000000000D+00  0.0000000000000D+00  0.0000000000000D+00
319  3.1800000000000D+00  0.0000000000000D+00  0.0000000000000D+00
320  3.1900000000000D+00  0.0000000000000D+00  0.0000000000000D+00
321  3.2000000000000D+00  0.0000000000000D+00  0.0000000000000D+00
322  3.2100000000000D+00  0.0000000000000D+00  0.0000000000000D+00
323  3.2200000000000D+00  0.0000000000000D+00  0.0000000000000D+00
324  3.2300000000000D+00  0.0000000000000D+00  0.0000000000000D+00
325  3.2400000000000D+00  0.0000000000000D+00  0.0000000000000D+00
326  3.2500000000000D+00  0.0000000000000D+00  0.0000000000000D+00
327  3.2600000000000D+00  0.0000000000000D+00  0.0000000000000D+00
328  3.2700000000000D+00  0.0000000000000D+00  0.0000000000000D+00
329  3.2800000000000D+00  0.0000000000000D+00  0.0000000000000D+00
330  3.2900000000000D+00  0.0000000000000D+00  0.0000000000000D+00
331  3.3000000000000D+00  0.0000000000000D+00  0.0000000000000D+00
332  3.3100000000000D+00  0.0000000000000D+00  0.0000000000000D+00
333  3.3200000000000D+00  0.0000000000000D+00  0.0000000000000D+00
334  3.3300000000000D+00  0.0000000000000D+00  0.0000000000000D+00
335  3.3400000000000D+00  0.0000000000000D+00  0.0000000000000D+00
336  3.3500000000000D+00  0.0000000000000D+00  0.0000000000000D+00
337  3.3600000000000D+00  0.0000000000000D+00  0.0000000000000D+00
338  3.3700000000000D+00  0.0000000000000D+00  0.0000000000000D+00
339  3.3800000000000D+00  0.0000000000000D+00  0.0000000000000D+00
340  3.3900000000000D+00  0.0000000000000D+00  0.0000000000000D+00
341  3.4000000000000D+00  0.0000000000000D+00  0.0000000000000D+00
342  3.4100000000000D+00  0.0000000000000D+00  0.0000000000000D+00
343  3.4200000000000D+00  0.0000000000000D+00  0.0000000000000D+00
344  3.4300000000000D+00  0.0000000000000D+00  0.0000000000000D+00
345  3.4400000000000D+00  0.0000000000000D+00  0.0000000000000D+00
346  3.4500000000000D+00  0.0000000000000D+00  0.0000000000000D+00
347  3.4600000000000D+00  0.0000000000000D+00  0.0000000000000D+00
348  3.4700000000000D+00  0.0000000000000D+00  0.0000000000000D+00
349  3.4800000000000D+00  0.0000000000000D+00  0.0000000000000D+00
350  3.4900000000000D+00  0.0000000000000D+00  0.0000000000000D+00
351  3.5000000000000D+00  0.0000000000000D+00  0.0000000000000D+00
352  3.5100000000000D+00  0.0000000000000D+00  0.0000000000000D+00
353  3.5200000000000D+00  0.0000000000000D+00  0.0000000000000D+00
354  3.5300000000000D+00  0.0000000000000D+00  0.0000000000000D+00
355  3.5400000000000D+00  0.0000000000000D+00  0.0000000000000D+00
356  3.5500000000000D+00  0.0000000000000D+00  0.0000000000000D+00
357  3.5600000000000D+00  0.0000000000000D+00  0.0000000000000D+00
358  3.5700000000000D+00  0.0000000000000D+00  0.0000000000000D+00
359  3.5800000000000D+00  0.0000000000000D+00  0.0000000000000D+00
360  3.5900000000000D+00  0.0000000000000D+00  0.0000000000000D+00
361  3.6000000000000D+00  0.0000000000000D+00  0.0000000000000D+00
362  3.6100000000000D+00  0.0000000000000D+00  0.0000000000000D+00
363  3.6200000000000D+00  0.0000000000000D+00  0.0000000000000D+00
364  3.6300000000000D+00  0.0000000000000D+00  0.0000000000000D+00
365  3.6400000000000D+00  0.0000000000000D+00  0.0000000000000D+00
366  3.6500000000000D+00  0.0000000000000D+00  0.0000000000000D+00
367  3.6600000000000D+00  0.0000000000000D+00  0.0000000000000D+00
368  3.6700000000000D+00  0.0000000000000D+00  0.0000000000000D+00
369  3.6800000000000D+00  0.0000000000000D+00  0.0000000000000D+00
370  3.6900000000000D+00  0.0000000000000D+00  0.0000000000000D+00
371  3.7000000000000D+00  0.0000000000000D+00  0.0000000000000D+00
372  3.7100000000000D+00  0.0000000000000D+00  0.0000000000000D+00
373  3.7200000000000D+00  0.0000000000000D+00  0.0000000000000D+00
374  3.7300000000000D+00  0.0000000000000D+00  0.0000000000000D+00
375  3.7400000000000D+00  0.0000000000000D+00  0.0000000000000D+00
376  3.7500000000000D+00  0.0000000000000D+00  0.0000000000000D+00
377  3.7600000000000D+00  0.0000000000000D+00  0.0000000000000D+00
378  3.7700000000000D+00  0.0000000000000D+00  0.0000000000000D+00
379  3.7800000000000D+00  0.0000000000000D+00  0.0000000000000D+00
380  3.7900000000000D+00  0.0000000000000D+00  0.0000000000000D+00
381  3.8000000000000D+00  0.0000000000000D+00  0.0000000000000D+00
382  3.8100000000000D+00  0.0000000000000D+00  0.0000000000000D+00
383  3.8200000000000D+00  0.0000000000000D+00  0.0000000000000D+00
384  3.8300000000000D+00  0.0000000000000D+00  0.0000000000000D+00
385  3.8400000000000D+00  0.0000000000000D+00  0.0000000000000D+00
386  3.8500000000000D+00  0.0000000000000D+00  0.0000000000000D+00
387  3.8600000000000D+00  0.0000000000000D+00  0.0000000000000D+00
388  3.8700000000000D+00  0.0000000000000D+00  0.0000000000000D+00
389  3.8800000000000D+00  0.0000000000000D+00  0.0000000000000D+00
390  3.8900000000000D+00  0.0000000000000D+00  0.0000000000000D+00
391  3.9000000000000D+00  0.0000000000000D+00  0.0000000000000D+00
392  3.9100000000000D+00  0.0000000000000D+00  0.0000000000000D+00
393  3.9200000000000D+00  0.0000000000000D+00  0.0000000000000D+00
394  3.9300000000000D+00  0.0000000000000D+00  0.0000000000000D+00
395  3.9400000000000D+00  0.0000000000000D+00  0.0000000000000D+00
396  3.9500000000000D+00  0.0000000000000D+00  0.0000000000000D+00
397  3.9600000000000D+00  0.0000000000000D+00  0.0000000000000D+00
398  3.9700000000000D+00  0.0000000000000D+00  0.0000000000000D+00
399  3.9800000000000D+00  0.0000000000000D+00  0.0000000000000D+00
400  3.9900000000000D+00  0.0000000000000D+00  0.0000000000000D+00
401  4.0000000000000D+00  0.0000000000000D+00  0.0000000000000D+00
402  4.0100000000000D+00  0.0000000000000D+00  0.0000000000000D+00
403  4.0200000000000D+00  0.0000000000000D+00  0.0000000000000D+00
404  4.0300000000000D+00  0.0000000000000D+00  0.0000000000000D+00
405  4.0400000000000D+00  0.0000000000000D+00  0.0000000000000D+00
406  4.0500000000000D+00  0.0000000000000D+00  0.0000000000000D+00
407  4.0600000000000D+00  0.0000000000000D+00  0.0000000000000D+00
408  4.0700000000000D+00  0.0000000000000D+00  0.0000000000000D+00
409  4.0800000000000D+00  0.0000000000000D+00  0.0000000000000D+00
410  4.0900000000000D+00  0.0000000000000D+00  0.0000000000000D+00
411  4.1000000000000D+00  0.0000000000000D+00  0.0000000000000D+00
412  4.1100000000000D+00  0.0000000000000D+00  0.0000000000000D+00
413  4.1200000000000D+00  0.0000000000000D+00  0.0000000000000D+00
414  4.1300000000000D+00  0.0000000000000D+00  0.0000000000000D+00
415  4.1400000000000D+00  0.0000000000000D+00  0.0000000000000D+00
416  4.1500000000000D+00  0.0000000000000D+00  0.0000000000000D+00
417  4.1600000000000D+00  0.0000000000000D+00  0.0000000000000D+00
418  4.1700000000000D+00  0.0000000000000D+00  0.0000000000000D+00
419  4.1800000000000D+00  0.0000000000000D+00  0.0000000000000D+00
420  4.1900000000000D+00  0.0000000000000D+00  0.0000000000000D+00
421  4.2000000000000D+00  0.0000000000000D+00  0.0000000000000D+00
422  4.2100000000000D+00  0.0000000000000D+00  0.0000000000000D+00
423  4.2200000000000D+00  0.0000000000000D+00  0.0000000000000D+00
424  4.2300000000000D+00  0.0000000000000D+00  0.0000000000000D+00
425  4.2400000000000D+00  0.0000000000000D+00  0.0000000000000D+00
426  4.2500000000000D+00  0.0000000000000D+00  0.0000000000000D+00
427  4.2600000000000D+00  0.0000000000000D+00  0.0000000000000D+00
428  4.2700000000000D+00  0.0000000000000D+00  0.0000000000000D+00
429  4.2800000000000D+00  0.0000000000000D+00  0.0000000000000D+00
430  4.2900000000000D+00  0.0000000000000D+00  0.0000000000000D+00
431  4.3000000000000D+00  0.0000000000000D+00  0.0000000000000D+00
432  4.3100000000000D+00  0.0000000000000D+00  0.0000000000000D+00
433  4.3200000000000D+00  0.0000000000000D+00  0.0000000000000D+00
434  4.3300000000000D+00  0.0000000000000D+00  0.0000000000000D+00
435  4.3400000000000D+00  0.0000000000000D+00  0.0000000000000D+00
436  4.3500000000000D+00  0.0000000000000D+00  0.0000000000000D+00
437  4.3600000000000D+00  0.0000000000000D+00  0.0000000000000D+00
438  4.3700000000000D+00  0.0000000000000D+00  0.0000000000000D+00
439  4.3800000000000D+00  0.0000000000000D+00  0.0000000000000D+00
440  4.3900000000000D+00  0.0000000000000D+00  0.0000000000000D+00
441  4.4000000000000D+00  0.0000000000000D+00  0.0000000000000D+00
442  4.4100000000000D+00  0.0000000000000D+00  0.0000000000000D+00
443  4.4200000000000D+00  0.0000000000000D+00  0.0000000000000D+00