In    ONCVPSP  r_core=  2.52  2.52  1.87
49.0000     13.0000      161103    zatom,zion,pspd
8      11   2     4   600     0    pspcod,pspxc,lmax,lloc,mmax,r2well
5.99000000  5.00000000  0.00000000    rchrg fchrg qchrg
2     2     2     0     0    nproj
1                 extension_switch
0                         5.5164173134406D+00  6.2250024473040D-01
1  0.0000000000000D+00 -2.9652669208957D-12 -1.8445245331122D-12
2  1.0000000000000D-02  2.0217507805964D-02 -8.5909097686142D-03
3  2.0000000000000D-02  4.0418394897590D-02 -1.7186480201514D-02
4  3.0000000000000D-02  6.0586101796077D-02 -2.5791330391500D-02
5  4.0000000000000D-02  8.0704191238627D-02 -3.4409996415907D-02
6  5.0000000000000D-02  1.0075640864951D-01 -4.3046890147178D-02
7  6.0000000000000D-02  1.2072674184885D-01 -5.1706258444077D-02
8  7.0000000000000D-02  1.4059947974858D-01 -6.0392142848297D-02
9  8.0000000000000D-02  1.6035926978782D-01 -6.9108339909333D-02
10  9.0000000000000D-02  1.7999117386379D-01 -7.7858362258251D-02
11  1.0000000000000D-01  1.9948072251884D-01 -8.6645400548296D-02
12  1.1000000000000D-01  2.1881396714925D-01 -9.5472286377217D-02
13  1.2000000000000D-01  2.3797753000748D-01 -1.0434145630268D-01
14  1.3000000000000D-01  2.5695865177643D-01 -1.1325491705843D-01
15  1.4000000000000D-01  2.7574523650146D-01 -1.2221421207462D-01
16  1.5000000000000D-01  2.9432589367425D-01 -1.3122038940135D-01
17  1.6000000000000D-01  3.1268997727175D-01 -1.4027397112987D-01
18  1.7000000000000D-01  3.3082762156275D-01 -1.4937492440071D-01
19  1.8000000000000D-01  3.4872977350545D-01 -1.5852263408319D-01
20  1.9000000000000D-01  3.6638822157048D-01 -1.6771587720529D-01
21  2.0000000000000D-01  3.8379562083559D-01 -1.7695279920739D-01
22  2.1000000000000D-01  4.0094551421106D-01 -1.8623089208811D-01
23  2.2000000000000D-01  4.1783234966819D-01 -1.9554697450466D-01
24  2.3000000000000D-01  4.3445149335704D-01 -2.0489717388449D-01
25  2.4000000000000D-01  4.5079923851463D-01 -2.1427691059986D-01
26  2.5000000000000D-01  4.6687281007978D-01 -2.2368088425061D-01
27  2.6000000000000D-01  4.8267036494691D-01 -2.3310306209571D-01
28  2.7000000000000D-01  4.9819098780757D-01 -2.4253666966824D-01
29  2.8000000000000D-01  5.1343468254552D-01 -2.5197418360335D-01
30  2.9000000000000D-01  5.2840235916879D-01 -2.6140732670364D-01
31  3.0000000000000D-01  5.4309581628001D-01 -2.7082706526131D-01
32  3.1000000000000D-01  5.5751771910490D-01 -2.8022360865185D-01
33  3.2000000000000D-01  5.7167157311746D-01 -2.8958641120920D-01
34  3.3000000000000D-01  5.8556169331950D-01 -2.9890417638816D-01
35  3.4000000000000D-01  5.9919316925140D-01 -3.0816486321557D-01
36  3.5000000000000D-01  6.1257182583056D-01 -3.1735569502792D-01
37  3.6000000000000D-01  6.2570418013325D-01 -3.2646317048929D-01
38  3.7000000000000D-01  6.3859739425551D-01 -3.3547307688028D-01
39  3.8000000000000D-01  6.5125922440793D-01 -3.4437050564494D-01
40  3.9000000000000D-01  6.6369796641844D-01 -3.5313987018025D-01
41  4.0000000000000D-01  6.7592239783659D-01 -3.6176492584941D-01
42  4.1000000000000D-01  6.8794171685125D-01 -3.7022879219799D-01
43  4.2000000000000D-01  6.9976547825209D-01 -3.7851397734900D-01
44  4.3000000000000D-01  7.1140352668300D-01 -3.8660240455156D-01
45  4.4000000000000D-01  7.2286592745271D-01 -3.9447544085458D-01
46  4.5000000000000D-01  7.3416289518438D-01 -4.0211392787566D-01
47  4.6000000000000D-01  7.4530472060146D-01 -4.0949821463317D-01
48  4.7000000000000D-01  7.5630169576191D-01 -4.1660819240728D-01
49  4.8000000000000D-01  7.6716403806649D-01 -4.2342333159430D-01
50  4.9000000000000D-01  7.7790181337935D-01 -4.2992272051615D-01
51  5.0000000000000D-01  7.8852485861067D-01 -4.3608510614533D-01
52  5.1000000000000D-01  7.9904270412084D-01 -4.4188893670323D-01
53  5.2000000000000D-01  8.0946449631467D-01 -4.4731240608777D-01
54  5.3000000000000D-01  8.1979892080100D-01 -4.5233350008367D-01
55  5.4000000000000D-01  8.3005412649875D-01 -4.5693004430636D-01
56  5.5000000000000D-01  8.4023765107457D-01 -4.6107975382758D-01
57  5.6000000000000D-01  8.5035634809915D-01 -4.6476028442781D-01
58  5.7000000000000D-01  8.6041631631021D-01 -4.6794928541727D-01
59  5.8000000000000D-01  8.7042283136822D-01 -4.7062445396362D-01
60  5.9000000000000D-01  8.8038028048840D-01 -4.7276359086091D-01
61  6.0000000000000D-01  8.9029210032667D-01 -4.7434465766923D-01
62  6.1000000000000D-01  9.0016071849069D-01 -4.7534583515085D-01
63  6.2000000000000D-01  9.0998749903781D-01 -4.7574558292295D-01
64  6.3000000000000D-01  9.1977269231067D-01 -4.7552270024190D-01
65  6.4000000000000D-01  9.2951538944853D-01 -4.7465638782841D-01
66  6.5000000000000D-01  9.3921348189688D-01 -4.7312631063635D-01
67  6.6000000000000D-01  9.4886362622148D-01 -4.7091266146199D-01
68  6.7000000000000D-01  9.5846121451398D-01 -4.6799622528325D-01
69  6.8000000000000D-01  9.6800035065545D-01 -4.6435844421158D-01
70  6.9000000000000D-01  9.7747383268180D-01 -4.5998148293103D-01
71  7.0000000000000D-01  9.8687314147094D-01 -4.5484829449250D-01
72  7.1000000000000D-01  9.9618843594540D-01 -4.4894268632148D-01
73  7.2000000000000D-01  1.0054085549569D+00 -4.4224938629086D-01
74  7.3000000000000D-01  1.0145210259903D+00 -4.3475410870116D-01
75  7.4000000000000D-01  1.0235120807943D+00 -4.2644362000212D-01
76  7.5000000000000D-01  1.0323666780147D+00 -4.1730580408159D-01
77  7.6000000000000D-01  1.0410685328728D+00 -4.0732972693822D-01
78  7.7000000000000D-01  1.0496001539001D+00 -3.9650570054709D-01
79  7.8000000000000D-01  1.0579428867026D+00 -3.8482534571816D-01
80  7.9000000000000D-01  1.0660769646974D+00 -3.7228165374004D-01
81  8.0000000000000D-01  1.0739815667251D+00 -3.5886904659349D-01
82  8.1000000000000D-01  1.0816348814077D+00 -3.4458343551171D-01
83  8.2000000000000D-01  1.0890141780868D+00 -3.2942227765794D-01
84  8.3000000000000D-01  1.0960958841380D+00 -3.1338463068374D-01
85  8.4000000000000D-01  1.1028556684263D+00 -2.9647120492676D-01
86  8.5000000000000D-01  1.1092685306284D+00 -2.7868441300064D-01
87  8.6000000000000D-01  1.1153088961158D+00 -2.6002841652645D-01
88  8.7000000000000D-01  1.1209507160592D+00 -2.4050916975115D-01
89  8.8000000000000D-01  1.1261675723812D+00 -2.2013445979673D-01
90  8.9000000000000D-01  1.1309327871533D+00 -1.9891394328215D-01
91  9.0000000000000D-01  1.1352195360051D+00 -1.7685917906024D-01
92  9.1000000000000D-01  1.1390009650838D+00 -1.5398365681276D-01
93  9.2000000000000D-01  1.1422503110768D+00 -1.3030282124943D-01
94  9.3000000000000D-01  1.1449410237853D+00 -1.0583409166024D-01
95  9.4000000000000D-01  1.1470468907160D+00 -8.0596876575636D-02
96  9.5000000000000D-01  1.1485421631359D+00 -5.4612583296038D-02
97  9.6000000000000D-01  1.1494016830216D+00 -2.7904622059894D-02
98  9.7000000000000D-01  1.1496010103156D+00 -4.9840462949381D-04
99  9.8000000000000D-01  1.1491165498926D+00  2.7578662914967D-02
100  9.9000000000000D-01  1.1479256776304D+00  5.6297193369697D-02
101  1.0000000000000D+00  1.1460068649710D+00  8.5625837772308D-02
102  1.0100000000000D+00  1.1433398013574D+00  1.1553131110328D-01
103  1.0200000000000D+00  1.1399055139291D+00  1.4597842447210D-01
104  1.0300000000000D+00  1.1356864838643D+00  1.7693012391707D-01
105  1.0400000000000D+00  1.1306667587618D+00  2.0834753592624D-01
106  1.0500000000000D+00  1.1248320604663D+00  2.4019001976496D-01
107  1.0600000000000D+00  1.1181698877522D+00  2.7241522667200D-01
108  1.0700000000000D+00  1.1106696132978D+00  3.0497916595934D-01
109  1.0800000000000D+00  1.1023225744013D+00  3.3783627802532D-01
110  1.0900000000000D+00  1.0931221569109D+00  3.7093951426180D-01
111  1.1000000000000D+00  1.0830638718694D+00  4.0424042380705D-01
112  1.1100000000000D+00  1.0721454243957D+00  4.3768924706732D-01
113  1.1200000000000D+00  1.0603667743660D+00  4.7123501589537D-01
114  1.1300000000000D+00  1.0477301884828D+00  5.0482566028492D-01
115  1.1400000000000D+00  1.0342402833629D+00  5.3840812140397D-01
116  1.1500000000000D+00  1.0199040593067D+00  5.7192847076340D-01
117  1.1600000000000D+00  1.0047309244606D+00  6.0533203527351D-01
118  1.1700000000000D+00  9.8873270912335D-01  6.3856352791321D-01
119  1.1800000000000D+00  9.7192366999436D-01  6.7156718370017D-01
120  1.1900000000000D+00  9.5432048419962D-01  7.0428690062038D-01
121  1.2000000000000D+00  9.3594223299430D-01  7.3666638513306D-01
122  1.2100000000000D+00  9.1681037508660D-01  7.6864930183501D-01
123  1.2200000000000D+00  8.9694870955909D-01  8.0017942684748D-01
124  1.2300000000000D+00  8.7638332844123D-01  8.3120080443863D-01
125  1.2400000000000D+00  8.5514255903044D-01  8.6165790636933D-01
126  1.2500000000000D+00  8.3325689609643D-01  8.9149579342765D-01
127  1.2600000000000D+00  8.1075892416726D-01  9.2066027857981D-01
128  1.2700000000000D+00  7.8768323015873D-01  9.4909809113296D-01
129  1.2800000000000D+00  7.6406630663262D-01  9.7675704129277D-01
130  1.2900000000000D+00  7.3994644602954D-01  1.0035861844672D+00
131  1.3000000000000D+00  7.1536362629464D-01  1.0295359846362D+00
132  1.3100000000000D+00  6.9035938831898D-01  1.0545584761064D+00
133  1.3200000000000D+00  6.6497670568852D-01  1.0786074229368D+00
134  1.3300000000000D+00  6.3925984729742D-01  1.1016384753052D+00
135  1.3400000000000D+00  6.1325423336570D-01  1.1236093220867D+00
136  1.3500000000000D+00  5.8700628549395D-01  1.1444798388868D+00
137  1.3600000000000D+00  5.6056327141903D-01  1.1642122307752D+00
138  1.3700000000000D+00  5.3397314510936D-01  1.1827711689592D+00
139  1.3800000000000D+00  5.0728438296102D-01  1.2001239206306D+00
140  1.3900000000000D+00  4.8054581680694D-01  1.2162404712277D+00
141  1.4000000000000D+00  4.5380646450125D-01  1.2310936383418D+00
142  1.4100000000000D+00  4.2711535888446D-01  1.2446591765374D+00
143  1.4200000000000D+00  4.0052137589855D-01  1.2569158723184D+00
144  1.4300000000000D+00  3.7407306269140D-01  1.2678456285293D+00
145  1.4400000000000D+00  3.4781846651189D-01  1.2774335374857D+00
146  1.4500000000000D+00  3.2180496523562D-01  1.2856679421009D+00
147  1.4600000000000D+00  2.9607910033063D-01  1.2925404844128D+00
148  1.4700000000000D+00  2.7068641310743D-01  1.2980461407719D+00
149  1.4800000000000D+00  2.4567128504748D-01  1.3021832431620D+00
150  1.4900000000000D+00  2.2107678302415D-01  1.3049534860148D+00
151  1.5000000000000D+00  1.9694451021923D-01  1.3063619179663D+00
152  1.5100000000000D+00  1.7331446345354D-01  1.3064169181068D+00
153  1.5200000000000D+00  1.5022489777719D-01  1.3051301561082D+00
154  1.5300000000000D+00  1.2771219888841D-01  1.3025165360067D+00
155  1.5400000000000D+00  1.0581076426436D-01  1.2985941229828D+00
156  1.5500000000000D+00  8.4552893452946D-02  1.2933840530705D+00
157  1.5600000000000D+00  6.3968688333826D-02  1.2869104252504D+00
158  1.5700000000000D+00  4.4085963781682D-02  1.2792001758625D+00
159  1.5800000000000D+00  2.4930169360514D-02  1.2702829350209D+00
160  1.5900000000000D+00  6.5243225139634D-03  1.2601908649227D+00
161  1.6000000000000D+00 -1.1111046349726D-02  1.2489584799896D+00
162  1.6100000000000D+00 -2.7957936359781D-02  1.2366224486796D+00
163  1.6200000000000D+00 -4.4000906135065D-02  1.2232213771745D+00
164  1.6300000000000D+00 -5.9227090607369D-02  1.2087955747285D+00
165  1.6400000000000D+00 -7.3626204853430D-02  1.1933868011428D+00
166  1.6500000000000D+00 -8.7190534225195D-02  1.1770379923659D+00
167  1.6600000000000D+00 -9.9914911713730D-02  1.1597929904034D+00
168  1.6700000000000D+00 -1.1179667922216D-01  1.1416961774126D+00
169  1.6800000000000D+00 -1.2283564353812D-01  1.1227923108592D+00
170  1.6900000000000D+00 -1.3303400368982D-01  1.1031260398728D+00
171  1.7000000000000D+00 -1.4239627389961D-01  1.0827412443662D+00
172  1.7100000000000D+00 -1.5092920718431D-01  1.0616815146684D+00
173  1.7200000000000D+00 -1.5864170047536D-01  1.0399904497021D+00
174  1.7300000000000D+00 -1.6554474008958D-01  1.0177120636270D+00
175  1.7400000000000D+00 -1.7165134446880D-01  9.9489156460147D-01
176  1.7500000000000D+00 -1.7697648752137D-01  9.7157509459484D-01
177  1.7600000000000D+00 -1.8153702435774D-01  9.4780940649927D-01
178  1.7700000000000D+00 -1.8535160506911D-01  9.2364182580394D-01
179  1.7800000000000D+00 -1.8844058273812D-01  8.9912010587768D-01
180  1.7900000000000D+00 -1.9082591582973D-01  8.7429228392011D-01
181  1.8000000000000D+00 -1.9253106491121D-01  8.4920654701374D-01
182  1.8100000000000D+00 -1.9358088425330D-01  8.2391109078913D-01
183  1.8200000000000D+00 -1.9400150891161D-01  7.9845398025808D-01
184  1.8300000000000D+00 -1.9382023786191D-01  7.7288301144307D-01
185  1.8400000000000D+00 -1.9306541366673D-01  7.4724557429888D-01
186  1.8500000000000D+00 -1.9176629938042D-01  7.2158851742011D-01
187  1.8600000000000D+00 -1.8995295313904D-01  6.9595801512379D-01
188  1.8700000000000D+00 -1.8765610114643D-01  6.7039943722430D-01
189  1.8800000000000D+00 -1.8490700959660D-01  6.4495722228932D-01
190  1.8900000000000D+00 -1.8173735610093D-01  6.1967475445059D-01
191  1.9000000000000D+00 -1.7817910133903D-01  5.9459424469934D-01
192  1.9100000000000D+00 -1.7426436133611D-01  5.6975661665394D-01
193  1.9200000000000D+00 -1.7002528115048D-01  5.4520139760669D-01
194  1.9300000000000D+00 -1.6549391040657D-01  5.2096661505098D-01
195  1.9400000000000D+00 -1.6070208122057D-01  4.9708869903611D-01
196  1.9500000000000D+00 -1.5568128932181D-01  4.7360239109066D-01
197  1.9600000000000D+00 -1.5046257831178D-01  4.5054065929007D-01
198  1.9700000000000D+00 -1.4507642845346D-01  4.2793462087673D-01
199  1.9800000000000D+00 -1.3955264943556D-01  4.0581347149731D-01
200  1.9900000000000D+00 -1.3392027851276D-01  3.8420442238006D-01
201  2.0000000000000D+00 -1.2820748382404D-01  3.6313264500032D-01
202  2.0100000000000D+00 -1.2244147339340D-01  3.4262122353279D-01
203  2.0200000000000D+00 -1.1664841074278D-01  3.2269111582725D-01
204  2.0300000000000D+00 -1.1085333616660D-01  3.0336112176341D-01
205  2.0400000000000D+00 -1.0508009576494D-01  2.8464786081477D-01
206  2.0500000000000D+00 -9.9351276689369D-02  2.6656575716774D-01
207  2.0600000000000D+00 -9.3688150060951D-02  2.4912703356242D-01
208  2.0700000000000D+00 -8.8110621493202D-02  2.3234171361104D-01
209  2.0800000000000D+00 -8.2637188482244D-02  2.1621763176572D-01
210  2.0900000000000D+00 -7.7284906614950D-02  2.0076045245090D-01
211  2.1000000000000D+00 -7.2069362458950D-02  1.8597369636589D-01
212  2.1100000000000D+00 -6.7004654961077D-02  1.7185877531213D-01
213  2.1200000000000D+00 -6.2103384612143D-02  1.5841503476027D-01
214  2.1300000000000D+00 -5.7376649657172D-02  1.4563980340896D-01
215  2.1400000000000D+00 -5.2834051149512D-02  1.3352845097428D-01
216  2.1500000000000D+00 -4.8483704384470D-02  1.2207445212652D-01
217  2.1600000000000D+00 -4.4332258369786D-02  1.1126945765605D-01
218  2.1700000000000D+00 -4.0384922594920D-02  1.0110337213085D-01
219  2.1800000000000D+00 -3.6645499815241D-02  9.1564436940683D-02
220  2.1900000000000D+00 -3.3116426815277D-02  8.2639319923039D-02
221  2.2000000000000D+00 -2.9798820517166D-02  7.4313209550026D-02
222  2.2100000000000D+00 -2.6692530432450D-02  6.6569914159487D-02
223  2.2200000000000D+00 -2.3796197233379D-02  5.9391965864373D-02
224  2.2300000000000D+00 -2.1107315724096D-02  5.2760727857567D-02
225  2.2400000000000D+00 -1.8622303569638D-02  4.6656505691247D-02
226  2.2500000000000D+00 -1.6336574096802D-02  4.1058661319611D-02
227  2.2600000000000D+00 -1.4244612827309D-02  3.5945729496186D-02
228  2.2700000000000D+00 -1.2340058154221D-02  3.1295536420095D-02
229  2.2800000000000D+00 -1.0615784542137D-02  2.7085319643475D-02
230  2.2900000000000D+00 -9.0639884368949D-03  2.3291848963595D-02
231  2.3000000000000D+00 -7.6762763192776D-03  1.9891547724183D-02
232  2.3100000000000D+00 -6.4437541062778D-03  1.6860614119634D-02
233  2.3200000000000D+00 -5.3571176226696D-03  1.4175141692094D-02
234  2.3300000000000D+00 -4.4067434949179D-03  1.1811238700694D-02
235  2.3400000000000D+00 -3.5827802014041D-03  9.7451462177490D-03
236  2.3500000000000D+00 -2.8752381554715D-03  7.9533534034262D-03
237  2.3600000000000D+00 -2.2740790086971D-03  6.4127106083545D-03
238  2.3700000000000D+00 -1.7693035115915D-03  5.1005395052057D-03
239  2.3800000000000D+00 -1.3510366330913D-03  3.9947388529535D-03
240  2.3900000000000D+00 -1.0096108700983D-03  3.0738870668088D-03
241  2.4000000000000D+00 -7.3564630125946D-04  2.3173400625421D-03
242  2.4100000000000D+00 -5.2012651566256D-04  1.7053235415694D-03
243  2.4200000000000D+00 -3.5447183846895D-04  1.2190211980696D-03
244  2.4300000000000D+00 -2.3060742585297D-04  8.4065646067612D-04
245  2.4400000000000D+00 -1.4101056372515D-04  5.5349203524301D-04
246  2.4500000000000D+00 -7.8824385087566D-05  3.4216190810771D-04
247  2.4600000000000D+00 -3.7868316419479D-05  1.9253007372038D-04
248  2.4700000000000D+00 -1.2858942307790D-05  9.2179948200674D-05
249  2.4800000000000D+00  1.2512162059464D-06  2.8519032996632D-05
250  2.4900000000000D+00  8.5829511582520D-06 -9.3306034763303D-06
251  2.5000000000000D+00  1.2738412605024D-05 -3.1385498769805D-05
252  2.5100000000000D+00  1.4457282352131D-05 -4.1144143904423D-05
253  2.5200000000000D+00  1.3880441587884D-05 -4.0808787524319D-05
254  2.5300000000000D+00  1.0160608542208D-05 -3.0152413726174D-05
255  2.5400000000000D+00  5.1893192427932D-06 -1.5408974480428D-05
256  2.5500000000000D+00  6.9454763867362D-07 -2.0539256681411D-06
257  2.5600000000000D+00 -1.2458214990611D-06  3.7951335721087D-06
258  2.5700000000000D+00 -1.2550313980944D-06  3.8321266955144D-06
259  2.5800000000000D+00 -2.8927302459087D-07  8.8461664655957D-07
260  2.5900000000000D+00  2.5811899600153D-07 -7.8835047936236D-07
261  2.6000000000000D+00  3.1947980881395D-07 -9.7732128856029D-07
262  2.6100000000000D+00  1.0611117821293D-07 -3.2503836143441D-07
263  2.6200000000000D+00 -2.5539965716216D-08  7.5145787112182D-08
264  2.6300000000000D+00 -3.7934195601187D-08  1.1161310937503D-07
265  2.6400000000000D+00 -1.7099981528827D-08  5.0312971672142D-08
266  2.6500000000000D+00  0.0000000000000D+00  0.0000000000000D+00
267  2.6600000000000D+00  0.0000000000000D+00  0.0000000000000D+00
268  2.6700000000000D+00  0.0000000000000D+00  0.0000000000000D+00
269  2.6800000000000D+00  0.0000000000000D+00  0.0000000000000D+00
270  2.6900000000000D+00  0.0000000000000D+00  0.0000000000000D+00
271  2.7000000000000D+00  0.0000000000000D+00  0.0000000000000D+00
272  2.7100000000000D+00  0.0000000000000D+00  0.0000000000000D+00
273  2.7200000000000D+00  0.0000000000000D+00  0.0000000000000D+00
274  2.7300000000000D+00  0.0000000000000D+00  0.0000000000000D+00
275  2.7400000000000D+00  0.0000000000000D+00  0.0000000000000D+00
276  2.7500000000000D+00  0.0000000000000D+00  0.0000000000000D+00
277  2.7600000000000D+00  0.0000000000000D+00  0.0000000000000D+00
278  2.7700000000000D+00  0.0000000000000D+00  0.0000000000000D+00
279  2.7800000000000D+00  0.0000000000000D+00  0.0000000000000D+00
280  2.7900000000000D+00  0.0000000000000D+00  0.0000000000000D+00
281  2.8000000000000D+00  0.0000000000000D+00  0.0000000000000D+00
282  2.8100000000000D+00  0.0000000000000D+00  0.0000000000000D+00
283  2.8200000000000D+00  0.0000000000000D+00  0.0000000000000D+00
284  2.8300000000000D+00  0.0000000000000D+00  0.0000000000000D+00
285  2.8400000000000D+00  0.0000000000000D+00  0.0000000000000D+00
286  2.8500000000000D+00  0.0000000000000D+00  0.0000000000000D+00
287  2.8600000000000D+00  0.0000000000000D+00  0.0000000000000D+00
288  2.8700000000000D+00  0.0000000000000D+00  0.0000000000000D+00
289  2.8800000000000D+00  0.0000000000000D+00  0.0000000000000D+00
290  2.8900000000000D+00  0.0000000000000D+00  0.0000000000000D+00
291  2.9000000000000D+00  0.0000000000000D+00  0.0000000000000D+00
292  2.9100000000000D+00  0.0000000000000D+00  0.0000000000000D+00
293  2.9200000000000D+00  0.0000000000000D+00  0.0000000000000D+00
294  2.9300000000000D+00  0.0000000000000D+00  0.0000000000000D+00
295  2.9400000000000D+00  0.0000000000000D+00  0.0000000000000D+00
296  2.9500000000000D+00  0.0000000000000D+00  0.0000000000000D+00
297  2.9600000000000D+00  0.0000000000000D+00  0.0000000000000D+00
298  2.9700000000000D+00  0.0000000000000D+00  0.0000000000000D+00
299  2.9800000000000D+00  0.0000000000000D+00  0.0000000000000D+00
300  2.9900000000000D+00  0.0000000000000D+00  0.0000000000000D+00
301  3.0000000000000D+00  0.0000000000000D+00  0.0000000000000D+00
302  3.0100000000000D+00  0.0000000000000D+00  0.0000000000000D+00
303  3.0200000000000D+00  0.0000000000000D+00  0.0000000000000D+00
304  3.0300000000000D+00  0.0000000000000D+00  0.0000000000000D+00
305  3.0400000000000D+00  0.0000000000000D+00  0.0000000000000D+00
306  3.0500000000000D+00  0.0000000000000D+00  0.0000000000000D+00
307  3.0600000000000D+00  0.0000000000000D+00  0.0000000000000D+00
308  3.0700000000000D+00  0.0000000000000D+00  0.0000000000000D+00
309  3.0800000000000D+00  0.0000000000000D+00  0.0000000000000D+00
310  3.0900000000000D+00  0.0000000000000D+00  0.0000000000000D+00
311  3.1000000000000D+00  0.0000000000000D+00  0.0000000000000D+00
312  3.1100000000000D+00  0.0000000000000D+00  0.0000000000000D+00
313  3.1200000000000D+00  0.0000000000000D+00  0.0000000000000D+00
314  3.1300000000000D+00  0.0000000000000D+00  0.0000000000000D+00
315  3.1400000000000D+00  0.0000000000000D+00  0.0000000000000D+00
316  3.1500000000000D+00  0.0000000000000D+00  0.0000000000000D+00
317  3.1600000000000D+00  0.0000000000000D+00  0.0000000000000D+00
318  3.1700000000000D+00  0.0000000000000D+00  0.0000000000000D+00
319  3.1800000000000D+00  0.0000000000000D+00  0.0000000000000D+00
320  3.1900000000000D+00  0.0000000000000D+00  0.0000000000000D+00
321  3.2000000000000D+00  0.0000000000000D+00  0.0000000000000D+00
322  3.2100000000000D+00  0.0000000000000D+00  0.0000000000000D+00
323  3.2200000000000D+00  0.0000000000000D+00  0.0000000000000D+00
324  3.2300000000000D+00  0.0000000000000D+00  0.0000000000000D+00
325  3.2400000000000D+00  0.0000000000000D+00  0.0000000000000D+00
326  3.2500000000000D+00  0.0000000000000D+00  0.0000000000000D+00
327  3.2600000000000D+00  0.0000000000000D+00  0.0000000000000D+00
328  3.2700000000000D+00  0.0000000000000D+00  0.0000000000000D+00
329  3.2800000000000D+00  0.0000000000000D+00  0.0000000000000D+00
330  3.2900000000000D+00  0.0000000000000D+00  0.0000000000000D+00
331  3.3000000000000D+00  0.0000000000000D+00  0.0000000000000D+00
332  3.3100000000000D+00  0.0000000000000D+00  0.0000000000000D+00
333  3.3200000000000D+00  0.0000000000000D+00  0.0000000000000D+00
334  3.3300000000000D+00  0.0000000000000D+00  0.0000000000000D+00
335  3.3400000000000D+00  0.0000000000000D+00  0.0000000000000D+00
336  3.3500000000000D+00  0.0000000000000D+00  0.0000000000000D+00
337  3.3600000000000D+00  0.0000000000000D+00  0.0000000000000D+00
338  3.3700000000000D+00  0.0000000000000D+00  0.0000000000000D+00
339  3.3800000000000D+00  0.0000000000000D+00  0.0000000000000D+00
340  3.3900000000000D+00  0.0000000000000D+00  0.0000000000000D+00
341  3.4000000000000D+00  0.0000000000000D+00  0.0000000000000D+00
342  3.4100000000000D+00  0.0000000000000D+00  0.0000000000000D+00
343  3.4200000000000D+00  0.0000000000000D+00  0.0000000000000D+00
344  3.4300000000000D+00  0.0000000000000D+00  0.0000000000000D+00
345  3.4400000000000D+00  0.0000000000000D+00  0.0000000000000D+00
346  3.4500000000000D+00  0.0000000000000D+00  0.0000000000000D+00
347  3.4600000000000D+00  0.0000000000000D+00  0.0000000000000D+00
348  3.4700000000000D+00  0.0000000000000D+00  0.0000000000000D+00
349  3.4800000000000D+00  0.0000000000000D+00  0.0000000000000D+00
350  3.4900000000000D+00  0.0000000000000D+00  0.0000000000000D+00
351  3.5000000000000D+00  0.0000000000000D+00  0.0000000000000D+00
352  3.5100000000000D+00  0.0000000000000D+00  0.0000000000000D+00
353  3.5200000000000D+00  0.0000000000000D+00  0.0000000000000D+00
354  3.5300000000000D+00  0.0000000000000D+00  0.0000000000000D+00
355  3.5400000000000D+00  0.0000000000000D+00  0.0000000000000D+00
356  3.5500000000000D+00  0.0000000000000D+00  0.0000000000000D+00
357  3.5600000000000D+00  0.0000000000000D+00  0.0000000000000D+00
358  3.5700000000000D+00  0.0000000000000D+00  0.0000000000000D+00
359  3.5800000000000D+00  0.0000000000000D+00  0.0000000000000D+00
360  3.5900000000000D+00  0.0000000000000D+00  0.0000000000000D+00
361  3.6000000000000D+00  0.0000000000000D+00  0.0000000000000D+00
362  3.6100000000000D+00  0.0000000000000D+00  0.0000000000000D+00
363  3.6200000000000D+00  0.0000000000000D+00  0.0000000000000D+00
364  3.6300000000000D+00  0.0000000000000D+00  0.0000000000000D+00
365  3.6400000000000D+00  0.0000000000000D+00  0.0000000000000D+00
366  3.6500000000000D+00  0.0000000000000D+00  0.0000000000000D+00
367  3.6600000000000D+00  0.0000000000000D+00  0.0000000000000D+00
368  3.6700000000000D+00  0.0000000000000D+00  0.0000000000000D+00
369  3.6800000000000D+00  0.0000000000000D+00  0.0000000000000D+00
370  3.6900000000000D+00  0.0000000000000D+00  0.0000000000000D+00
371  3.7000000000000D+00  0.0000000000000D+00  0.0000000000000D+00
372  3.7100000000000D+00  0.0000000000000D+00  0.0000000000000D+00
373  3.7200000000000D+00  0.0000000000000D+00  0.0000000000000D+00
374  3.7300000000000D+00  0.0000000000000D+00  0.0000000000000D+00
375  3.7400000000000D+00  0.0000000000000D+00  0.0000000000000D+00
376  3.7500000000000D+00  0.0000000000000D+00  0.0000000000000D+00
377  3.7600000000000D+00  0.0000000000000D+00  0.0000000000000D+00
378  3.7700000000000D+00  0.0000000000000D+00  0.0000000000000D+00
379  3.7800000000000D+00  0.0000000000000D+00  0.0000000000000D+00
380  3.7900000000000D+00  0.0000000000000D+00  0.0000000000000D+00
381  3.8000000000000D+00  0.0000000000000D+00  0.0000000000000D+00
382  3.8100000000000D+00  0.0000000000000D+00  0.0000000000000D+00
383  3.8200000000000D+00  0.0000000000000D+00  0.0000000000000D+00
384  3.8300000000000D+00  0.0000000000000D+00  0.0000000000000D+00
385  3.8400000000000D+00  0.0000000000000D+00  0.0000000000000D+00
386  3.8500000000000D+00  0.0000000000000D+00  0.0000000000000D+00
387  3.8600000000000D+00  0.0000000000000D+00  0.0000000000000D+00
388  3.8700000000000D+00  0.0000000000000D+00  0.0000000000000D+00
389  3.8800000000000D+00  0.0000000000000D+00  0.0000000000000D+00
390  3.8900000000000D+00  0.0000000000000D+00  0.0000000000000D+00
391  3.9000000000000D+00  0.0000000000000D+00  0.0000000000000D+00
392  3.9100000000000D+00  0.0000000000000D+00  0.0000000000000D+00
393  3.9200000000000D+00  0.0000000000000D+00  0.0000000000000D+00
394  3.9300000000000D+00  0.0000000000000D+00  0.0000000000000D+00
395  3.9400000000000D+00  0.0000000000000D+00  0.0000000000000D+00
396  3.9500000000000D+00  0.0000000000000D+00  0.0000000000000D+00
397  3.9600000000000D+00  0.0000000000000D+00  0.0000000000000D+00
398  3.9700000000000D+00  0.0000000000000D+00  0.0000000000000D+00
399  3.9800000000000D+00  0.0000000000000D+00  0.0000000000000D+00
400  3.9900000000000D+00  0.0000000000000D+00  0.0000000000000D+00
401  4.0000000000000D+00  0.0000000000000D+00  0.0000000000000D+00
402  4.0100000000000D+00  0.0000000000000D+00  0.0000000000000D+00
403  4.0200000000000D+00  0.0000000000000D+00  0.0000000000000D+00
404  4.0300000000000D+00  0.0000000000000D+00  0.0000000000000D+00
405  4.0400000000000D+00  0.0000000000000D+00  0.0000000000000D+00
406  4.0500000000000D+00  0.0000000000000D+00  0.0000000000000D+00
407  4.0600000000000D+00  0.0000000000000D+00  0.0000000000000D+00
408  4.0700000000000D+00  0.0000000000000D+00  0.0000000000000D+00
409  4.0800000000000D+00  0.0000000000000D+00  0.0000000000000D+00
410  4.0900000000000D+00  0.0000000000000D+00  0.0000000000000D+00
411  4.1000000000000D+00  0.0000000000000D+00  0.0000000000000D+00
412  4.1100000000000D+00  0.0000000000000D+00  0.0000000000000D+00
413  4.1200000000000D+00  0.0000000000000D+00  0.0000000000000D+00
414  4.1300000000000D+00  0.0000000000000D+00  0.0000000000000D+00
415  4.1400000000000D+00  0.0000000000000D+00  0.0000000000000D+00
416  4.1500000000000D+00  0.0000000000000D+00  0.0000000000000D+00
417  4.1600000000000D+00  0.0000000000000D+00  0.0000000000000D+00
418  4.1700000000000D+00  0.0000000000000D+00  0.0000000000000D+00
419  4.1800000000000D+00  0.0000000000000D+00  0.0000000000000D+00
420  4.1900000000000D+00  0.0000000000000D+00  0.0000000000000D+00
421  4.2000000000000D+00  0.0000000000000D+00  0.0000000000000D+00
422  4.2100000000000D+00  0.0000000000000D+00  0.0000000000000D+00
423  4.2200000000000D+00  0.0000000000000D+00  0.0000000000000D+00
424  4.2300000000000D+00  0.0000000000000D+00  0.0000000000000D+00
425  4.2400000000000D+00  0.0000000000000D+00  0.0000000000000D+00
426  4.2500000000000D+00  0.0000000000000D+00  0.0000000000000D+00
427  4.2600000000000D+00  0.0000000000000D+00  0.0000000000000D+00
428  4.2700000000000D+00  0.0000000000000D+00  0.0000000000000D+00
429  4.2800000000000D+00  0.0000000000000D+00  0.0000000000000D+00
430  4.2900000000000D+00  0.0000000000000D+00  0.0000000000000D+00
431  4.3000000000000D+00  0.0000000000000D+00  0.0000000000000D+00
432  4.3100000000000D+00  0.0000000000000D+00  0.0000000000000D+00
433  4.3200000000000D+00  0.0000000000000D+00  0.0000000000000D+00
434  4.3300000000000D+00  0.0000000000000D+00  0.0000000000000D+00
435  4.3400000000000D+00  0.0000000000000D+00  0.0000000000000D+00
436  4.3500000000000D+00  0.0000000000000D+00  0.0000000000000D+00
437  4.3600000000000D+00  0.0000000000000D+00  0.0000000000000D+00
438  4.3700000000000D+00  0.0000000000000D+00  0.0000000000000D+00
439  4.3800000000000D+00  0.0000000000000D+00  0.0000000000000D+00
440  4.3900000000000D+00  0.0000000000000D+00  0.0000000000000D+00
441  4.4000000000000D+00  0.0000000000000D+00  0.0000000000000D+00
442  4.4100000000000D+00  0.0000000000000D+00  0.0000000000000D+00
443  4.4200000000000D+00  0.0000000000000D+00  0.0000000000000D+00
444  4.4300000000000D+00  0.0000000000000D+00  0.0000000000000D+00