In    ONCVPSP  r_core=  2.11  2.38  1.87
49.0000     13.0000      160330    zatom,zion,pspd
8      11   2     4   600     0    pspcod,pspxc,lmax,lloc,mmax,r2well
5.99000000  5.00000000  0.00000000    rchrg fchrg qchrg
2     3     2     0    nproj
3                 extension_switch
4     4     0    nprojso
0                         1.8205236598953D+00  1.2113010556441D+01
1  0.0000000000000D+00  2.0097362662952D-10 -1.8345991392721D-10
2  1.0000000000000D-02 -3.6525657930426D-02  5.1393466157393D-02
3  2.0000000000000D-02 -7.2791249451766D-02  1.0254279653713D-01
4  3.0000000000000D-02 -1.0853825965683D-01  1.5320530423881D-01
5  4.0000000000000D-02 -1.4351126758479D-01  2.0314119173028D-01
6  5.0000000000000D-02 -1.7745947060178D-01  2.5211497461253D-01
7  6.0000000000000D-02 -2.1013818181245D-01  2.9989688041128D-01
8  7.0000000000000D-02 -2.4131029174931D-01  3.4626421428661D-01
9  8.0000000000000D-02 -2.7074768578735D-01  3.9100268373514D-01
10  9.0000000000000D-02 -2.9823260898060D-01  4.3390767458707D-01
11  1.0000000000000D-01 -3.2355897031380D-01  4.7478547087078D-01
12  1.1000000000000D-01 -3.4653357870362D-01  5.1345441142944D-01
13  1.2000000000000D-01 -3.6697730346938D-01  5.4974597652654D-01
14  1.3000000000000D-01 -3.8472615241986D-01  5.8350579806685D-01
15  1.4000000000000D-01 -3.9963226116955D-01  6.1459458748574D-01
16  1.5000000000000D-01 -4.1156478780016D-01  6.4288897582002D-01
17  1.6000000000000D-01 -4.2041070752162D-01  6.6828226096480D-01
18  1.7000000000000D-01 -4.2607550255485D-01  6.9068505764177D-01
19  1.8000000000000D-01 -4.2848374305655D-01  7.1002584615091D-01
20  1.9000000000000D-01 -4.2757955552839D-01  7.2625141654788D-01
21  2.0000000000000D-01 -4.2332697579754D-01  7.3932720548000D-01
22  2.1000000000000D-01 -4.1571018431819D-01  7.4923752352112D-01
23  2.2000000000000D-01 -4.0473362222107D-01  7.5598567146775D-01
24  2.3000000000000D-01 -3.9042198722704D-01  7.5959394469075D-01
25  2.4000000000000D-01 -3.7282010923602D-01  7.6010352527673D-01
26  2.5000000000000D-01 -3.5199270610270D-01  7.5757426233612D-01
27  2.6000000000000D-01 -3.2802402080858D-01  7.5208434149859D-01
28  2.7000000000000D-01 -3.0101734193505D-01  7.4372984525644D-01
29  2.8000000000000D-01 -2.7109441002814D-01  7.3262420644966D-01
30  2.9000000000000D-01 -2.3839471311966D-01  7.1889755780909D-01
31  3.0000000000000D-01 -2.0307467532758D-01  7.0269598108266D-01
32  3.1000000000000D-01 -1.6530674309628D-01  6.8418065986124D-01
33  3.2000000000000D-01 -1.2527837425213D-01  6.6352694079032D-01
34  3.3000000000000D-01 -8.3190935636677D-02  6.4092330840060D-01
35  3.4000000000000D-01 -3.9258515636263D-02  6.1657027930870D-01
36  3.5000000000000D-01  6.2933415509873D-03  5.9067922202762D-01
37  3.6000000000000D-01  5.3228972584952D-02  5.6347110908126D-01
38  3.7000000000000D-01  1.0130399482015D-01  5.3517520853557D-01
39  3.8000000000000D-01  1.5026676113799D-01  5.0602772243848D-01
40  3.9000000000000D-01  1.9985986124833D-01  4.7627037999878D-01
41  4.0000000000000D-01  2.4982166062730D-01  4.4614899362888D-01
42  4.1000000000000D-01  2.9988786800173D-01  4.1591198622490D-01
43  4.2000000000000D-01  3.4979312208635D-01  3.8580889825975D-01
44  4.3000000000000D-01  3.9927258812997D-01  3.5608888341716D-01
45  4.4000000000000D-01  4.4806355473120D-01  3.2699920159761D-01
46  4.5000000000000D-01  4.9590702134556D-01  2.9878371817858D-01
47  4.6000000000000D-01  5.4254926692354D-01  2.7168141841162D-01
48  4.7000000000000D-01  5.8774339019392D-01  2.4592494578645D-01
49  4.8000000000000D-01  6.3125081223851D-01  2.2173917308767D-01
50  4.9000000000000D-01  6.7284273219345D-01  1.9933981471375D-01
51  5.0000000000000D-01  7.1230152715655D-01  1.7893208861939D-01
52  5.1000000000000D-01  7.4942208768023D-01  1.6070943598434D-01
53  5.2000000000000D-01  7.8401308058283D-01  1.4485230640352D-01
54  5.3000000000000D-01  8.1589813121683D-01  1.3152701603695D-01
55  5.4000000000000D-01  8.4491691778703D-01  1.2088468575614D-01
56  5.5000000000000D-01  8.7092617081563D-01  1.1306026587635D-01
57  5.6000000000000D-01  8.9380057139802D-01  1.0817165357578D-01
58  5.7000000000000D-01  9.1343354248297D-01  1.0631890857540D-01
59  5.8000000000000D-01  9.2973792803934D-01  1.0758357208747D-01
60  5.9000000000000D-01  9.4264655563413D-01  1.1202809344509D-01
61  6.0000000000000D-01  9.5211267864186D-01  1.1969536819577D-01
62  6.1000000000000D-01  9.5811029502653D-01  1.3060839078951D-01
63  6.2000000000000D-01  9.6063434038174D-01  1.4477002431519D-01
64  6.3000000000000D-01  9.5970075367976D-01  1.6216288904279D-01
65  6.4000000000000D-01  9.5534641495373D-01  1.8274937082264D-01
66  6.5000000000000D-01  9.4762895492763D-01  2.0647174966966D-01
67  6.6000000000000D-01  9.3662643739735D-01  2.3325244813700D-01
68  6.7000000000000D-01  9.2243691595487D-01  2.6299439835777D-01
69  6.8000000000000D-01  9.0517786743522D-01  2.9558152590704D-01
70  6.9000000000000D-01  8.8498550523836D-01  3.3087934792167D-01
71  7.0000000000000D-01  8.6201397643549D-01  3.6873568221231D-01
72  7.1000000000000D-01  8.3643444730916D-01  4.0898146341318D-01
73  7.2000000000000D-01  8.0843408268885D-01  4.5143166154925D-01
74  7.3000000000000D-01  7.7821492512594D-01  4.9588629775986D-01
75  7.4000000000000D-01  7.4599268060117D-01  5.4213155130574D-01
76  7.5000000000000D-01  7.1199541806566D-01  5.8994095140975D-01
77  7.6000000000000D-01  6.7646219068370D-01  6.3907664694053D-01
78  7.7000000000000D-01  6.3964158716449D-01  6.8929074644900D-01
79  7.8000000000000D-01  6.0179022203762D-01  7.4032672061403D-01
80  7.9000000000000D-01  5.6317117414168D-01  7.9192085874642D-01
81  8.0000000000000D-01  5.2405238295191D-01  8.4380377064452D-01
82  8.1000000000000D-01  4.8470501266999D-01  8.9570192479217D-01
83  8.2000000000000D-01  4.4540179423361D-01  9.4733921364242D-01
84  8.3000000000000D-01  4.0641535557419D-01  9.9843853654115D-01
85  8.4000000000000D-01  3.6801655055569D-01  1.0487233907135D+00
86  8.5000000000000D-01  3.3047279706560D-01  1.0979194606660D+00
87  8.6000000000000D-01  2.9404643469996D-01  1.1457561963485D+00
88  8.7000000000000D-01  2.5899311238655D-01  1.1919683704690D+00
89  8.8000000000000D-01  2.2556021612628D-01  1.2362976054732D+00
90  8.9000000000000D-01  1.9398534680111D-01  1.2784938608676D+00
91  9.0000000000000D-01  1.6449485769982D-01  1.3183168718069D+00
92  9.1000000000000D-01  1.3730246105190D-01  1.3555375301523D+00
93  9.2000000000000D-01  1.1260791243650D-01  1.3899391995644D+00
94  9.3000000000000D-01  9.0595781450988D-02  1.4213189565941D+00
95  9.4000000000000D-01  7.1434316484308D-02  1.4494887501974D+00
96  9.5000000000000D-01  5.5274410847414D-02  1.4742764726058D+00
97  9.6000000000000D-01  4.2248676871297D-02  1.4955269350409D+00
98  9.7000000000000D-01  3.2470633896685D-02  1.5131027423558D+00
99  9.8000000000000D-01  2.6034015341418D-02  1.5268850613352D+00
100  9.9000000000000D-01  2.3012199284940D-02  1.5367742780403D+00
101  1.0000000000000D+00  2.3457766194832D-02  1.5426905403056D+00
102  1.0100000000000D+00  2.7402186602510D-02  1.5445741822193D+00
103  1.0200000000000D+00  3.4855640694676D-02  1.5423860281701D+00
104  1.0300000000000D+00  4.5806970927112D-02  1.5361075748125D+00
105  1.0400000000000D+00  6.0223767892263D-02  1.5257410500882D+00
106  1.0500000000000D+00  7.8052588803282D-02  1.5113093492264D+00
107  1.0600000000000D+00  9.9219307116053D-02  1.4928558484090D+00
108  1.0700000000000D+00  1.2362959089161D-01  1.4704440976196D+00
109  1.0800000000000D+00  1.5116950670879D-01  1.4441573949245D+00
110  1.0900000000000D+00  1.8170624507331D-01  1.4140982452236D+00
111  1.1000000000000D+00  2.1508896249391D-01  1.3803877072256D+00
112  1.1100000000000D+00  2.5114973464380D-01  1.3431646331029D+00
113  1.1200000000000D+00  2.8970461422814D-01  1.3025848060212D+00
114  1.1300000000000D+00  3.3055478655318D-01  1.2588199813320D+00
115  1.1400000000000D+00  3.7348781509789D-01  1.2120568378726D+00
116  1.1500000000000D+00  4.1827896890011D-01  1.1624958462864D+00
117  1.1600000000000D+00  4.6469262287780D-01  1.1103500619421D+00
118  1.1700000000000D+00  5.1248372184263D-01  1.0558438503946D+00
119  1.1800000000000D+00  5.6139929852883D-01  9.9921155376080D-01
120  1.1900000000000D+00  6.1118003561836D-01  9.4069610673098D-01
121  1.2000000000000D+00  6.6156186140919D-01  8.8054761129346D-01
122  1.2100000000000D+00  7.1227756863769D-01  8.1902187941828D-01
123  1.2200000000000D+00  7.6305844581704D-01  7.5637895311056D-01
124  1.2300000000000D+00  8.1363591032929D-01  6.9288161143146D-01
125  1.2400000000000D+00  8.6374313261801D-01  6.2879387403146D-01
126  1.2500000000000D+00  9.1311664084975D-01  5.6437951075889D-01
127  1.2600000000000D+00  9.6149789552923D-01  4.9990056686639D-01
128  1.2700000000000D+00  1.0086348239433D+00  4.3561591305349D-01
129  1.2800000000000D+00  1.0542833044584D+00  3.7177982947471D-01
130  1.2900000000000D+00  1.0982085909997D+00  3.0864063263155D-01
131  1.3000000000000D+00  1.1401866688405D+00  2.4643935342759D-01
132  1.3100000000000D+00  1.1800055328848D+00  1.8540847462142D-01
133  1.3200000000000D+00  1.2174663802733D+00  1.2577073540510D-01
134  1.3300000000000D+00  1.2523847103161D+00  6.7738009856663D-02
135  1.3400000000000D+00  1.2845913243938D+00  1.1510266320371D-02
136  1.3500000000000D+00  1.3139332199283D+00 -4.2725386438674D-02
137  1.3600000000000D+00  1.3402743736773D+00 -9.4795561451784D-02
138  1.3700000000000D+00  1.3634964085484D+00 -1.4454135836752D-01
139  1.3800000000000D+00  1.3834991414546D+00 -1.9181902794335D-01
140  1.3900000000000D+00  1.4002010087924D+00 -2.3650053248699D-01
141  1.4000000000000D+00  1.4135393669582D+00 -2.7847399921897D-01
142  1.4100000000000D+00  1.4234706681623D+00 -3.1764406601409D-01
143  1.4200000000000D+00  1.4299705094464D+00 -3.5393211692051D-01
144  1.4300000000000D+00  1.4330335568702D+00 -3.8727640839788D-01
145  1.4400000000000D+00  1.4326733459283D+00 -4.1763208644428D-01
146  1.4500000000000D+00  1.4289219595650D+00 -4.4497109502211D-01
147  1.4600000000000D+00  1.4218295889208D+00 -4.6928197956166D-01
148  1.4700000000000D+00  1.4114639780810D+00 -4.9056958586207D-01
149  1.4800000000000D+00  1.3979097600094D+00 -5.0885466000242D-01
150  1.4900000000000D+00  1.3812676873762D+00 -5.2417335177668D-01
151  1.5000000000000D+00  1.3616537649856D+00 -5.3657662683396D-01
152  1.5100000000000D+00  1.3391982910349D+00 -5.4612959325379D-01
153  1.5200000000000D+00  1.3140448131091D+00 -5.5291074698851D-01
154  1.5300000000000D+00  1.2863490089095D+00 -5.5701114449851D-01
155  1.5400000000000D+00  1.2562774975839D+00 -5.5853350694497D-01
156  1.5500000000000D+00  1.2240065927704D+00 -5.5759126536746D-01
157  1.5600000000000D+00  1.1897210045352D+00 -5.5430755244688D-01
158  1.5700000000000D+00  1.1536125009351D+00 -5.4881414995802D-01
159  1.5800000000000D+00  1.1158785378403D+00 -5.4125039897181D-01
160  1.5900000000000D+00  1.0767208673857D+00 -5.3176208156024D-01
161  1.6000000000000D+00  1.0363441342030D+00 -5.2050028173916D-01
162  1.6100000000000D+00  9.9495446991263D-01 -5.0762023444850D-01
163  1.6200000000000D+00  9.5275809446317D-01 -4.9328017004989D-01
164  1.6300000000000D+00  9.0995993540207D-01 -4.7764016362198D-01
165  1.6400000000000D+00  8.6676227207118D-01 -4.6086099537352D-01
166  1.6500000000000D+00  8.2336341484508D-01 -4.4310303186997D-01
167  1.6600000000000D+00  7.7995643737859D-01 -4.2452513539585D-01
168  1.6700000000000D+00  7.3672792294618D-01 -4.0528360070741D-01
169  1.6800000000000D+00  6.9385687964898D-01 -3.8553115812521D-01
170  1.6900000000000D+00  6.5151357321755D-01 -3.6541598661720D-01
171  1.7000000000000D+00  6.0985833550891D-01 -3.4508076716830D-01
172  1.7100000000000D+00  5.6904107417596D-01 -3.2466192573985D-01
173  1.7200000000000D+00  5.2920077530713D-01 -3.0428891465419D-01
174  1.7300000000000D+00  4.9046513166356D-01 -2.8408361921841D-01
175  1.7400000000000D+00  4.5295046040661D-01 -2.6415987658023D-01
176  1.7500000000000D+00  4.1676117276219D-01 -2.4462296707218D-01
177  1.7600000000000D+00  3.8198929943319D-01 -2.2556918287315D-01
178  1.7700000000000D+00  3.4871428230127D-01 -2.0708550945152D-01
179  1.7800000000000D+00  3.1700280662303D-01 -1.8924937651817D-01
180  1.7900000000000D+00  2.8690874046512D-01 -1.7212849724431D-01
181  1.8000000000000D+00  2.5847317816694D-01 -1.5578078923283D-01
182  1.8100000000000D+00  2.3172458154815D-01 -1.4025437910716D-01
183  1.8200000000000D+00  2.0667901842760D-01 -1.2558768751688D-01
184  1.8300000000000D+00  1.8334049411551D-01 -1.1180959201876D-01
185  1.8400000000000D+00  1.6170137514724D-01 -9.8939667665474D-02
186  1.8500000000000D+00  1.4174289432258D-01 -8.6988496359284D-02
187  1.8600000000000D+00  1.2343574134217D-01 -7.5958049185117D-02
188  1.8700000000000D+00  1.0674072114534D-01 -6.5842126680767D-02
189  1.8800000000000D+00  9.1609487480810D-02 -5.6626864167603D-02
190  1.8900000000000D+00  7.7985331270985D-02 -4.8291284765702D-02
191  1.9000000000000D+00  6.5804028319831D-02 -4.0807904733015D-02
192  1.9100000000000D+00  5.4994730426537D-02 -3.4143377578684D-02
193  1.9200000000000D+00  4.5480896719918D-02 -2.8259174855558D-02
194  1.9300000000000D+00  3.7181255842957D-02 -2.3112295863018D-02
195  1.9400000000000D+00  3.0010789748878D-02 -1.8655998687639D-02
196  1.9500000000000D+00  2.3881732375538D-02 -1.4840547390503D-02
197  1.9600000000000D+00  1.8704574179717D-02 -1.1613967523050D-02
198  1.9700000000000D+00  1.4389062272505D-02 -8.9228021197358D-03
199  1.9800000000000D+00  1.0845192217077D-02 -6.7128644368984D-03
200  1.9900000000000D+00  7.9841773098636D-03 -4.9299761608726D-03
201  2.0000000000000D+00  5.7193924316254D-03 -3.5206885096692D-03
202  2.0100000000000D+00  3.9672834574034D-03 -2.4329788260600D-03
203  2.0200000000000D+00  2.6482288269462D-03 -1.6169117311608D-03
204  2.0300000000000D+00  1.6873613684157D-03 -1.0252713368028D-03
205  2.0400000000000D+00  1.0153489865708D-03 -6.1416910258564D-04
206  2.0500000000000D+00  5.6899801813950D-04 -3.4348451089091D-04
207  2.0600000000000D+00  2.9193814689578D-04 -1.7739702765452D-04
208  2.0700000000000D+00  1.3529428836787D-04 -8.4911884399747D-05
209  2.0800000000000D+00  5.8092659896090D-05 -4.0384985669652D-05
210  2.0900000000000D+00  2.7796068837769D-05 -2.3647985043849D-05
211  2.1000000000000D+00  1.9732785818798D-05 -1.9221295768113D-05
212  2.1100000000000D+00  1.7126332403855D-05 -1.6549145632966D-05
213  2.1200000000000D+00  1.0818123172055D-05 -1.0103505248395D-05
214  2.1300000000000D+00  2.7746835369700D-06 -2.5071129991909D-06
215  2.1400000000000D+00 -1.6768337622840D-06  1.5875002428426D-06
216  2.1500000000000D+00 -1.7091076049076D-06  1.6003380803351D-06
217  2.1600000000000D+00  3.1421524304575D-08 -3.2792116745166D-08
218  2.1700000000000D+00  3.4911512999988D-07 -3.6629138454863D-07
219  2.1800000000000D+00  1.9276245611007D-07 -2.0312735883009D-07
220  2.1900000000000D+00 -2.9751708969547D-08  2.8853084166587D-08
221  2.2000000000000D+00 -4.8704346073213D-08  4.7233273153060D-08
222  2.2100000000000D+00 -8.9059869448896D-09  8.6369892623796D-09
223  2.2200000000000D+00  0.0000000000000D+00  0.0000000000000D+00
224  2.2300000000000D+00  0.0000000000000D+00  0.0000000000000D+00
225  2.2400000000000D+00  0.0000000000000D+00  0.0000000000000D+00
226  2.2500000000000D+00  0.0000000000000D+00  0.0000000000000D+00
227  2.2600000000000D+00  0.0000000000000D+00  0.0000000000000D+00
228  2.2700000000000D+00  0.0000000000000D+00  0.0000000000000D+00
229  2.2800000000000D+00  0.0000000000000D+00  0.0000000000000D+00
230  2.2900000000000D+00  0.0000000000000D+00  0.0000000000000D+00
231  2.3000000000000D+00  0.0000000000000D+00  0.0000000000000D+00
232  2.3100000000000D+00  0.0000000000000D+00  0.0000000000000D+00
233  2.3200000000000D+00  0.0000000000000D+00  0.0000000000000D+00
234  2.3300000000000D+00  0.0000000000000D+00  0.0000000000000D+00
235  2.3400000000000D+00  0.0000000000000D+00  0.0000000000000D+00
236  2.3500000000000D+00  0.0000000000000D+00  0.0000000000000D+00
237  2.3600000000000D+00  0.0000000000000D+00  0.0000000000000D+00
238  2.3700000000000D+00  0.0000000000000D+00  0.0000000000000D+00
239  2.3800000000000D+00  0.0000000000000D+00  0.0000000000000D+00
240  2.3900000000000D+00  0.0000000000000D+00  0.0000000000000D+00
241  2.4000000000000D+00  0.0000000000000D+00  0.0000000000000D+00
242  2.4100000000000D+00  0.0000000000000D+00  0.0000000000000D+00
243  2.4200000000000D+00  0.0000000000000D+00  0.0000000000000D+00
244  2.4300000000000D+00  0.0000000000000D+00  0.0000000000000D+00
245  2.4400000000000D+00  0.0000000000000D+00  0.0000000000000D+00
246  2.4500000000000D+00  0.0000000000000D+00  0.0000000000000D+00
247  2.4600000000000D+00  0.0000000000000D+00  0.0000000000000D+00
248  2.4700000000000D+00  0.0000000000000D+00  0.0000000000000D+00
249  2.4800000000000D+00  0.0000000000000D+00  0.0000000000000D+00
250  2.4900000000000D+00  0.0000000000000D+00  0.0000000000000D+00
251  2.5000000000000D+00  0.0000000000000D+00  0.0000000000000D+00
252  2.5100000000000D+00  0.0000000000000D+00  0.0000000000000D+00
253  2.5200000000000D+00  0.0000000000000D+00  0.0000000000000D+00
254  2.5300000000000D+00  0.0000000000000D+00  0.0000000000000D+00
255  2.5400000000000D+00  0.0000000000000D+00  0.0000000000000D+00
256  2.5500000000000D+00  0.0000000000000D+00  0.0000000000000D+00
257  2.5600000000000D+00  0.0000000000000D+00  0.0000000000000D+00
258  2.5700000000000D+00  0.0000000000000D+00  0.0000000000000D+00
259  2.5800000000000D+00  0.0000000000000D+00  0.0000000000000D+00
260  2.5900000000000D+00  0.0000000000000D+00  0.0000000000000D+00
261  2.6000000000000D+00  0.0000000000000D+00  0.0000000000000D+00
262  2.6100000000000D+00  0.0000000000000D+00  0.0000000000000D+00
263  2.6200000000000D+00  0.0000000000000D+00  0.0000000000000D+00
264  2.6300000000000D+00  0.0000000000000D+00  0.0000000000000D+00
265  2.6400000000000D+00  0.0000000000000D+00  0.0000000000000D+00
266  2.6500000000000D+00  0.0000000000000D+00  0.0000000000000D+00
267  2.6600000000000D+00  0.0000000000000D+00  0.0000000000000D+00
268  2.6700000000000D+00  0.0000000000000D+00  0.0000000000000D+00
269  2.6800000000000D+00  0.0000000000000D+00  0.0000000000000D+00
270  2.6900000000000D+00  0.0000000000000D+00  0.0000000000000D+00
271  2.7000000000000D+00  0.0000000000000D+00  0.0000000000000D+00
272  2.7100000000000D+00  0.0000000000000D+00  0.0000000000000D+00
273  2.7200000000000D+00  0.0000000000000D+00  0.0000000000000D+00
274  2.7300000000000D+00  0.0000000000000D+00  0.0000000000000D+00
275  2.7400000000000D+00  0.0000000000000D+00  0.0000000000000D+00
276  2.7500000000000D+00  0.0000000000000D+00  0.0000000000000D+00
277  2.7600000000000D+00  0.0000000000000D+00  0.0000000000000D+00
278  2.7700000000000D+00  0.0000000000000D+00  0.0000000000000D+00
279  2.7800000000000D+00  0.0000000000000D+00  0.0000000000000D+00
280  2.7900000000000D+00  0.0000000000000D+00  0.0000000000000D+00
281  2.8000000000000D+00  0.0000000000000D+00  0.0000000000000D+00
282  2.8100000000000D+00  0.0000000000000D+00  0.0000000000000D+00
283  2.8200000000000D+00  0.0000000000000D+00  0.0000000000000D+00
284  2.8300000000000D+00  0.0000000000000D+00  0.0000000000000D+00
285  2.8400000000000D+00  0.0000000000000D+00  0.0000000000000D+00
286  2.8500000000000D+00  0.0000000000000D+00  0.0000000000000D+00
287  2.8600000000000D+00  0.0000000000000D+00  0.0000000000000D+00
288  2.8700000000000D+00  0.0000000000000D+00  0.0000000000000D+00
289  2.8800000000000D+00  0.0000000000000D+00  0.0000000000000D+00
290  2.8900000000000D+00  0.0000000000000D+00  0.0000000000000D+00
291  2.9000000000000D+00  0.0000000000000D+00  0.0000000000000D+00
292  2.9100000000000D+00  0.0000000000000D+00  0.0000000000000D+00
293  2.9200000000000D+00  0.0000000000000D+00  0.0000000000000D+00
294  2.9300000000000D+00  0.0000000000000D+00  0.0000000000000D+00
295  2.9400000000000D+00  0.0000000000000D+00  0.0000000000000D+00
296  2.9500000000000D+00  0.0000000000000D+00  0.0000000000000D+00
297  2.9600000000000D+00  0.0000000000000D+00  0.0000000000000D+00
298  2.9700000000000D+00  0.0000000000000D+00  0.0000000000000D+00
299  2.9800000000000D+00  0.0000000000000D+00  0.0000000000000D+00
300  2.9900000000000D+00  0.0000000000000D+00  0.0000000000000D+00
301  3.0000000000000D+00  0.0000000000000D+00  0.0000000000000D+00
302  3.0100000000000D+00  0.0000000000000D+00  0.0000000000000D+00
303  3.0200000000000D+00  0.0000000000000D+00  0.0000000000000D+00
304  3.0300000000000D+00  0.0000000000000D+00  0.0000000000000D+00
305  3.0400000000000D+00  0.0000000000000D+00  0.0000000000000D+00
306  3.0500000000000D+00  0.0000000000000D+00  0.0000000000000D+00
307  3.0600000000000D+00  0.0000000000000D+00  0.0000000000000D+00
308  3.0700000000000D+00  0.0000000000000D+00  0.0000000000000D+00
309  3.0800000000000D+00  0.0000000000000D+00  0.0000000000000D+00
310  3.0900000000000D+00  0.0000000000000D+00  0.0000000000000D+00
311  3.1000000000000D+00  0.0000000000000D+00  0.0000000000000D+00
312  3.1100000000000D+00  0.0000000000000D+00  0.0000000000000D+00
313  3.1200000000000D+00  0.0000000000000D+00  0.0000000000000D+00
314  3.1300000000000D+00  0.0000000000000D+00  0.0000000000000D+00
315  3.1400000000000D+00  0.0000000000000D+00  0.0000000000000D+00
316  3.1500000000000D+00  0.0000000000000D+00  0.0000000000000D+00
317  3.1600000000000D+00  0.0000000000000D+00  0.0000000000000D+00
318  3.1700000000000D+00  0.0000000000000D+00  0.0000000000000D+00
319  3.1800000000000D+00  0.0000000000000D+00  0.0000000000000D+00
320  3.1900000000000D+00  0.0000000000000D+00  0.0000000000000D+00
321  3.2000000000000D+00  0.0000000000000D+00  0.0000000000000D+00
322  3.2100000000000D+00  0.0000000000000D+00  0.0000000000000D+00
323  3.2200000000000D+00  0.0000000000000D+00  0.0000000000000D+00
324  3.2300000000000D+00  0.0000000000000D+00  0.0000000000000D+00
325  3.2400000000000D+00  0.0000000000000D+00  0.0000000000000D+00
326  3.2500000000000D+00  0.0000000000000D+00  0.0000000000000D+00
327  3.2600000000000D+00  0.0000000000000D+00  0.0000000000000D+00
328  3.2700000000000D+00  0.0000000000000D+00  0.0000000000000D+00
329  3.2800000000000D+00  0.0000000000000D+00  0.0000000000000D+00
330  3.2900000000000D+00  0.0000000000000D+00  0.0000000000000D+00
331  3.3000000000000D+00  0.0000000000000D+00  0.0000000000000D+00
332  3.3100000000000D+00  0.0000000000000D+00  0.0000000000000D+00
333  3.3200000000000D+00  0.0000000000000D+00  0.0000000000000D+00
334  3.3300000000000D+00  0.0000000000000D+00  0.0000000000000D+00
335  3.3400000000000D+00  0.0000000000000D+00  0.0000000000000D+00
336  3.3500000000000D+00  0.0000000000000D+00  0.0000000000000D+00
337  3.3600000000000D+00  0.0000000000000D+00  0.0000000000000D+00
338  3.3700000000000D+00  0.0000000000000D+00  0.0000000000000D+00
339  3.3800000000000D+00  0.0000000000000D+00  0.0000000000000D+00
340  3.3900000000000D+00  0.0000000000000D+00  0.0000000000000D+00
341  3.4000000000000D+00  0.0000000000000D+00  0.0000000000000D+00
342  3.4100000000000D+00  0.0000000000000D+00  0.0000000000000D+00
343  3.4200000000000D+00  0.0000000000000D+00  0.0000000000000D+00
344  3.4300000000000D+00  0.0000000000000D+00  0.0000000000000D+00
345  3.4400000000000D+00  0.0000000000000D+00  0.0000000000000D+00
346  3.4500000000000D+00  0.0000000000000D+00  0.0000000000000D+00
347  3.4600000000000D+00  0.0000000000000D+00  0.0000000000000D+00
348  3.4700000000000D+00  0.0000000000000D+00  0.0000000000000D+00
349  3.4800000000000D+00  0.0000000000000D+00  0.0000000000000D+00
350  3.4900000000000D+00  0.0000000000000D+00  0.0000000000000D+00
351  3.5000000000000D+00  0.0000000000000D+00  0.0000000000000D+00
352  3.5100000000000D+00  0.0000000000000D+00  0.0000000000000D+00
353  3.5200000000000D+00  0.0000000000000D+00  0.0000000000000D+00
354  3.5300000000000D+00  0.0000000000000D+00  0.0000000000000D+00
355  3.5400000000000D+00  0.0000000000000D+00  0.0000000000000D+00
356  3.5500000000000D+00  0.0000000000000D+00  0.0000000000000D+00
357  3.5600000000000D+00  0.0000000000000D+00  0.0000000000000D+00
358  3.5700000000000D+00  0.0000000000000D+00  0.0000000000000D+00
359  3.5800000000000D+00  0.0000000000000D+00  0.0000000000000D+00
360  3.5900000000000D+00  0.0000000000000D+00  0.0000000000000D+00
361  3.6000000000000D+00  0.0000000000000D+00  0.0000000000000D+00
362  3.6100000000000D+00  0.0000000000000D+00  0.0000000000000D+00
363  3.6200000000000D+00  0.0000000000000D+00  0.0000000000000D+00
364  3.6300000000000D+00  0.0000000000000D+00  0.0000000000000D+00
365  3.6400000000000D+00  0.0000000000000D+00  0.0000000000000D+00
366  3.6500000000000D+00  0.0000000000000D+00  0.0000000000000D+00
367  3.6600000000000D+00  0.0000000000000D+00  0.0000000000000D+00
368  3.6700000000000D+00  0.0000000000000D+00  0.0000000000000D+00
369  3.6800000000000D+00  0.0000000000000D+00  0.0000000000000D+00
370  3.6900000000000D+00  0.0000000000000D+00  0.0000000000000D+00
371  3.7000000000000D+00  0.0000000000000D+00  0.0000000000000D+00
372  3.7100000000000D+00  0.0000000000000D+00  0.0000000000000D+00
373  3.7200000000000D+00  0.0000000000000D+00  0.0000000000000D+00
374  3.7300000000000D+00  0.0000000000000D+00  0.0000000000000D+00
375  3.7400000000000D+00  0.0000000000000D+00  0.0000000000000D+00
376  3.7500000000000D+00  0.0000000000000D+00  0.0000000000000D+00
377  3.7600000000000D+00  0.0000000000000D+00  0.0000000000000D+00
378  3.7700000000000D+00  0.0000000000000D+00  0.0000000000000D+00
379  3.7800000000000D+00  0.0000000000000D+00  0.0000000000000D+00
380  3.7900000000000D+00  0.0000000000000D+00  0.0000000000000D+00
381  3.8000000000000D+00  0.0000000000000D+00  0.0000000000000D+00
382  3.8100000000000D+00  0.0000000000000D+00  0.0000000000000D+00
383  3.8200000000000D+00  0.0000000000000D+00  0.0000000000000D+00
384  3.8300000000000D+00  0.0000000000000D+00  0.0000000000000D+00
385  3.8400000000000D+00  0.0000000000000D+00  0.0000000000000D+00
386  3.8500000000000D+00  0.0000000000000D+00  0.0000000000000D+00
387  3.8600000000000D+00  0.0000000000000D+00  0.0000000000000D+00
388  3.8700000000000D+00  0.0000000000000D+00  0.0000000000000D+00
389  3.8800000000000D+00  0.0000000000000D+00  0.0000000000000D+00
390  3.8900000000000D+00  0.0000000000000D+00  0.0000000000000D+00
391  3.9000000000000D+00  0.0000000000000D+00  0.0000000000000D+00
392  3.9100000000000D+00  0.0000000000000D+00  0.0000000000000D+00
393  3.9200000000000D+00  0.0000000000000D+00  0.0000000000000D+00
394  3.9300000000000D+00  0.0000000000000D+00  0.0000000000000D+00
395  3.9400000000000D+00  0.0000000000000D+00  0.0000000000000D+00
396  3.9500000000000D+00  0.0000000000000D+00  0.0000000000000D+00
397  3.9600000000000D+00  0.0000000000000D+00  0.0000000000000D+00
398  3.9700000000000D+00  0.0000000000000D+00  0.0000000000000D+00
399  3.9800000000000D+00  0.0000000000000D+00  0.0000000000000D+00
400  3.9900000000000D+00  0.0000000000000D+00  0.0000000000000D+00
401  4.0000000000000D+00  0.0000000000000D+00  0.0000000000000D+00
402  4.0100000000000D+00  0.0000000000000D+00  0.0000000000000D+00
403  4.0200000000000D+00  0.0000000000000D+00  0.0000000000000D+00
404  4.0300000000000D+00  0.0000000000000D+00  0.0000000000000D+00
405  4.0400000000000D+00  0.0000000000000D+00  0.0000000000000D+00
406  4.0500000000000D+00  0.0000000000000D+00  0.0000000000000D+00
407  4.0600000000000D+00  0.0000000000000D+00  0.0000000000000D+00
408  4.0700000000000D+00  0.0000000000000D+00  0.0000000000000D+00
409  4.0800000000000D+00  0.0000000000000D+00  0.0000000000000D+00
410  4.0900000000000D+00  0.0000000000000D+00  0.0000000000000D+00
411  4.1000000000000D+00  0.0000000000000D+00  0.0000000000000D+00
412  4.1100000000000D+00  0.0000000000000D+00  0.0000000000000D+00
413  4.1200000000000D+00  0.0000000000000D+00  0.0000000000000D+00
414  4.1300000000000D+00  0.0000000000000D+00  0.0000000000000D+00
415  4.1400000000000D+00  0.0000000000000D+00  0.0000000000000D+00
416  4.1500000000000D+00  0.0000000000000D+00  0.0000000000000D+00
417  4.1600000000000D+00  0.0000000000000D+00  0.0000000000000D+00
418  4.1700000000000D+00  0.0000000000000D+00  0.0000000000000D+00
419  4.1800000000000D+00  0.0000000000000D+00  0.0000000000000D+00
420  4.1900000000000D+00  0.0000000000000D+00  0.0000000000000D+00
421  4.2000000000000D+00  0.0000000000000D+00  0.0000000000000D+00
422  4.2100000000000D+00  0.0000000000000D+00  0.0000000000000D+00
423  4.2200000000000D+00  0.0000000000000D+00  0.0000000000000D+00
424  4.2300000000000D+00  0.0000000000000D+00  0.0000000000000D+00
425  4.2400000000000D+00  0.0000000000000D+00  0.0000000000000D+00
426  4.2500000000000D+00  0.0000000000000D+00  0.0000000000000D+00
427  4.2600000000000D+00  0.0000000000000D+00  0.0000000000000D+00
428  4.2700000000000D+00  0.0000000000000D+00  0.0000000000000D+00
429  4.2800000000000D+00  0.0000000000000D+00  0.0000000000000D+00
430  4.2900000000000D+00  0.0000000000000D+00  0.0000000000000D+00
431  4.3000000000000D+00  0.0000000000000D+00  0.0000000000000D+00
432  4.3100000000000D+00  0.0000000000000D+00  0.0000000000000D+00
433  4.3200000000000D+00  0.0000000000000D+00  0.0000000000000D+00
434  4.3300000000000D+00  0.0000000000000D+00  0.0000000000000D+00
435  4.3400000000000D+00  0.0000000000000D+00  0.0000000000000D+00
436  4.3500000000000D+00  0.0000000000000D+00  0.0000000000000D+00
437  4.3600000000000D+00  0.0000000000000D+00  0.0000000000000D+00
438  4.3700000000000D+00  0.0000000000000D+00  0.0000000000000D+00
439  4.3800000000000D+00  0.0000000000000D+00  0.0000000000000D+00
440  4.3900000000000D+00  0.0000000000000D+00  0.0000000000000D+00
441  4.4000000000000D+00  0.0000000000000D+00  0.0000000000000D+00
442  4.4100000000000D+00  0.0000000000000D+00  0.0000000000000D+00
443  4.4200000000000D+00  0.0000000000000D+00  0.0000000000000D+00