In    ONCVPSP  r_core=  2.11  2.38  1.87
49.0000     13.0000      150810    zatom,zion,pspd
8      11   2     4   600     0    pspcod,pspxc,lmax,lloc,mmax,r2well
5.99000000  5.00000000  0.00000000    rchrg fchrg qchrg
2     2     2     0     0    nproj
0                 extension_switch
0                         1.2067157476479D+01  1.8154130532758D+00
1  0.0000000000000D+00 -1.8315560179616D-10  2.0111018406155D-10
2  1.0000000000000D-02  5.1337656616289D-02 -3.6584090121660D-02
3  2.0000000000000D-02  1.0243161055946D-01 -7.2907900606909D-02
4  3.0000000000000D-02  1.5303960559009D-01 -1.0871270459142D-01
5  4.0000000000000D-02  2.0292226996302D-01 -1.4374287168977D-01
6  5.0000000000000D-02  2.5184453778813D-01 -1.7774739362270D-01
7  6.0000000000000D-02  2.9957704545700D-01 -2.1048138285210D-01
8  7.0000000000000D-02  3.4589749503966D-01 -2.4170753546276D-01
9  8.0000000000000D-02  3.9059197673835D-01 -2.7119754973113D-01
10  9.0000000000000D-02  4.3345624271286D-01 -2.9873349207075D-01
11  1.0000000000000D-01  4.7429692486176D-01 -3.2410910234031D-01
12  1.1000000000000D-01  5.1293268945559D-01 -3.4713103084257D-01
13  1.2000000000000D-01  5.4919532186938D-01 -3.6761999972768D-01
14  1.3000000000000D-01  5.8293073505153D-01 -3.8541188194194D-01
15  1.4000000000000D-01  6.1399989579151D-01 -4.0035869132957D-01
16  1.5000000000000D-01  6.4227966330834D-01 -4.1232947799898D-01
17  1.6000000000000D-01  6.6766353517290D-01 -4.2121112360279D-01
18  1.7000000000000D-01  6.9006229609654D-01 -4.2690903175052D-01
19  1.8000000000000D-01  7.0940456566495D-01 -4.2934770937046D-01
20  1.9000000000000D-01  7.2563724166525D-01 -4.2847123546054D-01
21  2.0000000000000D-01  7.3872583624401D-01 -4.2424361431296D-01
22  2.1000000000000D-01  7.4865470274070D-01 -4.1664901096048D-01
23  2.2000000000000D-01  7.5542715166195D-01 -4.0569186727074D-01
24  2.3000000000000D-01  7.5906545489301D-01 -3.9139689780385D-01
25  2.4000000000000D-01  7.5961073788171D-01 -3.7380896524525D-01
26  2.5000000000000D-01  7.5712276017219D-01 -3.5299283592580D-01
27  2.6000000000000D-01  7.5167958530815D-01 -3.2903281664034D-01
28  2.7000000000000D-01  7.4337714176447D-01 -3.0203227467154D-01
29  2.8000000000000D-01  7.3232867719815D-01 -2.7211304361215D-01
30  2.9000000000000D-01  7.1866410893127D-01 -2.3941471825397D-01
31  3.0000000000000D-01  7.0252927418622D-01 -2.0409384246978D-01
32  3.1000000000000D-01  6.8408508418402D-01 -1.6632299465382D-01
33  3.2000000000000D-01  6.6350658678561D-01 -1.2628977590052D-01
34  3.3000000000000D-01  6.4098194290147D-01 -8.4195706689592D-02
35  3.4000000000000D-01  6.1671132241272D-01 -4.0255038401874D-02
36  3.5000000000000D-01  5.9090572583406D-01  5.3065134867399D-03
37  3.6000000000000D-01  5.6378573840318D-01  5.2253107201040D-02
38  3.7000000000000D-01  5.3558022369837D-01  1.0034017567482D-01
39  3.8000000000000D-01  5.0652496426558D-01  1.4931588259338D-01
40  3.9000000000000D-01  4.7686125707291D-01  1.9892262493652D-01
41  4.0000000000000D-01  4.4683447190529D-01  2.4889857318109D-01
42  4.1000000000000D-01  4.1669258105984D-01  2.9897924006563D-01
43  4.2000000000000D-01  3.8668466890434D-01  3.4889906861547D-01
44  4.3000000000000D-01  3.5705943001302D-01  3.9839302997619D-01
45  4.4000000000000D-01  3.2806366469685D-01  4.4719822150806D-01
46  4.5000000000000D-01  2.9994078079671D-01  4.9505545555543D-01
47  4.6000000000000D-01  2.7292931060757D-01  5.4171082932249D-01
48  4.7000000000000D-01  2.4726145174969D-01  5.8691726636199D-01
49  4.8000000000000D-01  2.2316164069860D-01  6.3043602031552D-01
50  4.9000000000000D-01  2.0084516752880D-01  6.7203813173308D-01
51  5.0000000000000D-01  1.8051684021903D-01  7.1150582904432D-01
52  5.1000000000000D-01  1.6236970660847D-01  7.4863386505415D-01
53  5.2000000000000D-01  1.4658384178528D-01  7.8323078068931D-01
54  5.3000000000000D-01  1.3332520833360D-01  8.1512008812814D-01
55  5.4000000000000D-01  1.2274459646326D-01  8.4414136590125D-01
56  5.5000000000000D-01  1.1497665059999D-01  8.7015125905488D-01
57  5.6000000000000D-01  1.1013898852644D-01  8.9302437801628D-01
58  5.7000000000000D-01  1.0833141863711D-01  9.1265409039051D-01
59  5.8000000000000D-01  1.0963526030639D-01  9.2895320054781D-01
60  5.9000000000000D-01  1.1411277177307D-01  9.4185451252300D-01
61  6.0000000000000D-01  1.2180668931688D-01  9.5131127244506D-01
62  6.1000000000000D-01  1.3273988085098D-01  9.5729748743617D-01
63  6.2000000000000D-01  1.4691511637837D-01  9.5980811866529D-01
64  6.3000000000000D-01  1.6431495706544D-01  9.5885914700620D-01
65  6.4000000000000D-01  1.8490176398019D-01  9.5448751052496D-01
66  6.5000000000000D-01  2.0861782682084D-01  9.4675091381220D-01
67  6.6000000000000D-01  2.3538561223795D-01  9.3572750996527D-01
68  6.7000000000000D-01  2.6510813062885D-01  9.2151545681440D-01
69  6.8000000000000D-01  2.9766941955741D-01  9.0423234977577D-01
70  6.9000000000000D-01  3.3293514123934D-01  8.8401453448667D-01
71  7.0000000000000D-01  3.7075329083039D-01  8.6101630313684D-01
72  7.1000000000000D-01  4.1095501156811D-01  8.3540897914958D-01
73  7.2000000000000D-01  4.5335551215195D-01  8.0737989557986D-01
74  7.3000000000000D-01  4.9775508110804D-01  7.7713127327889D-01
75  7.4000000000000D-01  5.4394019227309D-01  7.4487900552433D-01
76  7.5000000000000D-01  5.9168469495680D-01  7.1085135642412D-01
77  7.6000000000000D-01  6.4075108180168D-01  6.7528758096874D-01
78  7.7000000000000D-01  6.9089182686112D-01  6.3843647512672D-01
79  7.8000000000000D-01  7.4185078596332D-01  6.0055486484582D-01
80  7.9000000000000D-01  7.9336465102283D-01  5.6190604323703D-01
81  8.0000000000000D-01  8.4516444960608D-01  5.2275816557539D-01
82  8.1000000000000D-01  8.9697708075508D-01  4.8338261204924D-01
83  8.2000000000000D-01  9.4852687782725D-01  4.4405232842365D-01
84  8.3000000000000D-01  9.9953718891980D-01  4.0504015495476D-01
85  8.4000000000000D-01  1.0497319653171D+00  3.6661715399670D-01
86  8.5000000000000D-01  1.0988373483290D+00  3.2905094678020D-01
87  8.6000000000000D-01  1.1465832448791D+00  2.9260406981300D-01
88  8.7000000000000D-01  1.1927048822536D+00  2.5753236125445D-01
89  8.8000000000000D-01  1.2369443325346D+00  2.2408338745192D-01
90  8.9000000000000D-01  1.2790519974166D+00  1.9249491959520D-01
91  9.0000000000000D-01  1.3187880443380D+00  1.6299347014710D-01
92  9.1000000000000D-01  1.3559237851515D+00  1.3579289834772D-01
93  9.2000000000000D-01  1.3902429889108D+00  1.1109309366572D-01
94  9.3000000000000D-01  1.4215431207511D+00  8.9078745587062D-02
95  9.4000000000000D-01  1.4496364993025D+00  6.9918207592011D-02
96  9.5000000000000D-01  1.4743513655809D+00  5.3762462577781D-02
97  9.6000000000000D-01  1.4955328568561D+00  4.0744196341583D-02
98  9.7000000000000D-01  1.5130438795920D+00  3.0976985052183D-02
99  9.8000000000000D-01  1.5267658761997D+00  2.4554601899153D-02
100  9.9000000000000D-01  1.5365994809998D+00  2.1550447361832D-02
101  1.0000000000000D+00  1.5424650615069D+00  2.2017106724957D-02
102  1.0100000000000D+00  1.5443031418783D+00  2.5986037649288D-02
103  1.0200000000000D+00  1.5420747061123D+00  3.3467389764500D-02
104  1.0300000000000D+00  1.5357613793544D+00  4.4449957390834D-02
105  1.0400000000000D+00  1.5253654864515D+00  5.8901265620220D-02
106  1.0500000000000D+00  1.5109099876806D+00  7.6767789118157D-02
107  1.0600000000000D+00  1.4924382923355D+00  9.7975302165745D-02
108  1.0700000000000D+00  1.4700139516945D+00  1.2242935754161D-01
109  1.0800000000000D+00  1.4437202336113D+00  1.5001589105018D-01
110  1.0900000000000D+00  1.4136595817661D+00  1.8060194763855D-01
111  1.1000000000000D+00  1.3799529633275D+00  2.1403652426805D-01
112  1.1100000000000D+00  1.3427391094737D+00  2.5015152395355D-01
113  1.1200000000000D+00  1.3021736539623D+00  2.8876281458580D-01
114  1.1300000000000D+00  1.2584281755289D+00  3.2967138552625D-01
115  1.1400000000000D+00  1.2116891505510D+00  3.7266459426849D-01
116  1.1500000000000D+00  1.1621568228781D+00  4.1751749497165D-01
117  1.1600000000000D+00  1.1100439983991D+00  4.6399423997894D-01
118  1.1700000000000D+00  1.0555747722749D+00  5.1184954507104D-01
119  1.1800000000000D+00  9.9898319719924D-01  5.6083020876920D-01
120  1.1900000000000D+00  9.4051190139463D-01  6.1067667566143D-01
121  1.2000000000000D+00  8.8041066540692D-01  6.6112463339008D-01
122  1.2100000000000D+00  8.1893496693080D-01  7.1190663280369D-01
123  1.2200000000000D+00  7.5634450306182D-01  7.6275372062664D-01
124  1.2300000000000D+00  6.9290169955819D-01  8.1339707387590D-01
125  1.2400000000000D+00  6.2887021664173D-01  8.6356962536366D-01
126  1.2500000000000D+00  5.6451346088585D-01  9.1300766964591D-01
127  1.2600000000000D+00  5.0009311269799D-01  9.6145243889389D-01
128  1.2700000000000D+00  4.3586767861968D-01  1.0086516385560D+00
129  1.2800000000000D+00  3.7209107755874D-01  1.0543609328269D+00
130  1.2900000000000D+00  3.0901126985747D-01  1.0983453702459D+00
131  1.3000000000000D+00  2.4686893746206D-01  1.1403807405448D+00
132  1.3100000000000D+00  1.8589622341429D-01  1.1802548539244D+00
133  1.3200000000000D+00  1.2631553838022D-01  1.2177687345806D+00
134  1.3300000000000D+00  6.8338440952587D-02  1.2527377214816D+00
135  1.3400000000000D+00  1.2164598768700D-02  1.2849924690299D+00
136  1.3500000000000D+00 -4.2019163720074D-02  1.3143798417087D+00
137  1.3600000000000D+00 -9.4039725982047D-02  1.3407636979611D+00
138  1.3700000000000D+00 -1.4373843488427D-01  1.3640255574954D+00
139  1.3800000000000D+00 -1.9097176798990D-01  1.3840651495365D+00
140  1.3900000000000D+00 -2.3561189295983D-01  1.4008008386018D+00
141  1.4000000000000D+00 -2.7754712003605D-01  1.4141699252161D+00
142  1.4100000000000D+00 -3.1668224706655D-01  1.4241288218249D+00
143  1.4200000000000D+00 -3.5293879447570D-01  1.4306531018109D+00
144  1.4300000000000D+00 -3.8625513112118D-01  1.4337374235817D+00
145  1.4400000000000D+00 -4.1658649120810D-01  1.4333953307880D+00
146  1.4500000000000D+00 -4.4390488267107D-01  1.4296589300460D+00
147  1.4600000000000D+00 -4.6819889079755D-01  1.4225784512959D+00
148  1.4700000000000D+00 -4.8947337741315D-01  1.4122216920737D+00
149  1.4800000000000D+00 -5.0774908123335D-01  1.3986733528793D+00
150  1.4900000000000D+00 -5.2306212189239D-01  1.3820342673574D+00
151  1.5000000000000D+00 -5.3546341282325D-01  1.3624205339989D+00
152  1.5100000000000D+00 -5.4501798871018D-01  1.3399625565997D+00
153  1.5200000000000D+00 -5.5180425193940D-01  1.3148039993877D+00
154  1.5300000000000D+00 -5.5591314636101D-01  1.2871006668205D+00
155  1.5400000000000D+00 -5.5744726272054D-01  1.2570193139283D+00
156  1.5500000000000D+00 -5.5651988517255D-01  1.2247363983204D+00
157  1.5600000000000D+00 -5.5325398446866D-01  1.1904367810412D+00
158  1.5700000000000D+00 -5.4778116690949D-01  1.1543123870142D+00
159  1.5800000000000D+00 -5.4024058611011D-01  1.1165608337152D+00
160  1.5900000000000D+00 -5.3077782631762D-01  1.0773840384502D+00
161  1.6000000000000D+00 -5.1954376500410D-01  1.0369868133980D+00
162  1.6100000000000D+00 -5.0669342352022D-01  9.9557545890165D-01
163  1.6200000000000D+00 -4.9238481327740D-01  9.5335636360350D-01
164  1.6300000000000D+00 -4.7677778672416D-01  9.1053462251603D-01
165  1.6400000000000D+00 -4.6003289942573D-01  8.6731268002518D-01
166  1.6500000000000D+00 -4.4231029292669D-01  8.2388900794763D-01
167  1.6600000000000D+00 -4.2376860571299D-01  7.8045683665128D-01
168  1.6700000000000D+00 -4.0456391150035D-01  7.3720290017331D-01
169  1.6800000000000D+00 -3.8484872382696D-01  6.9430635057904D-01
170  1.6900000000000D+00 -3.6477101051975D-01  6.5193758948196D-01
171  1.7000000000000D+00 -3.4447324836216D-01  6.1025707503490D-01
172  1.7100000000000D+00 -3.2409166735859D-01  5.6941483198025D-01
173  1.7200000000000D+00 -3.0375553330740D-01  5.2954995445138D-01
174  1.7300000000000D+00 -2.8358655555685D-01  4.9079023460098D-01
175  1.7400000000000D+00 -2.6369840692288D-01  4.5325208137992D-01
176  1.7500000000000D+00 -2.4419621586996D-01  4.1703998967921D-01
177  1.7600000000000D+00 -2.2517613589781D-01  3.8224606518662D-01
178  1.7700000000000D+00 -2.0672502758888D-01  3.4894981606468D-01
179  1.7800000000000D+00 -1.8892021003305D-01  3.1721798502266D-01
180  1.7900000000000D+00 -1.7182930037867D-01  2.8710448870243D-01
181  1.8000000000000D+00 -1.5551013500882D-01  2.5865046117517D-01
182  1.8100000000000D+00 -1.4001077419888D-01  2.3188439523963D-01
183  1.8200000000000D+00 -1.2536958706150D-01  2.0682238109859D-01
184  1.8300000000000D+00 -1.1161541424034D-01  1.8346843807045D-01
185  1.8400000000000D+00 -9.8767808184479D-02  1.6181493860286D-01
186  1.8500000000000D+00 -8.6837342074869D-02  1.4184311364524D-01
187  1.8600000000000D+00 -7.5825991609113D-02  1.2352364367356D-01
188  1.8700000000000D+00 -6.5727574627246D-02  1.0681731746050D-01
189  1.8800000000000D+00 -5.6528255688408D-02  9.1675766126209D-02
190  1.8900000000000D+00 -4.8207098251689D-02  7.8042252017416D-02
191  1.9000000000000D+00 -4.0736669091117D-02  6.5852516966830D-02
192  1.9100000000000D+00 -3.4083681418056D-02  5.5035673984992D-02
193  1.9200000000000D+00 -2.8209674618058D-02  4.5515139196745D-02
194  1.9300000000000D+00 -2.3071722846194D-02  3.7209594645608D-02
195  1.9400000000000D+00 -1.8623164920600D-02  3.0033972721261D-02
196  1.9500000000000D+00 -1.4814350330499D-02  2.3900455471860D-02
197  1.9600000000000D+00 -1.1593393554743D-02  1.8719479777733D-02
198  1.9700000000000D+00 -8.9069288498247D-03  1.4400738119452D-02
199  1.9800000000000D+00 -6.7008617849107D-03  1.0854171000470D-02
200  1.9900000000000D+00 -4.9211062636577D-03  7.9909368347035D-03
201  2.0000000000000D+00 -3.5143044623613D-03  5.7243563845117D-03
202  2.0100000000000D+00 -2.4285222943333D-03  3.9708227320706D-03
203  2.0200000000000D+00 -1.6139094868520D-03  2.6506633763693D-03
204  2.0300000000000D+00 -1.0233307600133D-03  1.6889625555836D-03
205  2.0400000000000D+00 -6.1297263061597D-04  1.0163423089380D-03
206  2.0500000000000D+00 -3.4278354234413D-04  5.6956650873124D-04
207  2.0600000000000D+00 -1.7700493466298D-04  2.9222608410267D-04
208  2.0700000000000D+00 -8.4696133000948D-05  1.3541110643458D-04
209  2.0800000000000D+00 -4.0256287973901D-05  5.8115121772075D-05
210  2.0900000000000D+00 -2.3551158544100D-05  2.7773186555841D-05
211  2.1000000000000D+00 -1.9133563487348D-05  1.9694998436351D-05
212  2.1100000000000D+00 -1.6473973873951D-05  1.7092437936146D-05
213  2.1200000000000D+00 -1.0059051589572D-05  1.0798952526989D-05
214  2.1300000000000D+00 -2.4964061314786D-06  2.7703715330911D-06
215  2.1400000000000D+00  1.5805255299943D-06 -1.6736643160010D-06
216  2.1500000000000D+00  1.5933929208536D-06 -1.7060066185417D-06
217  2.1600000000000D+00 -3.2634638402976D-08  3.1338135916041D-08
218  2.1700000000000D+00 -3.6452612464323D-07  3.4817126078649D-07
219  2.1800000000000D+00 -2.0214563763497D-07  1.9223344793426D-07
220  2.1900000000000D+00  2.8721524432722D-08 -2.9692331994012D-08
221  2.2000000000000D+00  4.7017906337863D-08 -4.8607144370675D-08
222  2.2100000000000D+00  8.5976076835442D-09 -8.8882128207382D-09
223  2.2200000000000D+00  0.0000000000000D+00  0.0000000000000D+00
224  2.2300000000000D+00  0.0000000000000D+00  0.0000000000000D+00
225  2.2400000000000D+00  0.0000000000000D+00  0.0000000000000D+00
226  2.2500000000000D+00  0.0000000000000D+00  0.0000000000000D+00
227  2.2600000000000D+00  0.0000000000000D+00  0.0000000000000D+00
228  2.2700000000000D+00  0.0000000000000D+00  0.0000000000000D+00
229  2.2800000000000D+00  0.0000000000000D+00  0.0000000000000D+00
230  2.2900000000000D+00  0.0000000000000D+00  0.0000000000000D+00
231  2.3000000000000D+00  0.0000000000000D+00  0.0000000000000D+00
232  2.3100000000000D+00  0.0000000000000D+00  0.0000000000000D+00
233  2.3200000000000D+00  0.0000000000000D+00  0.0000000000000D+00
234  2.3300000000000D+00  0.0000000000000D+00  0.0000000000000D+00
235  2.3400000000000D+00  0.0000000000000D+00  0.0000000000000D+00
236  2.3500000000000D+00  0.0000000000000D+00  0.0000000000000D+00
237  2.3600000000000D+00  0.0000000000000D+00  0.0000000000000D+00
238  2.3700000000000D+00  0.0000000000000D+00  0.0000000000000D+00
239  2.3800000000000D+00  0.0000000000000D+00  0.0000000000000D+00
240  2.3900000000000D+00  0.0000000000000D+00  0.0000000000000D+00
241  2.4000000000000D+00  0.0000000000000D+00  0.0000000000000D+00
242  2.4100000000000D+00  0.0000000000000D+00  0.0000000000000D+00
243  2.4200000000000D+00  0.0000000000000D+00  0.0000000000000D+00
244  2.4300000000000D+00  0.0000000000000D+00  0.0000000000000D+00
245  2.4400000000000D+00  0.0000000000000D+00  0.0000000000000D+00
246  2.4500000000000D+00  0.0000000000000D+00  0.0000000000000D+00
247  2.4600000000000D+00  0.0000000000000D+00  0.0000000000000D+00
248  2.4700000000000D+00  0.0000000000000D+00  0.0000000000000D+00
249  2.4800000000000D+00  0.0000000000000D+00  0.0000000000000D+00
250  2.4900000000000D+00  0.0000000000000D+00  0.0000000000000D+00
251  2.5000000000000D+00  0.0000000000000D+00  0.0000000000000D+00
252  2.5100000000000D+00  0.0000000000000D+00  0.0000000000000D+00
253  2.5200000000000D+00  0.0000000000000D+00  0.0000000000000D+00
254  2.5300000000000D+00  0.0000000000000D+00  0.0000000000000D+00
255  2.5400000000000D+00  0.0000000000000D+00  0.0000000000000D+00
256  2.5500000000000D+00  0.0000000000000D+00  0.0000000000000D+00
257  2.5600000000000D+00  0.0000000000000D+00  0.0000000000000D+00
258  2.5700000000000D+00  0.0000000000000D+00  0.0000000000000D+00
259  2.5800000000000D+00  0.0000000000000D+00  0.0000000000000D+00
260  2.5900000000000D+00  0.0000000000000D+00  0.0000000000000D+00
261  2.6000000000000D+00  0.0000000000000D+00  0.0000000000000D+00
262  2.6100000000000D+00  0.0000000000000D+00  0.0000000000000D+00
263  2.6200000000000D+00  0.0000000000000D+00  0.0000000000000D+00
264  2.6300000000000D+00  0.0000000000000D+00  0.0000000000000D+00
265  2.6400000000000D+00  0.0000000000000D+00  0.0000000000000D+00
266  2.6500000000000D+00  0.0000000000000D+00  0.0000000000000D+00
267  2.6600000000000D+00  0.0000000000000D+00  0.0000000000000D+00
268  2.6700000000000D+00  0.0000000000000D+00  0.0000000000000D+00
269  2.6800000000000D+00  0.0000000000000D+00  0.0000000000000D+00
270  2.6900000000000D+00  0.0000000000000D+00  0.0000000000000D+00
271  2.7000000000000D+00  0.0000000000000D+00  0.0000000000000D+00
272  2.7100000000000D+00  0.0000000000000D+00  0.0000000000000D+00
273  2.7200000000000D+00  0.0000000000000D+00  0.0000000000000D+00
274  2.7300000000000D+00  0.0000000000000D+00  0.0000000000000D+00
275  2.7400000000000D+00  0.0000000000000D+00  0.0000000000000D+00
276  2.7500000000000D+00  0.0000000000000D+00  0.0000000000000D+00
277  2.7600000000000D+00  0.0000000000000D+00  0.0000000000000D+00
278  2.7700000000000D+00  0.0000000000000D+00  0.0000000000000D+00
279  2.7800000000000D+00  0.0000000000000D+00  0.0000000000000D+00
280  2.7900000000000D+00  0.0000000000000D+00  0.0000000000000D+00
281  2.8000000000000D+00  0.0000000000000D+00  0.0000000000000D+00
282  2.8100000000000D+00  0.0000000000000D+00  0.0000000000000D+00
283  2.8200000000000D+00  0.0000000000000D+00  0.0000000000000D+00
284  2.8300000000000D+00  0.0000000000000D+00  0.0000000000000D+00
285  2.8400000000000D+00  0.0000000000000D+00  0.0000000000000D+00
286  2.8500000000000D+00  0.0000000000000D+00  0.0000000000000D+00
287  2.8600000000000D+00  0.0000000000000D+00  0.0000000000000D+00
288  2.8700000000000D+00  0.0000000000000D+00  0.0000000000000D+00
289  2.8800000000000D+00  0.0000000000000D+00  0.0000000000000D+00
290  2.8900000000000D+00  0.0000000000000D+00  0.0000000000000D+00
291  2.9000000000000D+00  0.0000000000000D+00  0.0000000000000D+00
292  2.9100000000000D+00  0.0000000000000D+00  0.0000000000000D+00
293  2.9200000000000D+00  0.0000000000000D+00  0.0000000000000D+00
294  2.9300000000000D+00  0.0000000000000D+00  0.0000000000000D+00
295  2.9400000000000D+00  0.0000000000000D+00  0.0000000000000D+00
296  2.9500000000000D+00  0.0000000000000D+00  0.0000000000000D+00
297  2.9600000000000D+00  0.0000000000000D+00  0.0000000000000D+00
298  2.9700000000000D+00  0.0000000000000D+00  0.0000000000000D+00
299  2.9800000000000D+00  0.0000000000000D+00  0.0000000000000D+00
300  2.9900000000000D+00  0.0000000000000D+00  0.0000000000000D+00
301  3.0000000000000D+00  0.0000000000000D+00  0.0000000000000D+00
302  3.0100000000000D+00  0.0000000000000D+00  0.0000000000000D+00
303  3.0200000000000D+00  0.0000000000000D+00  0.0000000000000D+00
304  3.0300000000000D+00  0.0000000000000D+00  0.0000000000000D+00
305  3.0400000000000D+00  0.0000000000000D+00  0.0000000000000D+00
306  3.0500000000000D+00  0.0000000000000D+00  0.0000000000000D+00
307  3.0600000000000D+00  0.0000000000000D+00  0.0000000000000D+00
308  3.0700000000000D+00  0.0000000000000D+00  0.0000000000000D+00
309  3.0800000000000D+00  0.0000000000000D+00  0.0000000000000D+00
310  3.0900000000000D+00  0.0000000000000D+00  0.0000000000000D+00
311  3.1000000000000D+00  0.0000000000000D+00  0.0000000000000D+00
312  3.1100000000000D+00  0.0000000000000D+00  0.0000000000000D+00
313  3.1200000000000D+00  0.0000000000000D+00  0.0000000000000D+00
314  3.1300000000000D+00  0.0000000000000D+00  0.0000000000000D+00
315  3.1400000000000D+00  0.0000000000000D+00  0.0000000000000D+00
316  3.1500000000000D+00  0.0000000000000D+00  0.0000000000000D+00
317  3.1600000000000D+00  0.0000000000000D+00  0.0000000000000D+00
318  3.1700000000000D+00  0.0000000000000D+00  0.0000000000000D+00
319  3.1800000000000D+00  0.0000000000000D+00  0.0000000000000D+00
320  3.1900000000000D+00  0.0000000000000D+00  0.0000000000000D+00
321  3.2000000000000D+00  0.0000000000000D+00  0.0000000000000D+00
322  3.2100000000000D+00  0.0000000000000D+00  0.0000000000000D+00
323  3.2200000000000D+00  0.0000000000000D+00  0.0000000000000D+00
324  3.2300000000000D+00  0.0000000000000D+00  0.0000000000000D+00
325  3.2400000000000D+00  0.0000000000000D+00  0.0000000000000D+00
326  3.2500000000000D+00  0.0000000000000D+00  0.0000000000000D+00
327  3.2600000000000D+00  0.0000000000000D+00  0.0000000000000D+00
328  3.2700000000000D+00  0.0000000000000D+00  0.0000000000000D+00
329  3.2800000000000D+00  0.0000000000000D+00  0.0000000000000D+00
330  3.2900000000000D+00  0.0000000000000D+00  0.0000000000000D+00
331  3.3000000000000D+00  0.0000000000000D+00  0.0000000000000D+00
332  3.3100000000000D+00  0.0000000000000D+00  0.0000000000000D+00
333  3.3200000000000D+00  0.0000000000000D+00  0.0000000000000D+00
334  3.3300000000000D+00  0.0000000000000D+00  0.0000000000000D+00
335  3.3400000000000D+00  0.0000000000000D+00  0.0000000000000D+00
336  3.3500000000000D+00  0.0000000000000D+00  0.0000000000000D+00
337  3.3600000000000D+00  0.0000000000000D+00  0.0000000000000D+00
338  3.3700000000000D+00  0.0000000000000D+00  0.0000000000000D+00
339  3.3800000000000D+00  0.0000000000000D+00  0.0000000000000D+00
340  3.3900000000000D+00  0.0000000000000D+00  0.0000000000000D+00
341  3.4000000000000D+00  0.0000000000000D+00  0.0000000000000D+00
342  3.4100000000000D+00  0.0000000000000D+00  0.0000000000000D+00
343  3.4200000000000D+00  0.0000000000000D+00  0.0000000000000D+00
344  3.4300000000000D+00  0.0000000000000D+00  0.0000000000000D+00
345  3.4400000000000D+00  0.0000000000000D+00  0.0000000000000D+00
346  3.4500000000000D+00  0.0000000000000D+00  0.0000000000000D+00
347  3.4600000000000D+00  0.0000000000000D+00  0.0000000000000D+00
348  3.4700000000000D+00  0.0000000000000D+00  0.0000000000000D+00
349  3.4800000000000D+00  0.0000000000000D+00  0.0000000000000D+00
350  3.4900000000000D+00  0.0000000000000D+00  0.0000000000000D+00
351  3.5000000000000D+00  0.0000000000000D+00  0.0000000000000D+00
352  3.5100000000000D+00  0.0000000000000D+00  0.0000000000000D+00
353  3.5200000000000D+00  0.0000000000000D+00  0.0000000000000D+00
354  3.5300000000000D+00  0.0000000000000D+00  0.0000000000000D+00
355  3.5400000000000D+00  0.0000000000000D+00  0.0000000000000D+00
356  3.5500000000000D+00  0.0000000000000D+00  0.0000000000000D+00
357  3.5600000000000D+00  0.0000000000000D+00  0.0000000000000D+00
358  3.5700000000000D+00  0.0000000000000D+00  0.0000000000000D+00
359  3.5800000000000D+00  0.0000000000000D+00  0.0000000000000D+00
360  3.5900000000000D+00  0.0000000000000D+00  0.0000000000000D+00
361  3.6000000000000D+00  0.0000000000000D+00  0.0000000000000D+00
362  3.6100000000000D+00  0.0000000000000D+00  0.0000000000000D+00
363  3.6200000000000D+00  0.0000000000000D+00  0.0000000000000D+00
364  3.6300000000000D+00  0.0000000000000D+00  0.0000000000000D+00
365  3.6400000000000D+00  0.0000000000000D+00  0.0000000000000D+00
366  3.6500000000000D+00  0.0000000000000D+00  0.0000000000000D+00
367  3.6600000000000D+00  0.0000000000000D+00  0.0000000000000D+00
368  3.6700000000000D+00  0.0000000000000D+00  0.0000000000000D+00
369  3.6800000000000D+00  0.0000000000000D+00  0.0000000000000D+00
370  3.6900000000000D+00  0.0000000000000D+00  0.0000000000000D+00
371  3.7000000000000D+00  0.0000000000000D+00  0.0000000000000D+00
372  3.7100000000000D+00  0.0000000000000D+00  0.0000000000000D+00
373  3.7200000000000D+00  0.0000000000000D+00  0.0000000000000D+00
374  3.7300000000000D+00  0.0000000000000D+00  0.0000000000000D+00
375  3.7400000000000D+00  0.0000000000000D+00  0.0000000000000D+00
376  3.7500000000000D+00  0.0000000000000D+00  0.0000000000000D+00
377  3.7600000000000D+00  0.0000000000000D+00  0.0000000000000D+00
378  3.7700000000000D+00  0.0000000000000D+00  0.0000000000000D+00
379  3.7800000000000D+00  0.0000000000000D+00  0.0000000000000D+00
380  3.7900000000000D+00  0.0000000000000D+00  0.0000000000000D+00
381  3.8000000000000D+00  0.0000000000000D+00  0.0000000000000D+00
382  3.8100000000000D+00  0.0000000000000D+00  0.0000000000000D+00
383  3.8200000000000D+00  0.0000000000000D+00  0.0000000000000D+00
384  3.8300000000000D+00  0.0000000000000D+00  0.0000000000000D+00
385  3.8400000000000D+00  0.0000000000000D+00  0.0000000000000D+00
386  3.8500000000000D+00  0.0000000000000D+00  0.0000000000000D+00
387  3.8600000000000D+00  0.0000000000000D+00  0.0000000000000D+00
388  3.8700000000000D+00  0.0000000000000D+00  0.0000000000000D+00
389  3.8800000000000D+00  0.0000000000000D+00  0.0000000000000D+00
390  3.8900000000000D+00  0.0000000000000D+00  0.0000000000000D+00
391  3.9000000000000D+00  0.0000000000000D+00  0.0000000000000D+00
392  3.9100000000000D+00  0.0000000000000D+00  0.0000000000000D+00
393  3.9200000000000D+00  0.0000000000000D+00  0.0000000000000D+00
394  3.9300000000000D+00  0.0000000000000D+00  0.0000000000000D+00
395  3.9400000000000D+00  0.0000000000000D+00  0.0000000000000D+00
396  3.9500000000000D+00  0.0000000000000D+00  0.0000000000000D+00
397  3.9600000000000D+00  0.0000000000000D+00  0.0000000000000D+00
398  3.9700000000000D+00  0.0000000000000D+00  0.0000000000000D+00
399  3.9800000000000D+00  0.0000000000000D+00  0.0000000000000D+00
400  3.9900000000000D+00  0.0000000000000D+00  0.0000000000000D+00
401  4.0000000000000D+00  0.0000000000000D+00  0.0000000000000D+00
402  4.0100000000000D+00  0.0000000000000D+00  0.0000000000000D+00
403  4.0200000000000D+00  0.0000000000000D+00  0.0000000000000D+00
404  4.0300000000000D+00  0.0000000000000D+00  0.0000000000000D+00
405  4.0400000000000D+00  0.0000000000000D+00  0.0000000000000D+00
406  4.0500000000000D+00  0.0000000000000D+00  0.0000000000000D+00
407  4.0600000000000D+00  0.0000000000000D+00  0.0000000000000D+00
408  4.0700000000000D+00  0.0000000000000D+00  0.0000000000000D+00
409  4.0800000000000D+00  0.0000000000000D+00  0.0000000000000D+00
410  4.0900000000000D+00  0.0000000000000D+00  0.0000000000000D+00
411  4.1000000000000D+00  0.0000000000000D+00  0.0000000000000D+00
412  4.1100000000000D+00  0.0000000000000D+00  0.0000000000000D+00
413  4.1200000000000D+00  0.0000000000000D+00  0.0000000000000D+00
414  4.1300000000000D+00  0.0000000000000D+00  0.0000000000000D+00
415  4.1400000000000D+00  0.0000000000000D+00  0.0000000000000D+00
416  4.1500000000000D+00  0.0000000000000D+00  0.0000000000000D+00
417  4.1600000000000D+00  0.0000000000000D+00  0.0000000000000D+00
418  4.1700000000000D+00  0.0000000000000D+00  0.0000000000000D+00
419  4.1800000000000D+00  0.0000000000000D+00  0.0000000000000D+00
420  4.1900000000000D+00  0.0000000000000D+00  0.0000000000000D+00
421  4.2000000000000D+00  0.0000000000000D+00  0.0000000000000D+00
422  4.2100000000000D+00  0.0000000000000D+00  0.0000000000000D+00
423  4.2200000000000D+00  0.0000000000000D+00  0.0000000000000D+00
424  4.2300000000000D+00  0.0000000000000D+00  0.0000000000000D+00
425  4.2400000000000D+00  0.0000000000000D+00  0.0000000000000D+00
426  4.2500000000000D+00  0.0000000000000D+00  0.0000000000000D+00
427  4.2600000000000D+00  0.0000000000000D+00  0.0000000000000D+00
428  4.2700000000000D+00  0.0000000000000D+00  0.0000000000000D+00
429  4.2800000000000D+00  0.0000000000000D+00  0.0000000000000D+00
430  4.2900000000000D+00  0.0000000000000D+00  0.0000000000000D+00
431  4.3000000000000D+00  0.0000000000000D+00  0.0000000000000D+00
432  4.3100000000000D+00  0.0000000000000D+00  0.0000000000000D+00
433  4.3200000000000D+00  0.0000000000000D+00  0.0000000000000D+00
434  4.3300000000000D+00  0.0000000000000D+00  0.0000000000000D+00
435  4.3400000000000D+00  0.0000000000000D+00  0.0000000000000D+00
436  4.3500000000000D+00  0.0000000000000D+00  0.0000000000000D+00
437  4.3600000000000D+00  0.0000000000000D+00  0.0000000000000D+00
438  4.3700000000000D+00  0.0000000000000D+00  0.0000000000000D+00
439  4.3800000000000D+00  0.0000000000000D+00  0.0000000000000D+00
440  4.3900000000000D+00  0.0000000000000D+00  0.0000000000000D+00
441  4.4000000000000D+00  0.0000000000000D+00  0.0000000000000D+00
442  4.4100000000000D+00  0.0000000000000D+00  0.0000000000000D+00
443  4.4200000000000D+00  0.0000000000000D+00  0.0000000000000D+00
444  4.4300000000000D+00  0.0000000000000D+00  0.0000000000000D+00