In    ONCVPSP  r_core=  1.60  1.60  1.70
49.0000     21.0000      161001    zatom,zion,pspd
8      11   2     4   600     0    pspcod,pspxc,lmax,lloc,mmax,r2well
5.99000000  5.00000000  0.00000000    rchrg fchrg qchrg
2     2     2     0     0    nproj
1                 extension_switch
0                         8.4264329778162D+00 -5.5032976225036D-01
1  0.0000000000000D+00  9.1622931464030D-11  5.7895548077891D-10
2  1.0000000000000D-02  8.9198069916468D-02  6.7498017871490D-03
3  2.0000000000000D-02  1.7815177631834D-01  1.3554922349958D-02
4  3.0000000000000D-02  2.6661744555137D-01  2.0469878034028D-02
5  4.0000000000000D-02  3.5435278316788D-01  2.7547591772741D-02
6  5.0000000000000D-02  4.4111756222093D-01  3.4838624851644D-02
7  6.0000000000000D-02  5.2667430992090D-01  4.2390442421411D-02
8  7.0000000000000D-02  6.1078899199922D-01  5.0246723320906D-02
9  8.0000000000000D-02  6.9323169403204D-01  5.8446724192914D-02
10  9.0000000000000D-02  7.7377729886521D-01  6.7024707164585D-02
11  1.0000000000000D-01  8.5220615915222D-01  7.6009439531352D-02
12  1.1000000000000D-01  9.2830476387089D-01  8.5423772936912D-02
13  1.2000000000000D-01  1.0018663975260D+00  9.5284308494553D-02
14  1.3000000000000D-01  1.0726917905752D+00  1.0560115315931D-01
15  1.4000000000000D-01  1.1405897594377D+00  1.1637777144992D-01
16  1.5000000000000D-01  1.2053778342648D+00  1.2761093534950D-01
17  1.6000000000000D-01  1.2668828724677D+00  1.3929077389947D-01
18  1.7000000000000D-01  1.3249416558175D+00  1.5140092265898D-01
19  1.8000000000000D-01  1.3794014687588D+00  1.6391877184871D-01
20  1.9000000000000D-01  1.4301206554119D+00  1.7681581064973D-01
21  2.0000000000000D-01  1.4769691525884D+00  1.9005806380279D-01
22  2.1000000000000D-01  1.5198289960085D+00  2.0360661536691D-01
23  2.2000000000000D-01  1.5585947967915D+00  2.1741821326537D-01
24  2.3000000000000D-01  1.5931741852004D+00  2.3144594708749D-01
25  2.4000000000000D-01  1.6234882185534D+00  2.4563999054114D-01
26  2.5000000000000D-01  1.6494717501754D+00  2.5994839897846D-01
27  2.6000000000000D-01  1.6710737562591D+00  2.7431795155674D-01
28  2.7000000000000D-01  1.6882576175256D+00  2.8869502686261D-01
29  2.8000000000000D-01  1.7010013526408D+00  3.0302650022784D-01
30  2.9000000000000D-01  1.7092978004366D+00  3.1726065051002D-01
31  3.0000000000000D-01  1.7131547481209D+00  3.3134806380726D-01
32  3.1000000000000D-01  1.7125950028331D+00  3.4524252142806D-01
33  3.2000000000000D-01  1.7076564041094D+00  3.5890185945021D-01
34  3.3000000000000D-01  1.6983917750695D+00  3.7228878737575D-01
35  3.4000000000000D-01  1.6848688104176D+00  3.8537165372399D-01
36  3.5000000000000D-01  1.6671698996709D+00  3.9812514689849D-01
37  3.6000000000000D-01  1.6453918843756D+00  4.1053092031140D-01
38  3.7000000000000D-01  1.6196457484564D+00  4.2257813154587D-01
39  3.8000000000000D-01  1.5900562412503D+00  4.3426388627350D-01
40  3.9000000000000D-01  1.5567614332157D+00  4.4559357871191D-01
41  4.0000000000000D-01  1.5199122047576D+00  4.5658112159374D-01
42  4.1000000000000D-01  1.4796716690898D+00  4.6724905991137D-01
43  4.2000000000000D-01  1.4362145305368D+00  4.7762856408597D-01
44  4.3000000000000D-01  1.3897263801776D+00  4.8775929966959D-01
45  4.4000000000000D-01  1.3404029312316D+00  4.9768917220841D-01
46  4.5000000000000D-01  1.2884491970882D+00  5.0747394745560D-01
47  4.6000000000000D-01  1.2340786153726D+00  5.1717674870577D-01
48  4.7000000000000D-01  1.1775121219272D+00  5.2686743460987D-01
49  4.8000000000000D-01  1.1189771790507D+00  5.3662186240127D-01
50  4.9000000000000D-01  1.0587067627859D+00  5.4652104300074D-01
51  5.0000000000000D-01  9.9693831446381D-01  5.5665019595090D-01
52  5.1000000000000D-01  9.3391266210423D-01  5.6709771354101D-01
53  5.2000000000000D-01  8.6987291762137D-01  5.7795404480319D-01
54  5.3000000000000D-01  8.0506335609907D-01  5.8931051127201D-01
55  5.4000000000000D-01  7.3972828366730D-01  6.0125806748671D-01
56  5.5000000000000D-01  6.7411090073248D-01  6.1388602016425D-01
57  5.6000000000000D-01  6.0845216748355D-01  6.2728072076570D-01
58  5.7000000000000D-01  5.4298967871110D-01  6.4152424681014D-01
59  5.8000000000000D-01  4.7795655503507D-01  6.5669308774654D-01
60  5.9000000000000D-01  4.1358035763776D-01  6.7285685146779D-01
61  6.0000000000000D-01  3.5008203353886D-01  6.9007700763652D-01
62  6.1000000000000D-01  2.8767489833051D-01  7.0840568388506D-01
63  6.2000000000000D-01  2.2656366311037D-01  7.2788453065156D-01
64  6.3000000000000D-01  1.6694351211060D-01  7.4854366991788D-01
65  6.4000000000000D-01  1.0899923722387D-01  7.7040074243443D-01
66  6.5000000000000D-01  5.2904435270838D-02  7.9346006714298D-01
67  6.6000000000000D-01 -1.1792265552369D-03  8.1771192546399D-01
68  6.7000000000000D-01 -5.3102672091169D-02  8.4313198190384D-01
69  6.8000000000000D-01 -1.0272999998883D-01  8.6968085106224D-01
70  6.9000000000000D-01 -1.4993898596944D-01  8.9730381961221D-01
71  7.0000000000000D-01 -1.9462150022557D-01  9.2593073018971D-01
72  7.1000000000000D-01 -2.3668383727578D-01  9.5547603238386D-01
73  7.2000000000000D-01 -2.7604695623260D-01  9.8583900418390D-01
74  7.3000000000000D-01 -3.1264663012085D-01  1.0169041453395D+00
75  7.4000000000000D-01 -3.4643350357902D-01  1.0485417421392D+00
76  7.5000000000000D-01 -3.7737305898020D-01  1.0806086011410D+00
77  7.6000000000000D-01 -4.0544549171782D-01  1.1129489474122D+00
78  7.7000000000000D-01 -4.3064549610855D-01  1.1453954808782D+00
79  7.8000000000000D-01 -4.5298196405925D-01  1.1777705824757D+00
80  7.9000000000000D-01 -4.7247759932574D-01  1.2098876599601D+00
81  8.0000000000000D-01 -4.8916845084823D-01  1.2415526214680D+00
82  8.1000000000000D-01 -5.0310336927647D-01  1.2725654632945D+00
83  8.2000000000000D-01 -5.1434339139022D-01  1.3027219568405D+00
84  8.3000000000000D-01 -5.2296105767292D-01  1.3318154183302D+00
85  8.4000000000000D-01 -5.2903966880119D-01  1.3596385437149D+00
86  8.5000000000000D-01 -5.3267248726699D-01  1.3859852901818D+00
87  8.6000000000000D-01 -5.3396189074692D-01  1.4106527848890D+00
88  8.7000000000000D-01 -5.3301848417110D-01  1.4334432409626D+00
89  8.8000000000000D-01 -5.2996017771904D-01  1.4541658604261D+00
90  8.9000000000000D-01 -5.2491123817831D-01  1.4726387035986D+00
91  9.0000000000000D-01 -5.1800132124341D-01  1.4886905045942D+00
92  9.1000000000000D-01 -5.0936449240323D-01  1.5021624128859D+00
93  9.2000000000000D-01 -4.9913824406806D-01  1.5129096414636D+00
94  9.3000000000000D-01 -4.8746251651875D-01  1.5208030029059D+00
95  9.4000000000000D-01 -4.7447873012441D-01  1.5257303157072D+00
96  9.5000000000000D-01 -4.6032883607069D-01  1.5275976644233D+00
97  9.6000000000000D-01 -4.4515439257219D-01  1.5263304986381D+00
98  9.7000000000000D-01 -4.2909567321238D-01  1.5218745573572D+00
99  9.8000000000000D-01 -4.1229081365940D-01  1.5141966072533D+00
100  9.9000000000000D-01 -3.9487500257395D-01  1.5032849850703D+00
101  1.0000000000000D+00 -3.7697972202268D-01  1.4891499366075D+00
102  1.0100000000000D+00 -3.5873204217553D-01  1.4718237468663D+00
103  1.0200000000000D+00 -3.4025397449281D-01  1.4513606581866D+00
104  1.0300000000000D+00 -3.2166188699986D-01  1.4278365755171D+00
105  1.0400000000000D+00 -3.0306598460859D-01  1.4013485603247D+00
106  1.0500000000000D+00 -2.8456985679495D-01  1.3720141169848D+00
107  1.0600000000000D+00 -2.6627009429981D-01  1.3399702777456D+00
108  1.0700000000000D+00 -2.4825597580591D-01  1.3053724947837D+00
109  1.0800000000000D+00 -2.3060922491787D-01  1.2683933499218D+00
110  1.0900000000000D+00 -2.1340383708475D-01  1.2292210947608D+00
111  1.1000000000000D+00 -1.9670597548195D-01  1.1880580358719D+00
112  1.1100000000000D+00 -1.8057393426185D-01  1.1451187814834D+00
113  1.1200000000000D+00 -1.6505816693818D-01  1.1006283678642D+00
114  1.1300000000000D+00 -1.5020137716323D-01  1.0548202849010D+00
115  1.1400000000000D+00 -1.3603866859981D-01  1.0079344216606D+00
116  1.1500000000000D+00 -1.2259775019686D-01  9.6021495360954D-01
117  1.1600000000000D+00 -1.0989919263158D-01  9.1190819413355D-01
118  1.1700000000000D+00 -9.7956731401742D-02  8.6326043329260D-01
119  1.1800000000000D+00 -8.6777611721837D-02  8.1451578700931D-01
120  1.1900000000000D+00 -7.6362970120518D-02  7.6591408000731D-01
121  1.2000000000000D+00 -6.6708247406115D-02  7.1768878541386D-01
122  1.2100000000000D+00 -5.7803627594999D-02  6.7006504318336D-01
123  1.2200000000000D+00 -4.9634497297952D-02  6.2325777922667D-01
124  1.2300000000000D+00 -4.2181920024583D-02  5.7746994559639D-01
125  1.2400000000000D+00 -3.5423119991071D-02  5.3289090067151D-01
126  1.2500000000000D+00 -2.9331970062317D-02  4.8969494731266D-01
127  1.2600000000000D+00 -2.3879478609730D-02  4.4804004502705D-01
128  1.2700000000000D+00 -1.9034270416935D-02  4.0806670952490D-01
129  1.2800000000000D+00 -1.4763056893560D-02  3.6989711206305D-01
130  1.2900000000000D+00 -1.1031091147812D-02  3.3363438859987D-01
131  1.3000000000000D+00 -7.8026040973874D-03  2.9936216492955D-01
132  1.3100000000000D+00 -5.0412178323208D-03  2.6714430375659D-01
133  1.3200000000000D+00 -2.7103329798449D-03  2.3702487621135D-01
134  1.3300000000000D+00 -7.7348761948856D-04  2.0902835609425D-01
135  1.3400000000000D+00  8.0531494327808D-04  1.8316003634233D-01
136  1.3500000000000D+00  2.0613111959196D-03  1.5940666150116D-01
137  1.3600000000000D+00  3.0287162674084D-03  1.3773726729777D-01
138  1.3700000000000D+00  3.7404981835257D-03  1.1810422070203D-01
139  1.3800000000000D+00  4.2281871779992D-03  1.0044444471690D-01
140  1.3900000000000D+00  4.5217203565288D-03  8.4680815489327D-02
141  1.4000000000000D+00  4.6493213785561D-03  7.0723715963492D-02
142  1.4100000000000D+00  4.6374136372842D-03  5.8472725863093D-02
143  1.4200000000000D+00  4.5105663969844D-03  4.7818431460352D-02
144  1.4300000000000D+00  4.2914715933538D-03  3.8644331797546D-02
145  1.4400000000000D+00  4.0009496049979D-03  3.0828820952121D-02
146  1.4500000000000D+00  3.6579818506738D-03  2.4247223296905D-02
147  1.4600000000000D+00  3.2797682631107D-03  1.8773862331481D-02
148  1.4700000000000D+00  2.8818024402153D-03  1.4284118432259D-02
149  1.4800000000000D+00  2.4779805621736D-03  1.0656532928017D-02
150  1.4900000000000D+00  2.0806746218239D-03  7.7746596446019D-03
151  1.5000000000000D+00  1.7008742980668D-03  5.5290748757509D-03
152  1.5100000000000D+00  1.3485284947807D-03  3.8201256450060D-03
153  1.5200000000000D+00  1.0321477697103D-03  2.5573960068997D-03
154  1.5300000000000D+00  7.5833977589071D-04  1.6587424516212D-03
155  1.5400000000000D+00  5.3131699654336D-04  1.0492771740962D-03
156  1.5500000000000D+00  3.5246068829349D-04  6.6056175368050D-04
157  1.5600000000000D+00  2.2047471626349D-04  4.3158740753094D-04
158  1.5700000000000D+00  1.3097855780145D-04  3.0754999545784D-04
159  1.5800000000000D+00  7.9014660006967D-05  2.5335411049367D-04
160  1.5900000000000D+00  5.9228780805945D-05  2.5220105034686D-04
161  1.6000000000000D+00  5.1509839379814D-05  2.4163865204984D-04
162  1.6100000000000D+00  3.0469089360704D-05  1.4465634029040D-04
163  1.6200000000000D+00  3.8802668703925D-06  1.8335094686272D-05
164  1.6300000000000D+00 -4.9818406847004D-06 -2.4197929911585D-05
165  1.6400000000000D+00 -8.1634766699928D-07 -3.9708659641032D-06
166  1.6500000000000D+00  1.1024072438886D-06  5.4042251979704D-06
167  1.6600000000000D+00  1.5577799529003D-07  7.6551602948508D-07
168  1.6700000000000D+00 -1.3714059969529D-07 -6.4596902432641D-07
169  1.6800000000000D+00 -1.8923144949987D-08 -8.9133090475683D-08
170  1.6900000000000D+00  0.0000000000000D+00  0.0000000000000D+00
171  1.7000000000000D+00  0.0000000000000D+00  0.0000000000000D+00
172  1.7100000000000D+00  0.0000000000000D+00  0.0000000000000D+00
173  1.7200000000000D+00  0.0000000000000D+00  0.0000000000000D+00
174  1.7300000000000D+00  0.0000000000000D+00  0.0000000000000D+00
175  1.7400000000000D+00  0.0000000000000D+00  0.0000000000000D+00
176  1.7500000000000D+00  0.0000000000000D+00  0.0000000000000D+00
177  1.7600000000000D+00  0.0000000000000D+00  0.0000000000000D+00
178  1.7700000000000D+00  0.0000000000000D+00  0.0000000000000D+00
179  1.7800000000000D+00  0.0000000000000D+00  0.0000000000000D+00
180  1.7900000000000D+00  0.0000000000000D+00  0.0000000000000D+00
181  1.8000000000000D+00  0.0000000000000D+00  0.0000000000000D+00
182  1.8100000000000D+00  0.0000000000000D+00  0.0000000000000D+00
183  1.8200000000000D+00  0.0000000000000D+00  0.0000000000000D+00
184  1.8300000000000D+00  0.0000000000000D+00  0.0000000000000D+00
185  1.8400000000000D+00  0.0000000000000D+00  0.0000000000000D+00
186  1.8500000000000D+00  0.0000000000000D+00  0.0000000000000D+00
187  1.8600000000000D+00  0.0000000000000D+00  0.0000000000000D+00
188  1.8700000000000D+00  0.0000000000000D+00  0.0000000000000D+00
189  1.8800000000000D+00  0.0000000000000D+00  0.0000000000000D+00
190  1.8900000000000D+00  0.0000000000000D+00  0.0000000000000D+00
191  1.9000000000000D+00  0.0000000000000D+00  0.0000000000000D+00
192  1.9100000000000D+00  0.0000000000000D+00  0.0000000000000D+00
193  1.9200000000000D+00  0.0000000000000D+00  0.0000000000000D+00
194  1.9300000000000D+00  0.0000000000000D+00  0.0000000000000D+00
195  1.9400000000000D+00  0.0000000000000D+00  0.0000000000000D+00
196  1.9500000000000D+00  0.0000000000000D+00  0.0000000000000D+00
197  1.9600000000000D+00  0.0000000000000D+00  0.0000000000000D+00
198  1.9700000000000D+00  0.0000000000000D+00  0.0000000000000D+00
199  1.9800000000000D+00  0.0000000000000D+00  0.0000000000000D+00
200  1.9900000000000D+00  0.0000000000000D+00  0.0000000000000D+00
201  2.0000000000000D+00  0.0000000000000D+00  0.0000000000000D+00
202  2.0100000000000D+00  0.0000000000000D+00  0.0000000000000D+00
203  2.0200000000000D+00  0.0000000000000D+00  0.0000000000000D+00
204  2.0300000000000D+00  0.0000000000000D+00  0.0000000000000D+00
205  2.0400000000000D+00  0.0000000000000D+00  0.0000000000000D+00
206  2.0500000000000D+00  0.0000000000000D+00  0.0000000000000D+00
207  2.0600000000000D+00  0.0000000000000D+00  0.0000000000000D+00
208  2.0700000000000D+00  0.0000000000000D+00  0.0000000000000D+00
209  2.0800000000000D+00  0.0000000000000D+00  0.0000000000000D+00
210  2.0900000000000D+00  0.0000000000000D+00  0.0000000000000D+00
211  2.1000000000000D+00  0.0000000000000D+00  0.0000000000000D+00
212  2.1100000000000D+00  0.0000000000000D+00  0.0000000000000D+00
213  2.1200000000000D+00  0.0000000000000D+00  0.0000000000000D+00
214  2.1300000000000D+00  0.0000000000000D+00  0.0000000000000D+00
215  2.1400000000000D+00  0.0000000000000D+00  0.0000000000000D+00
216  2.1500000000000D+00  0.0000000000000D+00  0.0000000000000D+00
217  2.1600000000000D+00  0.0000000000000D+00  0.0000000000000D+00
218  2.1700000000000D+00  0.0000000000000D+00  0.0000000000000D+00
219  2.1800000000000D+00  0.0000000000000D+00  0.0000000000000D+00
220  2.1900000000000D+00  0.0000000000000D+00  0.0000000000000D+00
221  2.2000000000000D+00  0.0000000000000D+00  0.0000000000000D+00
222  2.2100000000000D+00  0.0000000000000D+00  0.0000000000000D+00
223  2.2200000000000D+00  0.0000000000000D+00  0.0000000000000D+00
224  2.2300000000000D+00  0.0000000000000D+00  0.0000000000000D+00
225  2.2400000000000D+00  0.0000000000000D+00  0.0000000000000D+00
226  2.2500000000000D+00  0.0000000000000D+00  0.0000000000000D+00
227  2.2600000000000D+00  0.0000000000000D+00  0.0000000000000D+00
228  2.2700000000000D+00  0.0000000000000D+00  0.0000000000000D+00
229  2.2800000000000D+00  0.0000000000000D+00  0.0000000000000D+00
230  2.2900000000000D+00  0.0000000000000D+00  0.0000000000000D+00
231  2.3000000000000D+00  0.0000000000000D+00  0.0000000000000D+00
232  2.3100000000000D+00  0.0000000000000D+00  0.0000000000000D+00
233  2.3200000000000D+00  0.0000000000000D+00  0.0000000000000D+00
234  2.3300000000000D+00  0.0000000000000D+00  0.0000000000000D+00
235  2.3400000000000D+00  0.0000000000000D+00  0.0000000000000D+00
236  2.3500000000000D+00  0.0000000000000D+00  0.0000000000000D+00
237  2.3600000000000D+00  0.0000000000000D+00  0.0000000000000D+00
238  2.3700000000000D+00  0.0000000000000D+00  0.0000000000000D+00
239  2.3800000000000D+00  0.0000000000000D+00  0.0000000000000D+00
240  2.3900000000000D+00  0.0000000000000D+00  0.0000000000000D+00
241  2.4000000000000D+00  0.0000000000000D+00  0.0000000000000D+00
242  2.4100000000000D+00  0.0000000000000D+00  0.0000000000000D+00
243  2.4200000000000D+00  0.0000000000000D+00  0.0000000000000D+00
244  2.4300000000000D+00  0.0000000000000D+00  0.0000000000000D+00
245  2.4400000000000D+00  0.0000000000000D+00  0.0000000000000D+00
246  2.4500000000000D+00  0.0000000000000D+00  0.0000000000000D+00
247  2.4600000000000D+00  0.0000000000000D+00  0.0000000000000D+00
248  2.4700000000000D+00  0.0000000000000D+00  0.0000000000000D+00
249  2.4800000000000D+00  0.0000000000000D+00  0.0000000000000D+00
250  2.4900000000000D+00  0.0000000000000D+00  0.0000000000000D+00
251  2.5000000000000D+00  0.0000000000000D+00  0.0000000000000D+00
252  2.5100000000000D+00  0.0000000000000D+00  0.0000000000000D+00
253  2.5200000000000D+00  0.0000000000000D+00  0.0000000000000D+00
254  2.5300000000000D+00  0.0000000000000D+00  0.0000000000000D+00
255  2.5400000000000D+00  0.0000000000000D+00  0.0000000000000D+00
256  2.5500000000000D+00  0.0000000000000D+00  0.0000000000000D+00
257  2.5600000000000D+00  0.0000000000000D+00  0.0000000000000D+00
258  2.5700000000000D+00  0.0000000000000D+00  0.0000000000000D+00
259  2.5800000000000D+00  0.0000000000000D+00  0.0000000000000D+00
260  2.5900000000000D+00  0.0000000000000D+00  0.0000000000000D+00
261  2.6000000000000D+00  0.0000000000000D+00  0.0000000000000D+00
262  2.6100000000000D+00  0.0000000000000D+00  0.0000000000000D+00
263  2.6200000000000D+00  0.0000000000000D+00  0.0000000000000D+00
264  2.6300000000000D+00  0.0000000000000D+00  0.0000000000000D+00
265  2.6400000000000D+00  0.0000000000000D+00  0.0000000000000D+00
266  2.6500000000000D+00  0.0000000000000D+00  0.0000000000000D+00
267  2.6600000000000D+00  0.0000000000000D+00  0.0000000000000D+00
268  2.6700000000000D+00  0.0000000000000D+00  0.0000000000000D+00
269  2.6800000000000D+00  0.0000000000000D+00  0.0000000000000D+00
270  2.6900000000000D+00  0.0000000000000D+00  0.0000000000000D+00
271  2.7000000000000D+00  0.0000000000000D+00  0.0000000000000D+00
272  2.7100000000000D+00  0.0000000000000D+00  0.0000000000000D+00
273  2.7200000000000D+00  0.0000000000000D+00  0.0000000000000D+00
274  2.7300000000000D+00  0.0000000000000D+00  0.0000000000000D+00
275  2.7400000000000D+00  0.0000000000000D+00  0.0000000000000D+00
276  2.7500000000000D+00  0.0000000000000D+00  0.0000000000000D+00
277  2.7600000000000D+00  0.0000000000000D+00  0.0000000000000D+00
278  2.7700000000000D+00  0.0000000000000D+00  0.0000000000000D+00
279  2.7800000000000D+00  0.0000000000000D+00  0.0000000000000D+00
280  2.7900000000000D+00  0.0000000000000D+00  0.0000000000000D+00
281  2.8000000000000D+00  0.0000000000000D+00  0.0000000000000D+00
282  2.8100000000000D+00  0.0000000000000D+00  0.0000000000000D+00
283  2.8200000000000D+00  0.0000000000000D+00  0.0000000000000D+00
284  2.8300000000000D+00  0.0000000000000D+00  0.0000000000000D+00
285  2.8400000000000D+00  0.0000000000000D+00  0.0000000000000D+00
286  2.8500000000000D+00  0.0000000000000D+00  0.0000000000000D+00
287  2.8600000000000D+00  0.0000000000000D+00  0.0000000000000D+00
288  2.8700000000000D+00  0.0000000000000D+00  0.0000000000000D+00
289  2.8800000000000D+00  0.0000000000000D+00  0.0000000000000D+00
290  2.8900000000000D+00  0.0000000000000D+00  0.0000000000000D+00
291  2.9000000000000D+00  0.0000000000000D+00  0.0000000000000D+00
292  2.9100000000000D+00  0.0000000000000D+00  0.0000000000000D+00
293  2.9200000000000D+00  0.0000000000000D+00  0.0000000000000D+00
294  2.9300000000000D+00  0.0000000000000D+00  0.0000000000000D+00
295  2.9400000000000D+00  0.0000000000000D+00  0.0000000000000D+00
296  2.9500000000000D+00  0.0000000000000D+00  0.0000000000000D+00
297  2.9600000000000D+00  0.0000000000000D+00  0.0000000000000D+00
298  2.9700000000000D+00  0.0000000000000D+00  0.0000000000000D+00
299  2.9800000000000D+00  0.0000000000000D+00  0.0000000000000D+00
300  2.9900000000000D+00  0.0000000000000D+00  0.0000000000000D+00
301  3.0000000000000D+00  0.0000000000000D+00  0.0000000000000D+00
302  3.0100000000000D+00  0.0000000000000D+00  0.0000000000000D+00
303  3.0200000000000D+00  0.0000000000000D+00  0.0000000000000D+00
304  3.0300000000000D+00  0.0000000000000D+00  0.0000000000000D+00
305  3.0400000000000D+00  0.0000000000000D+00  0.0000000000000D+00
306  3.0500000000000D+00  0.0000000000000D+00  0.0000000000000D+00
307  3.0600000000000D+00  0.0000000000000D+00  0.0000000000000D+00
308  3.0700000000000D+00  0.0000000000000D+00  0.0000000000000D+00
309  3.0800000000000D+00  0.0000000000000D+00  0.0000000000000D+00
310  3.0900000000000D+00  0.0000000000000D+00  0.0000000000000D+00
311  3.1000000000000D+00  0.0000000000000D+00  0.0000000000000D+00
312  3.1100000000000D+00  0.0000000000000D+00  0.0000000000000D+00
313  3.1200000000000D+00  0.0000000000000D+00  0.0000000000000D+00
314  3.1300000000000D+00  0.0000000000000D+00  0.0000000000000D+00
315  3.1400000000000D+00  0.0000000000000D+00  0.0000000000000D+00
316  3.1500000000000D+00  0.0000000000000D+00  0.0000000000000D+00
317  3.1600000000000D+00  0.0000000000000D+00  0.0000000000000D+00
318  3.1700000000000D+00  0.0000000000000D+00  0.0000000000000D+00
319  3.1800000000000D+00  0.0000000000000D+00  0.0000000000000D+00
320  3.1900000000000D+00  0.0000000000000D+00  0.0000000000000D+00
321  3.2000000000000D+00  0.0000000000000D+00  0.0000000000000D+00
322  3.2100000000000D+00  0.0000000000000D+00  0.0000000000000D+00
323  3.2200000000000D+00  0.0000000000000D+00  0.0000000000000D+00
324  3.2300000000000D+00  0.0000000000000D+00  0.0000000000000D+00
325  3.2400000000000D+00  0.0000000000000D+00  0.0000000000000D+00
326  3.2500000000000D+00  0.0000000000000D+00  0.0000000000000D+00
327  3.2600000000000D+00  0.0000000000000D+00  0.0000000000000D+00
328  3.2700000000000D+00  0.0000000000000D+00  0.0000000000000D+00
329  3.2800000000000D+00  0.0000000000000D+00  0.0000000000000D+00
330  3.2900000000000D+00  0.0000000000000D+00  0.0000000000000D+00
331  3.3000000000000D+00  0.0000000000000D+00  0.0000000000000D+00
332  3.3100000000000D+00  0.0000000000000D+00  0.0000000000000D+00
333  3.3200000000000D+00  0.0000000000000D+00  0.0000000000000D+00
334  3.3300000000000D+00  0.0000000000000D+00  0.0000000000000D+00
335  3.3400000000000D+00  0.0000000000000D+00  0.0000000000000D+00
336  3.3500000000000D+00  0.0000000000000D+00  0.0000000000000D+00
337  3.3600000000000D+00  0.0000000000000D+00  0.0000000000000D+00
338  3.3700000000000D+00  0.0000000000000D+00  0.0000000000000D+00
339  3.3800000000000D+00  0.0000000000000D+00  0.0000000000000D+00
340  3.3900000000000D+00  0.0000000000000D+00  0.0000000000000D+00
341  3.4000000000000D+00  0.0000000000000D+00  0.0000000000000D+00
342  3.4100000000000D+00  0.0000000000000D+00  0.0000000000000D+00
343  3.4200000000000D+00  0.0000000000000D+00  0.0000000000000D+00
344  3.4300000000000D+00  0.0000000000000D+00  0.0000000000000D+00
345  3.4400000000000D+00  0.0000000000000D+00  0.0000000000000D+00
346  3.4500000000000D+00  0.0000000000000D+00  0.0000000000000D+00
347  3.4600000000000D+00  0.0000000000000D+00  0.0000000000000D+00
348  3.4700000000000D+00  0.0000000000000D+00  0.0000000000000D+00
349  3.4800000000000D+00  0.0000000000000D+00  0.0000000000000D+00
350  3.4900000000000D+00  0.0000000000000D+00  0.0000000000000D+00
351  3.5000000000000D+00  0.0000000000000D+00  0.0000000000000D+00
352  3.5100000000000D+00  0.0000000000000D+00  0.0000000000000D+00
353  3.5200000000000D+00  0.0000000000000D+00  0.0000000000000D+00
354  3.5300000000000D+00  0.0000000000000D+00  0.0000000000000D+00
355  3.5400000000000D+00  0.0000000000000D+00  0.0000000000000D+00
356  3.5500000000000D+00  0.0000000000000D+00  0.0000000000000D+00
357  3.5600000000000D+00  0.0000000000000D+00  0.0000000000000D+00
358  3.5700000000000D+00  0.0000000000000D+00  0.0000000000000D+00
359  3.5800000000000D+00  0.0000000000000D+00  0.0000000000000D+00
360  3.5900000000000D+00  0.0000000000000D+00  0.0000000000000D+00
361  3.6000000000000D+00  0.0000000000000D+00  0.0000000000000D+00
362  3.6100000000000D+00  0.0000000000000D+00  0.0000000000000D+00
363  3.6200000000000D+00  0.0000000000000D+00  0.0000000000000D+00
364  3.6300000000000D+00  0.0000000000000D+00  0.0000000000000D+00
365  3.6400000000000D+00  0.0000000000000D+00  0.0000000000000D+00
366  3.6500000000000D+00  0.0000000000000D+00  0.0000000000000D+00
367  3.6600000000000D+00  0.0000000000000D+00  0.0000000000000D+00
368  3.6700000000000D+00  0.0000000000000D+00  0.0000000000000D+00
369  3.6800000000000D+00  0.0000000000000D+00  0.0000000000000D+00
370  3.6900000000000D+00  0.0000000000000D+00  0.0000000000000D+00
371  3.7000000000000D+00  0.0000000000000D+00  0.0000000000000D+00
372  3.7100000000000D+00  0.0000000000000D+00  0.0000000000000D+00
373  3.7200000000000D+00  0.0000000000000D+00  0.0000000000000D+00
374  3.7300000000000D+00  0.0000000000000D+00  0.0000000000000D+00
375  3.7400000000000D+00  0.0000000000000D+00  0.0000000000000D+00
376  3.7500000000000D+00  0.0000000000000D+00  0.0000000000000D+00
377  3.7600000000000D+00  0.0000000000000D+00  0.0000000000000D+00
378  3.7700000000000D+00  0.0000000000000D+00  0.0000000000000D+00
379  3.7800000000000D+00  0.0000000000000D+00  0.0000000000000D+00
380  3.7900000000000D+00  0.0000000000000D+00  0.0000000000000D+00
381  3.8000000000000D+00  0.0000000000000D+00  0.0000000000000D+00
382  3.8100000000000D+00  0.0000000000000D+00  0.0000000000000D+00
383  3.8200000000000D+00  0.0000000000000D+00  0.0000000000000D+00
384  3.8300000000000D+00  0.0000000000000D+00  0.0000000000000D+00
385  3.8400000000000D+00  0.0000000000000D+00  0.0000000000000D+00
386  3.8500000000000D+00  0.0000000000000D+00  0.0000000000000D+00
387  3.8600000000000D+00  0.0000000000000D+00  0.0000000000000D+00
388  3.8700000000000D+00  0.0000000000000D+00  0.0000000000000D+00
389  3.8800000000000D+00  0.0000000000000D+00  0.0000000000000D+00
390  3.8900000000000D+00  0.0000000000000D+00  0.0000000000000D+00
391  3.9000000000000D+00  0.0000000000000D+00  0.0000000000000D+00
392  3.9100000000000D+00  0.0000000000000D+00  0.0000000000000D+00
393  3.9200000000000D+00  0.0000000000000D+00  0.0000000000000D+00
394  3.9300000000000D+00  0.0000000000000D+00  0.0000000000000D+00
395  3.9400000000000D+00  0.0000000000000D+00  0.0000000000000D+00
396  3.9500000000000D+00  0.0000000000000D+00  0.0000000000000D+00
397  3.9600000000000D+00  0.0000000000000D+00  0.0000000000000D+00
398  3.9700000000000D+00  0.0000000000000D+00  0.0000000000000D+00
399  3.9800000000000D+00  0.0000000000000D+00  0.0000000000000D+00
400  3.9900000000000D+00  0.0000000000000D+00  0.0000000000000D+00
401  4.0000000000000D+00  0.0000000000000D+00  0.0000000000000D+00
402  4.0100000000000D+00  0.0000000000000D+00  0.0000000000000D+00
403  4.0200000000000D+00  0.0000000000000D+00  0.0000000000000D+00
404  4.0300000000000D+00  0.0000000000000D+00  0.0000000000000D+00
405  4.0400000000000D+00  0.0000000000000D+00  0.0000000000000D+00
406  4.0500000000000D+00  0.0000000000000D+00  0.0000000000000D+00
407  4.0600000000000D+00  0.0000000000000D+00  0.0000000000000D+00
408  4.0700000000000D+00  0.0000000000000D+00  0.0000000000000D+00
409  4.0800000000000D+00  0.0000000000000D+00  0.0000000000000D+00
410  4.0900000000000D+00  0.0000000000000D+00  0.0000000000000D+00
411  4.1000000000000D+00  0.0000000000000D+00  0.0000000000000D+00
412  4.1100000000000D+00  0.0000000000000D+00  0.0000000000000D+00
413  4.1200000000000D+00  0.0000000000000D+00  0.0000000000000D+00
414  4.1300000000000D+00  0.0000000000000D+00  0.0000000000000D+00
415  4.1400000000000D+00  0.0000000000000D+00  0.0000000000000D+00
416  4.1500000000000D+00  0.0000000000000D+00  0.0000000000000D+00
417  4.1600000000000D+00  0.0000000000000D+00  0.0000000000000D+00
418  4.1700000000000D+00  0.0000000000000D+00  0.0000000000000D+00
419  4.1800000000000D+00  0.0000000000000D+00  0.0000000000000D+00
420  4.1900000000000D+00  0.0000000000000D+00  0.0000000000000D+00
421  4.2000000000000D+00  0.0000000000000D+00  0.0000000000000D+00
422  4.2100000000000D+00  0.0000000000000D+00  0.0000000000000D+00
423  4.2200000000000D+00  0.0000000000000D+00  0.0000000000000D+00
424  4.2300000000000D+00  0.0000000000000D+00  0.0000000000000D+00
425  4.2400000000000D+00  0.0000000000000D+00  0.0000000000000D+00
426  4.2500000000000D+00  0.0000000000000D+00  0.0000000000000D+00
427  4.2600000000000D+00  0.0000000000000D+00  0.0000000000000D+00
428  4.2700000000000D+00  0.0000000000000D+00  0.0000000000000D+00
429  4.2800000000000D+00  0.0000000000000D+00  0.0000000000000D+00
430  4.2900000000000D+00  0.0000000000000D+00  0.0000000000000D+00
431  4.3000000000000D+00  0.0000000000000D+00  0.0000000000000D+00
432  4.3100000000000D+00  0.0000000000000D+00  0.0000000000000D+00
433  4.3200000000000D+00  0.0000000000000D+00  0.0000000000000D+00
434  4.3300000000000D+00  0.0000000000000D+00  0.0000000000000D+00
435  4.3400000000000D+00  0.0000000000000D+00  0.0000000000000D+00
436  4.3500000000000D+00  0.0000000000000D+00  0.0000000000000D+00
437  4.3600000000000D+00  0.0000000000000D+00  0.0000000000000D+00
438  4.3700000000000D+00  0.0000000000000D+00  0.0000000000000D+00
439  4.3800000000000D+00  0.0000000000000D+00  0.0000000000000D+00
440  4.3900000000000D+00  0.0000000000000D+00  0.0000000000000D+00
441  4.4000000000000D+00  0.0000000000000D+00  0.0000000000000D+00
442  4.4100000000000D+00  0.0000000000000D+00  0.0000000000000D+00
443  4.4200000000000D+00  0.0000000000000D+00  0.0000000000000D+00
444  4.4300000000000D+00  0.0000000000000D+00  0.0000000000000D+00