Zr    ONCVPSP  r_core=  1.51  1.46  1.41
40.0000     12.0000      140817    zatom,zion,pspd
8    11     2     4   601     0    pspcod,pspxc,lmax,lloc,mmax,r2well
6.00000000  0.30000000  0.00000000    rchrg fchrg qchrg
2     2     2     0     0    nproj
0                 extension_switch
0                         1.1299350722936D+01  8.1045508027320D-01
1  0.0000000000000D+00 -0.0000000000000D+00 -0.0000000000000D+00
2  1.0000000000000D-02 -5.5356717563011D-02 -3.1136351281658D-02
3  2.0000000000000D-02 -1.1062994086262D-01 -6.2108364120965D-02
4  3.0000000000000D-02 -1.6573646017962D-01 -9.2753198194283D-02
5  4.0000000000000D-02 -2.2059363165154D-01 -1.2291098896686D-01
6  5.0000000000000D-02 -2.7511965217007D-01 -1.5242628475306D-01
7  6.0000000000000D-02 -3.2923382477597D-01 -1.8114942357517D-01
8  7.0000000000000D-02 -3.8285681160650D-01 -2.0893783107645D-01
9  8.0000000000000D-02 -4.3591087163658D-01 -2.3565722185277D-01
10  9.0000000000000D-02 -4.8832008068270D-01 -2.6118268792396D-01
11  1.0000000000000D-01 -5.4001053140837D-01 -2.8539965967251D-01
12  1.1000000000000D-01 -5.9091051136458D-01 -3.0820472634506D-01
13  1.2000000000000D-01 -6.4095065743915D-01 -3.2950630523976D-01
14  1.3000000000000D-01 -6.9006408543637D-01 -3.4922515080228D-01
15  1.4000000000000D-01 -7.3818649390251D-01 -3.6729469719497D-01
16  1.5000000000000D-01 -7.8525624167746D-01 -3.8366123016319D-01
17  1.6000000000000D-01 -8.3121439909579D-01 -3.9828388661072D-01
18  1.7000000000000D-01 -8.7600477311659D-01 -4.1113448262317D-01
19  1.8000000000000D-01 -9.1957390712770D-01 -4.2219717332341D-01
20  1.9000000000000D-01 -9.6187105651164D-01 -4.3146795005563D-01
21  2.0000000000000D-01 -1.0028481414450D+00 -4.3895398340534D-01
22  2.1000000000000D-01 -1.0424596788236D+00 -4.4467282171495D-01
23  2.2000000000000D-01 -1.0806626954824D+00 -4.4865145859732D-01
24  2.3000000000000D-01 -1.1174166251748D+00 -4.5092528258613D-01
25  2.4000000000000D-01 -1.1526831921768D+00 -4.5153692692137D-01
26  2.5000000000000D-01 -1.1864262843845D+00 -4.5053503535689D-01
27  2.6000000000000D-01 -1.2186118191574D+00 -4.4797296421083D-01
28  2.7000000000000D-01 -1.2492076051712D+00 -4.4390743994999D-01
29  2.8000000000000D-01 -1.2781832040448D+00 -4.3839719691751D-01
30  2.9000000000000D-01 -1.3055097945752D+00 -4.3150161007255D-01
31  3.0000000000000D-01 -1.3311600434758D+00 -4.2327934910132D-01
32  3.1000000000000D-01 -1.3551079858921D+00 -4.1378707417508D-01
33  3.2000000000000D-01 -1.3773289192141D+00 -4.0307819719721D-01
34  3.3000000000000D-01 -1.3977993132635D+00 -3.9120172962085D-01
35  3.4000000000000D-01 -1.4164967369551D+00 -3.7820120281836D-01
36  3.5000000000000D-01 -1.4333998125768D+00 -3.6411378062024D-01
37  3.6000000000000D-01 -1.4484881852271D+00 -3.4896940189033D-01
38  3.7000000000000D-01 -1.4617425271187D+00 -3.3279018913741D-01
39  3.8000000000000D-01 -1.4731445629849D+00 -3.1558994278906D-01
40  3.9000000000000D-01 -1.4826771257308D+00 -2.9737382501097D-01
41  4.0000000000000D-01 -1.4903242425312D+00 -2.7813825582584D-01
42  4.1000000000000D-01 -1.4960712485425D+00 -2.5787096774338D-01
43  4.2000000000000D-01 -1.4999049301234D+00 -2.3655125887429D-01
44  4.3000000000000D-01 -1.5018136962318D+00 -2.1415043638416D-01
45  4.4000000000000D-01 -1.5017877766747D+00 -1.9063244700702D-01
46  4.5000000000000D-01 -1.4998194454172D+00 -1.6595468879745D-01
47  4.6000000000000D-01 -1.4959032666640D+00 -1.4006899563025D-01
48  4.7000000000000D-01 -1.4900363608735D+00 -1.1292278295063D-01
49  4.8000000000000D-01 -1.4822186850270D+00 -8.4460333546245D-02
50  4.9000000000000D-01 -1.4724533279725D+00 -5.4624212947638D-02
51  5.0000000000000D-01 -1.4607468273321D+00 -2.3356844573373D-02
52  5.1000000000000D-01 -1.4471094673861D+00  9.3978944802127D-03
53  5.2000000000000D-01 -1.4315555712035D+00  4.3693062034821D-02
54  5.3000000000000D-01 -1.4141038646392D+00  7.9576680113956D-02
55  5.4000000000000D-01 -1.3947777071309D+00  1.1709023256800D-01
56  5.5000000000000D-01 -1.3736054104833D+00  1.5626677276928D-01
57  5.6000000000000D-01 -1.3506205064423D+00  1.9712916465096D-01
58  5.7000000000000D-01 -1.3258619493045D+00  2.3968860568487D-01
59  5.8000000000000D-01 -1.2993743813188D+00  2.8394276281775D-01
60  5.9000000000000D-01 -1.2712082535991D+00  3.2987459711854D-01
61  6.0000000000000D-01 -1.2414199974206D+00  3.7745085292220D-01
62  6.1000000000000D-01 -1.2100721334458D+00  4.2662079910279D-01
63  6.2000000000000D-01 -1.1772332391039D+00  4.7731575448405D-01
64  6.3000000000000D-01 -1.1429780895128D+00  5.2944740139669D-01
65  6.4000000000000D-01 -1.1073874810640D+00  5.8290801973746D-01
66  6.5000000000000D-01 -1.0705481561168D+00  6.3757001333153D-01
67  6.6000000000000D-01 -1.0325527034161D+00  6.9328527475309D-01
68  6.7000000000000D-01 -9.9349926403013D-01  7.4988596778416D-01
69  6.8000000000000D-01 -9.5349128185634D-01  8.0718482478984D-01
70  6.9000000000000D-01 -9.1263718299524D-01  8.6497565398766D-01
71  7.0000000000000D-01 -8.7104997081235D-01  9.2303435084522D-01
72  7.1000000000000D-01 -8.2884678279639D-01  9.8112026618299D-01
73  7.2000000000000D-01 -7.8614839952126D-01  1.0389776013866D+00
74  7.3000000000000D-01 -7.4307871519270D-01  1.0963371105004D+00
75  7.4000000000000D-01 -6.9976412980672D-01  1.1529180291495D+00
76  7.5000000000000D-01 -6.5633288778841D-01  1.2084303123259D+00
77  7.6000000000000D-01 -6.1291445718229D-01  1.2625769423837D+00
78  7.7000000000000D-01 -5.6963881615843D-01  1.3150564430480D+00
79  7.8000000000000D-01 -5.2663572992076D-01  1.3655655345961D+00
80  7.9000000000000D-01 -4.8403400906497D-01  1.4138019016534D+00
81  8.0000000000000D-01 -4.4196075618264D-01  1.4594670427131D+00
82  8.1000000000000D-01 -4.0054060776984D-01  1.5022691689281D+00
83  8.2000000000000D-01 -3.5989497867608D-01  1.5419261185871D+00
84  8.3000000000000D-01 -3.2014131642575D-01  1.5781682529671D+00
85  8.4000000000000D-01 -2.8139237275837D-01  1.6107412989483D+00
86  8.5000000000000D-01 -2.4375549967019D-01  1.6394091038843D+00
87  8.6000000000000D-01 -2.0733197710011D-01  1.6639562687147D+00
88  8.7000000000000D-01 -1.7221637918977D-01  1.6841906261888D+00
89  8.8000000000000D-01 -1.3849598576212D-01  1.6999455323301D+00
90  8.9000000000000D-01 -1.0625024530475D-01  1.7110819409070D+00
91  9.0000000000000D-01 -7.5550295311453D-02  1.7174902327022D+00
92  9.1000000000000D-01 -4.6458545322114D-02  1.7190917738066D+00
93  9.2000000000000D-01 -1.9028327403252D-02  1.7158401800304D+00
94  9.3000000000000D-01  6.6963818810040D-03  1.7077222678602D+00
95  9.4000000000000D-01  3.0681164750036D-02  1.6947586762218D+00
96  9.5000000000000D-01  5.2901288381340D-02  1.6770041476584D+00
97  9.6000000000000D-01  7.3341752625306D-02  1.6545474623949D+00
98  9.7000000000000D-01  9.1997064936606D-02  1.6275104042682D+00
99  9.8000000000000D-01  1.0887169496270D-01  1.5960488529048D+00
100  9.9000000000000D-01  1.2397944414201D-01  1.5603501767038D+00
101  1.0000000000000D+00  1.3734320894370D-01  1.5206318903102D+00
102  1.0100000000000D+00  1.4899469305687D-01  1.4771400462667D+00
103  1.0200000000000D+00  1.5897400017822D-01  1.4301471630591D+00
104  1.0300000000000D+00  1.6732909477701D-01  1.3799497849977D+00
105  1.0400000000000D+00  1.7411547334056D-01  1.3268664600245D+00
106  1.0500000000000D+00  1.7939558618953D-01  1.2712345103414D+00
107  1.0600000000000D+00  1.8323791367606D-01  1.2134065097076D+00
108  1.0700000000000D+00  1.8571643120584D-01  1.1537474139922D+00
109  1.0800000000000D+00  1.8690997032012D-01  1.0926318731336D+00
110  1.0900000000000D+00  1.8690154866172D-01  1.0304404708993D+00
111  1.1000000000000D+00  1.8577730868487D-01  9.6755456279627D-01
112  1.1100000000000D+00  1.8362591977304D-01  9.0435452092556D-01
113  1.1200000000000D+00  1.8053794555108D-01  8.4121667253834D-01
114  1.1300000000000D+00  1.7660533842240D-01  7.7851110827344D-01
115  1.1400000000000D+00  1.7191945873197D-01  7.1659128881871D-01
116  1.1500000000000D+00  1.6657147929424D-01  6.5579794334523D-01
117  1.1600000000000D+00  1.6065187253130D-01  5.9645660939447D-01
118  1.1700000000000D+00  1.5424925654529D-01  5.3887196093944D-01
119  1.1800000000000D+00  1.4744868983832D-01  4.8332001830135D-01
120  1.1900000000000D+00  1.4033279399510D-01  4.3005481705284D-01
121  1.2000000000000D+00  1.3298206940698D-01  3.7931006538028D-01
122  1.2100000000000D+00  1.2547046468392D-01  3.3127795594531D-01
123  1.2200000000000D+00  1.1786827125710D-01  2.8612453401338D-01
124  1.2300000000000D+00  1.1024247341657D-01  2.4399137177403D-01
125  1.2400000000000D+00  1.0265336289466D-01  2.0498021100442D-01
126  1.2500000000000D+00  9.5155499286861D-02  1.6915881435016D-01
127  1.2600000000000D+00  8.7799994757693D-02  1.3657148345584D-01
128  1.2700000000000D+00  8.0631128368220D-02  1.0722448026596D-01
129  1.2800000000000D+00  7.3686713448879D-02  8.1089439984046D-02
130  1.2900000000000D+00  6.7001465728519D-02  5.8117636368193D-02
131  1.3000000000000D+00  6.0602914095614D-02  3.8223905339134D-02
132  1.3100000000000D+00  5.4512938971391D-02  2.1295158413453D-02
133  1.3200000000000D+00  4.8750852736170D-02  7.2014203824286D-03
134  1.3300000000000D+00  4.3328423504056D-02 -4.2202444090366D-03
135  1.3400000000000D+00  3.8253874766609D-02 -1.3149372393143D-02
136  1.3500000000000D+00  3.3532942334846D-02 -1.9780908812266D-02
137  1.3600000000000D+00  2.9164449635566D-02 -2.4332540508477D-02
138  1.3700000000000D+00  2.5146115828117D-02 -2.7029729830945D-02
139  1.3800000000000D+00  2.1471817095718D-02 -2.8111772739180D-02
140  1.3900000000000D+00  1.8132067991748D-02 -2.7823874855541D-02
141  1.4000000000000D+00  1.5116305463433D-02 -2.6420124079868D-02
142  1.4100000000000D+00  1.2410288963120D-02 -2.4155114951581D-02
143  1.4200000000000D+00  1.0000092863951D-02 -2.1279265337284D-02
144  1.4300000000000D+00  7.8705773848649D-03 -1.8040272898933D-02
145  1.4400000000000D+00  6.0099680983058D-03 -1.4647449165044D-02
146  1.4500000000000D+00  4.4054714693052D-03 -1.1319756695255D-02
147  1.4600000000000D+00  3.0503529157953D-03 -8.2131011046996D-03
148  1.4700000000000D+00  1.9376841593246D-03 -5.4876056055743D-03
149  1.4800000000000D+00  1.0652351967520D-03 -3.2584143799149D-03
150  1.4900000000000D+00  4.3428931945337D-04 -1.6104370165452D-03
151  1.5000000000000D+00  6.8486115417611D-05 -6.8896845328570D-04
152  1.5100000000000D+00 -8.3391578670360D-05 -2.7454036400242D-04
153  1.5200000000000D+00 -6.3734248628247D-05 -5.6633923624879D-05
154  1.5300000000000D+00  2.4666605377666D-06  8.0453880366313D-06
155  1.5400000000000D+00  4.5377002431982D-06  1.4800398632680D-05
156  1.5500000000000D+00  0.0000000000000D+00  0.0000000000000D+00
157  1.5600000000000D+00  0.0000000000000D+00  0.0000000000000D+00
158  1.5700000000000D+00  0.0000000000000D+00  0.0000000000000D+00
159  1.5800000000000D+00  0.0000000000000D+00  0.0000000000000D+00
160  1.5900000000000D+00  0.0000000000000D+00  0.0000000000000D+00
161  1.6000000000000D+00  0.0000000000000D+00  0.0000000000000D+00
162  1.6100000000000D+00  0.0000000000000D+00  0.0000000000000D+00
163  1.6200000000000D+00  0.0000000000000D+00  0.0000000000000D+00
164  1.6300000000000D+00  0.0000000000000D+00  0.0000000000000D+00
165  1.6400000000000D+00  0.0000000000000D+00  0.0000000000000D+00
166  1.6500000000000D+00  0.0000000000000D+00  0.0000000000000D+00
167  1.6600000000000D+00  0.0000000000000D+00  0.0000000000000D+00
168  1.6700000000000D+00  0.0000000000000D+00  0.0000000000000D+00
169  1.6800000000000D+00  0.0000000000000D+00  0.0000000000000D+00
170  1.6900000000000D+00  0.0000000000000D+00  0.0000000000000D+00
171  1.7000000000000D+00  0.0000000000000D+00  0.0000000000000D+00
172  1.7100000000000D+00  0.0000000000000D+00  0.0000000000000D+00
173  1.7200000000000D+00  0.0000000000000D+00  0.0000000000000D+00
174  1.7300000000000D+00  0.0000000000000D+00  0.0000000000000D+00
175  1.7400000000000D+00  0.0000000000000D+00  0.0000000000000D+00
176  1.7500000000000D+00  0.0000000000000D+00  0.0000000000000D+00
177  1.7600000000000D+00  0.0000000000000D+00  0.0000000000000D+00
178  1.7700000000000D+00  0.0000000000000D+00  0.0000000000000D+00
179  1.7800000000000D+00  0.0000000000000D+00  0.0000000000000D+00
180  1.7900000000000D+00  0.0000000000000D+00  0.0000000000000D+00
181  1.8000000000000D+00  0.0000000000000D+00  0.0000000000000D+00
182  1.8100000000000D+00  0.0000000000000D+00  0.0000000000000D+00
183  1.8200000000000D+00  0.0000000000000D+00  0.0000000000000D+00
184  1.8300000000000D+00  0.0000000000000D+00  0.0000000000000D+00
185  1.8400000000000D+00  0.0000000000000D+00  0.0000000000000D+00
186  1.8500000000000D+00  0.0000000000000D+00  0.0000000000000D+00
187  1.8600000000000D+00  0.0000000000000D+00  0.0000000000000D+00
188  1.8700000000000D+00  0.0000000000000D+00  0.0000000000000D+00
189  1.8800000000000D+00  0.0000000000000D+00  0.0000000000000D+00
190  1.8900000000000D+00  0.0000000000000D+00  0.0000000000000D+00
191  1.9000000000000D+00  0.0000000000000D+00  0.0000000000000D+00
192  1.9100000000000D+00  0.0000000000000D+00  0.0000000000000D+00
193  1.9200000000000D+00  0.0000000000000D+00  0.0000000000000D+00
194  1.9300000000000D+00  0.0000000000000D+00  0.0000000000000D+00
195  1.9400000000000D+00  0.0000000000000D+00  0.0000000000000D+00
196  1.9500000000000D+00  0.0000000000000D+00  0.0000000000000D+00
197  1.9600000000000D+00  0.0000000000000D+00  0.0000000000000D+00
198  1.9700000000000D+00  0.0000000000000D+00  0.0000000000000D+00
199  1.9800000000000D+00  0.0000000000000D+00  0.0000000000000D+00
200  1.9900000000000D+00  0.0000000000000D+00  0.0000000000000D+00
201  2.0000000000000D+00  0.0000000000000D+00  0.0000000000000D+00
202  2.0100000000000D+00  0.0000000000000D+00  0.0000000000000D+00
203  2.0200000000000D+00  0.0000000000000D+00  0.0000000000000D+00
204  2.0300000000000D+00  0.0000000000000D+00  0.0000000000000D+00
205  2.0400000000000D+00  0.0000000000000D+00  0.0000000000000D+00
206  2.0500000000000D+00  0.0000000000000D+00  0.0000000000000D+00
207  2.0600000000000D+00  0.0000000000000D+00  0.0000000000000D+00
208  2.0700000000000D+00  0.0000000000000D+00  0.0000000000000D+00
209  2.0800000000000D+00  0.0000000000000D+00  0.0000000000000D+00
210  2.0900000000000D+00  0.0000000000000D+00  0.0000000000000D+00
211  2.1000000000000D+00  0.0000000000000D+00  0.0000000000000D+00
212  2.1100000000000D+00  0.0000000000000D+00  0.0000000000000D+00
213  2.1200000000000D+00  0.0000000000000D+00  0.0000000000000D+00
214  2.1300000000000D+00  0.0000000000000D+00  0.0000000000000D+00
215  2.1400000000000D+00  0.0000000000000D+00  0.0000000000000D+00
216  2.1500000000000D+00  0.0000000000000D+00  0.0000000000000D+00
217  2.1600000000000D+00  0.0000000000000D+00  0.0000000000000D+00
218  2.1700000000000D+00  0.0000000000000D+00  0.0000000000000D+00
219  2.1800000000000D+00  0.0000000000000D+00  0.0000000000000D+00
220  2.1900000000000D+00  0.0000000000000D+00  0.0000000000000D+00
221  2.2000000000000D+00  0.0000000000000D+00  0.0000000000000D+00
222  2.2100000000000D+00  0.0000000000000D+00  0.0000000000000D+00
223  2.2200000000000D+00  0.0000000000000D+00  0.0000000000000D+00
224  2.2300000000000D+00  0.0000000000000D+00  0.0000000000000D+00
225  2.2400000000000D+00  0.0000000000000D+00  0.0000000000000D+00
226  2.2500000000000D+00  0.0000000000000D+00  0.0000000000000D+00
227  2.2600000000000D+00  0.0000000000000D+00  0.0000000000000D+00
228  2.2700000000000D+00  0.0000000000000D+00  0.0000000000000D+00
229  2.2800000000000D+00  0.0000000000000D+00  0.0000000000000D+00
230  2.2900000000000D+00  0.0000000000000D+00  0.0000000000000D+00
231  2.3000000000000D+00  0.0000000000000D+00  0.0000000000000D+00
232  2.3100000000000D+00  0.0000000000000D+00  0.0000000000000D+00
233  2.3200000000000D+00  0.0000000000000D+00  0.0000000000000D+00
234  2.3300000000000D+00  0.0000000000000D+00  0.0000000000000D+00
235  2.3400000000000D+00  0.0000000000000D+00  0.0000000000000D+00
236  2.3500000000000D+00  0.0000000000000D+00  0.0000000000000D+00
237  2.3600000000000D+00  0.0000000000000D+00  0.0000000000000D+00
238  2.3700000000000D+00  0.0000000000000D+00  0.0000000000000D+00
239  2.3800000000000D+00  0.0000000000000D+00  0.0000000000000D+00
240  2.3900000000000D+00  0.0000000000000D+00  0.0000000000000D+00
241  2.4000000000000D+00  0.0000000000000D+00  0.0000000000000D+00
242  2.4100000000000D+00  0.0000000000000D+00  0.0000000000000D+00
243  2.4200000000000D+00  0.0000000000000D+00  0.0000000000000D+00
244  2.4300000000000D+00  0.0000000000000D+00  0.0000000000000D+00
245  2.4400000000000D+00  0.0000000000000D+00  0.0000000000000D+00
246  2.4500000000000D+00  0.0000000000000D+00  0.0000000000000D+00
247  2.4600000000000D+00  0.0000000000000D+00  0.0000000000000D+00
248  2.4700000000000D+00  0.0000000000000D+00  0.0000000000000D+00
249  2.4800000000000D+00  0.0000000000000D+00  0.0000000000000D+00
250  2.4900000000000D+00  0.0000000000000D+00  0.0000000000000D+00
251  2.5000000000000D+00  0.0000000000000D+00  0.0000000000000D+00
252  2.5100000000000D+00  0.0000000000000D+00  0.0000000000000D+00
253  2.5200000000000D+00  0.0000000000000D+00  0.0000000000000D+00
254  2.5300000000000D+00  0.0000000000000D+00  0.0000000000000D+00
255  2.5400000000000D+00  0.0000000000000D+00  0.0000000000000D+00
256  2.5500000000000D+00  0.0000000000000D+00  0.0000000000000D+00
257  2.5600000000000D+00  0.0000000000000D+00  0.0000000000000D+00
258  2.5700000000000D+00  0.0000000000000D+00  0.0000000000000D+00
259  2.5800000000000D+00  0.0000000000000D+00  0.0000000000000D+00
260  2.5900000000000D+00  0.0000000000000D+00  0.0000000000000D+00
261  2.6000000000000D+00  0.0000000000000D+00  0.0000000000000D+00
262  2.6100000000000D+00  0.0000000000000D+00  0.0000000000000D+00
263  2.6200000000000D+00  0.0000000000000D+00  0.0000000000000D+00
264  2.6300000000000D+00  0.0000000000000D+00  0.0000000000000D+00
265  2.6400000000000D+00  0.0000000000000D+00  0.0000000000000D+00
266  2.6500000000000D+00  0.0000000000000D+00  0.0000000000000D+00
267  2.6600000000000D+00  0.0000000000000D+00  0.0000000000000D+00
268  2.6700000000000D+00  0.0000000000000D+00  0.0000000000000D+00
269  2.6800000000000D+00  0.0000000000000D+00  0.0000000000000D+00
270  2.6900000000000D+00  0.0000000000000D+00  0.0000000000000D+00
271  2.7000000000000D+00  0.0000000000000D+00  0.0000000000000D+00
272  2.7100000000000D+00  0.0000000000000D+00  0.0000000000000D+00
273  2.7200000000000D+00  0.0000000000000D+00  0.0000000000000D+00
274  2.7300000000000D+00  0.0000000000000D+00  0.0000000000000D+00
275  2.7400000000000D+00  0.0000000000000D+00  0.0000000000000D+00
276  2.7500000000000D+00  0.0000000000000D+00  0.0000000000000D+00
277  2.7600000000000D+00  0.0000000000000D+00  0.0000000000000D+00
278  2.7700000000000D+00  0.0000000000000D+00  0.0000000000000D+00
279  2.7800000000000D+00  0.0000000000000D+00  0.0000000000000D+00
280  2.7900000000000D+00  0.0000000000000D+00  0.0000000000000D+00
281  2.8000000000000D+00  0.0000000000000D+00  0.0000000000000D+00
282  2.8100000000000D+00  0.0000000000000D+00  0.0000000000000D+00
283  2.8200000000000D+00  0.0000000000000D+00  0.0000000000000D+00
284  2.8300000000000D+00  0.0000000000000D+00  0.0000000000000D+00
285  2.8400000000000D+00  0.0000000000000D+00  0.0000000000000D+00
286  2.8500000000000D+00  0.0000000000000D+00  0.0000000000000D+00
287  2.8600000000000D+00  0.0000000000000D+00  0.0000000000000D+00
288  2.8700000000000D+00  0.0000000000000D+00  0.0000000000000D+00
289  2.8800000000000D+00  0.0000000000000D+00  0.0000000000000D+00
290  2.8900000000000D+00  0.0000000000000D+00  0.0000000000000D+00
291  2.9000000000000D+00  0.0000000000000D+00  0.0000000000000D+00
292  2.9100000000000D+00  0.0000000000000D+00  0.0000000000000D+00
293  2.9200000000000D+00  0.0000000000000D+00  0.0000000000000D+00
294  2.9300000000000D+00  0.0000000000000D+00  0.0000000000000D+00
295  2.9400000000000D+00  0.0000000000000D+00  0.0000000000000D+00
296  2.9500000000000D+00  0.0000000000000D+00  0.0000000000000D+00
297  2.9600000000000D+00  0.0000000000000D+00  0.0000000000000D+00
298  2.9700000000000D+00  0.0000000000000D+00  0.0000000000000D+00
299  2.9800000000000D+00  0.0000000000000D+00  0.0000000000000D+00
300  2.9900000000000D+00  0.0000000000000D+00  0.0000000000000D+00
301  3.0000000000000D+00  0.0000000000000D+00  0.0000000000000D+00
302  3.0100000000000D+00  0.0000000000000D+00  0.0000000000000D+00
303  3.0200000000000D+00  0.0000000000000D+00  0.0000000000000D+00
304  3.0300000000000D+00  0.0000000000000D+00  0.0000000000000D+00
305  3.0400000000000D+00  0.0000000000000D+00  0.0000000000000D+00
306  3.0500000000000D+00  0.0000000000000D+00  0.0000000000000D+00
307  3.0600000000000D+00  0.0000000000000D+00  0.0000000000000D+00
308  3.0700000000000D+00  0.0000000000000D+00  0.0000000000000D+00
309  3.0800000000000D+00  0.0000000000000D+00  0.0000000000000D+00
310  3.0900000000000D+00  0.0000000000000D+00  0.0000000000000D+00
311  3.1000000000000D+00  0.0000000000000D+00  0.0000000000000D+00
312  3.1100000000000D+00  0.0000000000000D+00  0.0000000000000D+00
313  3.1200000000000D+00  0.0000000000000D+00  0.0000000000000D+00
314  3.1300000000000D+00  0.0000000000000D+00  0.0000000000000D+00
315  3.1400000000000D+00  0.0000000000000D+00  0.0000000000000D+00
316  3.1500000000000D+00  0.0000000000000D+00  0.0000000000000D+00
317  3.1600000000000D+00  0.0000000000000D+00  0.0000000000000D+00
318  3.1700000000000D+00  0.0000000000000D+00  0.0000000000000D+00
319  3.1800000000000D+00  0.0000000000000D+00  0.0000000000000D+00
320  3.1900000000000D+00  0.0000000000000D+00  0.0000000000000D+00
321  3.2000000000000D+00  0.0000000000000D+00  0.0000000000000D+00
322  3.2100000000000D+00  0.0000000000000D+00  0.0000000000000D+00
323  3.2200000000000D+00  0.0000000000000D+00  0.0000000000000D+00
324  3.2300000000000D+00  0.0000000000000D+00  0.0000000000000D+00
325  3.2400000000000D+00  0.0000000000000D+00  0.0000000000000D+00
326  3.2500000000000D+00  0.0000000000000D+00  0.0000000000000D+00
327  3.2600000000000D+00  0.0000000000000D+00  0.0000000000000D+00
328  3.2700000000000D+00  0.0000000000000D+00  0.0000000000000D+00
329  3.2800000000000D+00  0.0000000000000D+00  0.0000000000000D+00
330  3.2900000000000D+00  0.0000000000000D+00  0.0000000000000D+00
331  3.3000000000000D+00  0.0000000000000D+00  0.0000000000000D+00
332  3.3100000000000D+00  0.0000000000000D+00  0.0000000000000D+00
333  3.3200000000000D+00  0.0000000000000D+00  0.0000000000000D+00
334  3.3300000000000D+00  0.0000000000000D+00  0.0000000000000D+00
335  3.3400000000000D+00  0.0000000000000D+00  0.0000000000000D+00
336  3.3500000000000D+00  0.0000000000000D+00  0.0000000000000D+00
337  3.3600000000000D+00  0.0000000000000D+00  0.0000000000000D+00
338  3.3700000000000D+00  0.0000000000000D+00  0.0000000000000D+00
339  3.3800000000000D+00  0.0000000000000D+00  0.0000000000000D+00
340  3.3900000000000D+00  0.0000000000000D+00  0.0000000000000D+00
341  3.4000000000000D+00  0.0000000000000D+00  0.0000000000000D+00
342  3.4100000000000D+00  0.0000000000000D+00  0.0000000000000D+00
343  3.4200000000000D+00  0.0000000000000D+00  0.0000000000000D+00
344  3.4300000000000D+00  0.0000000000000D+00  0.0000000000000D+00
345  3.4400000000000D+00  0.0000000000000D+00  0.0000000000000D+00
346  3.4500000000000D+00  0.0000000000000D+00  0.0000000000000D+00
347  3.4600000000000D+00  0.0000000000000D+00  0.0000000000000D+00
348  3.4700000000000D+00  0.0000000000000D+00  0.0000000000000D+00
349  3.4800000000000D+00  0.0000000000000D+00  0.0000000000000D+00
350  3.4900000000000D+00  0.0000000000000D+00  0.0000000000000D+00
351  3.5000000000000D+00  0.0000000000000D+00  0.0000000000000D+00
352  3.5100000000000D+00  0.0000000000000D+00  0.0000000000000D+00
353  3.5200000000000D+00  0.0000000000000D+00  0.0000000000000D+00
354  3.5300000000000D+00  0.0000000000000D+00  0.0000000000000D+00
355  3.5400000000000D+00  0.0000000000000D+00  0.0000000000000D+00
356  3.5500000000000D+00  0.0000000000000D+00  0.0000000000000D+00
357  3.5600000000000D+00  0.0000000000000D+00  0.0000000000000D+00
358  3.5700000000000D+00  0.0000000000000D+00  0.0000000000000D+00
359  3.5800000000000D+00  0.0000000000000D+00  0.0000000000000D+00
360  3.5900000000000D+00  0.0000000000000D+00  0.0000000000000D+00
361  3.6000000000000D+00  0.0000000000000D+00  0.0000000000000D+00
362  3.6100000000000D+00  0.0000000000000D+00  0.0000000000000D+00
363  3.6200000000000D+00  0.0000000000000D+00  0.0000000000000D+00
364  3.6300000000000D+00  0.0000000000000D+00  0.0000000000000D+00
365  3.6400000000000D+00  0.0000000000000D+00  0.0000000000000D+00
366  3.6500000000000D+00  0.0000000000000D+00  0.0000000000000D+00
367  3.6600000000000D+00  0.0000000000000D+00  0.0000000000000D+00
368  3.6700000000000D+00  0.0000000000000D+00  0.0000000000000D+00
369  3.6800000000000D+00  0.0000000000000D+00  0.0000000000000D+00
370  3.6900000000000D+00  0.0000000000000D+00  0.0000000000000D+00
371  3.7000000000000D+00  0.0000000000000D+00  0.0000000000000D+00
372  3.7100000000000D+00  0.0000000000000D+00  0.0000000000000D+00
373  3.7200000000000D+00  0.0000000000000D+00  0.0000000000000D+00
374  3.7300000000000D+00  0.0000000000000D+00  0.0000000000000D+00
375  3.7400000000000D+00  0.0000000000000D+00  0.0000000000000D+00
376  3.7500000000000D+00  0.0000000000000D+00  0.0000000000000D+00
377  3.7600000000000D+00  0.0000000000000D+00  0.0000000000000D+00
378  3.7700000000000D+00  0.0000000000000D+00  0.0000000000000D+00
379  3.7800000000000D+00  0.0000000000000D+00  0.0000000000000D+00
380  3.7900000000000D+00  0.0000000000000D+00  0.0000000000000D+00
381  3.8000000000000D+00  0.0000000000000D+00  0.0000000000000D+00
382  3.8100000000000D+00  0.0000000000000D+00  0.0000000000000D+00
383  3.8200000000000D+00  0.0000000000000D+00  0.0000000000000D+00
384  3.8300000000000D+00  0.0000000000000D+00  0.0000000000000D+00
385  3.8400000000000D+00  0.0000000000000D+00  0.0000000000000D+00
386  3.8500000000000D+00  0.0000000000000D+00  0.0000000000000D+00
387  3.8600000000000D+00  0.0000000000000D+00  0.0000000000000D+00
388  3.8700000000000D+00  0.0000000000000D+00  0.0000000000000D+00
389  3.8800000000000D+00  0.0000000000000D+00  0.0000000000000D+00
390  3.8900000000000D+00  0.0000000000000D+00  0.0000000000000D+00
391  3.9000000000000D+00  0.0000000000000D+00  0.0000000000000D+00
392  3.9100000000000D+00  0.0000000000000D+00  0.0000000000000D+00
393  3.9200000000000D+00  0.0000000000000D+00  0.0000000000000D+00
394  3.9300000000000D+00  0.0000000000000D+00  0.0000000000000D+00
395  3.9400000000000D+00  0.0000000000000D+00  0.0000000000000D+00
396  3.9500000000000D+00  0.0000000000000D+00  0.0000000000000D+00
397  3.9600000000000D+00  0.0000000000000D+00  0.0000000000000D+00
398  3.9700000000000D+00  0.0000000000000D+00  0.0000000000000D+00
399  3.9800000000000D+00  0.0000000000000D+00  0.0000000000000D+00
400  3.9900000000000D+00  0.0000000000000D+00  0.0000000000000D+00
401  4.0000000000000D+00  0.0000000000000D+00  0.0000000000000D+00
402  4.0100000000000D+00  0.0000000000000D+00  0.0000000000000D+00
403  4.0200000000000D+00  0.0000000000000D+00  0.0000000000000D+00
404  4.0300000000000D+00  0.0000000000000D+00  0.0000000000000D+00
405  4.0400000000000D+00  0.0000000000000D+00  0.0000000000000D+00
406  4.0500000000000D+00  0.0000000000000D+00  0.0000000000000D+00
407  4.0600000000000D+00  0.0000000000000D+00  0.0000000000000D+00
408  4.0700000000000D+00  0.0000000000000D+00  0.0000000000000D+00
409  4.0800000000000D+00  0.0000000000000D+00  0.0000000000000D+00
410  4.0900000000000D+00  0.0000000000000D+00  0.0000000000000D+00
411  4.1000000000000D+00  0.0000000000000D+00  0.0000000000000D+00
412  4.1100000000000D+00  0.0000000000000D+00  0.0000000000000D+00
413  4.1200000000000D+00  0.0000000000000D+00  0.0000000000000D+00
414  4.1300000000000D+00  0.0000000000000D+00  0.0000000000000D+00
415  4.1400000000000D+00  0.0000000000000D+00  0.0000000000000D+00
416  4.1500000000000D+00  0.0000000000000D+00  0.0000000000000D+00
417  4.1600000000000D+00  0.0000000000000D+00  0.0000000000000D+00
418  4.1700000000000D+00  0.0000000000000D+00  0.0000000000000D+00
419  4.1800000000000D+00  0.0000000000000D+00  0.0000000000000D+00
420  4.1900000000000D+00  0.0000000000000D+00  0.0000000000000D+00
421  4.2000000000000D+00  0.0000000000000D+00  0.0000000000000D+00
422  4.2100000000000D+00  0.0000000000000D+00  0.0000000000000D+00
423  4.2200000000000D+00  0.0000000000000D+00  0.0000000000000D+00
424  4.2300000000000D+00  0.0000000000000D+00  0.0000000000000D+00
425  4.2400000000000D+00  0.0000000000000D+00  0.0000000000000D+00
426  4.2500000000000D+00  0.0000000000000D+00  0.0000000000000D+00
427  4.2600000000000D+00  0.0000000000000D+00  0.0000000000000D+00
428  4.2700000000000D+00  0.0000000000000D+00  0.0000000000000D+00
429  4.2800000000000D+00  0.0000000000000D+00  0.0000000000000D+00
430  4.2900000000000D+00  0.0000000000000D+00  0.0000000000000D+00
431  4.3000000000000D+00  0.0000000000000D+00  0.0000000000000D+00
432  4.3100000000000D+00  0.0000000000000D+00  0.0000000000000D+00
433  4.3200000000000D+00  0.0000000000000D+00  0.0000000000000D+00
434  4.3300000000000D+00  0.0000000000000D+00  0.0000000000000D+00
435  4.3400000000000D+00  0.0000000000000D+00  0.0000000000000D+00
436  4.3500000000000D+00  0.0000000000000D+00  0.0000000000000D+00
437  4.3600000000000D+00  0.0000000000000D+00  0.0000000000000D+00
438  4.3700000000000D+00  0.0000000000000D+00  0.0000000000000D+00
439  4.3800000000000D+00  0.0000000000000D+00  0.0000000000000D+00
440  4.3900000000000D+00  0.0000000000000D+00  0.0000000000000D+00
441  4.4000000000000D+00  0.0000000000000D+00  0.0000000000000D+00
442  4.4100000000000D+00  0.0000000000000D+00  0.0000000000000D+00
443  4.4200000000000D+00  0.0000000000000D+00  0.0000000000000D+00
444  4.4300000000000D+00  0.0000000000000D+00  0.0000000000000D+00