Ce    ONCVPSP  r_core=  2.01  1.60  1.87  1.66
58.0000     12.0000      160625    zatom,zion,pspd
8      11   3     4   600     0    pspcod,pspxc,lmax,lloc,mmax,r2well
5.99000000  0.25000000  0.00000000    rchrg fchrg qchrg
2     2     2     2     0    nproj
1                 extension_switch
0                         7.0681108558682D+00  5.8415115716888D-01
1  0.0000000000000D+00 -1.5019652188641D-11  1.0700572372624D-10
2  1.0000000000000D-02  3.3562694728327D-02 -1.3807681669503D-02
3  2.0000000000000D-02  6.7102717006492D-02 -2.7548627614914D-02
4  3.0000000000000D-02  1.0059743199199D-01 -4.1156572352615D-02
5  4.0000000000000D-02  1.3402427967650D-01 -5.4566187176486D-02
6  5.0000000000000D-02  1.6736081135402D-01 -6.7713539315160D-02
7  6.0000000000000D-02  2.0058472496086D-01 -8.0536540087405D-02
8  7.0000000000000D-02  2.3367389892920D-01 -9.2975378514260D-02
9  8.0000000000000D-02  2.6660642421098D-01 -1.0497293695357D-01
10  9.0000000000000D-02  2.9936063414710D-01 -1.1647518545476D-01
11  1.0000000000000D-01  3.3191513187937D-01 -1.2743155168896D-01
12  1.1000000000000D-01  3.6424881502718D-01 -1.3779526348950D-01
13  1.2000000000000D-01  3.9634089737960D-01 -1.4752366124153D-01
14  1.3000000000000D-01  4.2817092738415D-01 -1.5657847758255D-01
15  1.4000000000000D-01  4.5971880324725D-01 -1.6492608211992D-01
16  1.5000000000000D-01  4.9096478449705D-01 -1.7253768913248D-01
17  1.6000000000000D-01  5.2188949989731D-01 -1.7938952650148D-01
18  1.7000000000000D-01  5.5247395164019D-01 -1.8546296440784D-01
19  1.8000000000000D-01  5.8269951578701D-01 -1.9074460263766D-01
20  1.9000000000000D-01  6.1254793896780D-01 -1.9522631565255D-01
21  2.0000000000000D-01  6.4200133139277D-01 -1.9890525490462D-01
22  2.1000000000000D-01  6.7104215627218D-01 -2.0178380820476D-01
23  2.2000000000000D-01  6.9965321578336D-01 -2.0386951628581D-01
24  2.3000000000000D-01  7.2781763376619D-01 -2.0517494703589D-01
25  2.4000000000000D-01  7.5551883536988D-01 -2.0571752821025D-01
26  2.5000000000000D-01  7.8274052391392D-01 -2.0551933975911D-01
27  2.6000000000000D-01  8.0946665526475D-01 -2.0460686723268D-01
28  2.7000000000000D-01  8.3568141006656D-01 -2.0301071803909D-01
29  2.8000000000000D-01  8.6136916419831D-01 -2.0076530263593D-01
30  2.9000000000000D-01  8.8651445786120D-01 -1.9790848302670D-01
31  3.0000000000000D-01  9.1110196372877D-01 -1.9448119120963D-01
32  3.1000000000000D-01  9.3511645461690D-01 -1.9052702048450D-01
33  3.2000000000000D-01  9.5854277115226D-01 -1.8609179276148D-01
34  3.3000000000000D-01  9.8136578993503D-01 -1.8122310523293D-01
35  3.4000000000000D-01  1.0035703927043D+00 -1.7596985996177D-01
36  3.5000000000000D-01  1.0251414370233D+00 -1.7038178010820D-01
37  3.6000000000000D-01  1.0460637290048D+00 -1.6450891665669D-01
38  3.7000000000000D-01  1.0663219985963D+00 -1.5840114961748D-01
39  3.8000000000000D-01  1.0859008779372D+00 -1.5210768775945D-01
40  3.9000000000000D-01  1.1047848832903D+00 -1.4567657098249D-01
41  4.0000000000000D-01  1.1229584010304D+00 -1.3915417945793D-01
42  4.1000000000000D-01  1.1404056781552D+00 -1.3258475365319D-01
43  4.2000000000000D-01  1.1571108177508D+00 -1.2600992931242D-01
44  4.3000000000000D-01  1.1730577798172D+00 -1.1946829138675D-01
45  4.4000000000000D-01  1.1882303878188D+00 -1.1299495079875D-01
46  4.5000000000000D-01  1.2026123412827D+00 -1.0662114778219D-01
47  4.6000000000000D-01  1.2161872347230D+00 -1.0037388536540D-01
48  4.7000000000000D-01  1.2289385831158D+00 -9.4275596360926D-02
49  4.8000000000000D-01  1.2408498540966D+00 -8.8343846990955D-02
50  4.9000000000000D-01  1.2519045069908D+00 -8.2591080014950D-02
51  5.0000000000000D-01  1.2620860387291D+00 -7.7024399937993D-02
52  5.1000000000000D-01  1.2713780366313D+00 -7.1645402564479D-02
53  5.2000000000000D-01  1.2797642379784D+00 -6.6450050827175D-02
54  5.3000000000000D-01  1.2872285962213D+00 -6.1428598465775D-02
55  5.4000000000000D-01  1.2937553536074D+00 -5.6565562756707D-02
56  5.5000000000000D-01  1.2993291199322D+00 -5.1839747109739D-02
57  5.6000000000000D-01  1.3039349570574D+00 -4.7224313947105D-02
58  5.7000000000000D-01  1.3075584687626D+00 -4.2686907876794D-02
59  5.8000000000000D-01  1.3101858954330D+00 -3.8189828757814D-02
60  5.9000000000000D-01  1.3118042130189D+00 -3.3690253845095D-02
61  6.0000000000000D-01  1.3124012356366D+00 -2.9140507789161D-02
62  6.1000000000000D-01  1.3119657211261D+00 -2.4488378862886D-02
63  6.2000000000000D-01  1.3104874788201D+00 -1.9677479390794D-02
64  6.3000000000000D-01  1.3079574787317D+00 -1.4647647975292D-02
65  6.4000000000000D-01  1.3043679613220D+00 -9.3353907484706D-03
66  6.5000000000000D-01  1.2997125469709D+00 -3.6743585317368D-03
67  6.6000000000000D-01  1.2939863442409D+00  2.4041435348555D-03
68  6.7000000000000D-01  1.2871860560012D+00  8.9706176275118D-03
69  6.8000000000000D-01  1.2793100824617D+00  1.6096810137185D-02
70  6.9000000000000D-01  1.2703586201582D+00  2.3855128062318D-02
71  7.0000000000000D-01  1.2603337559315D+00  3.2318039323753D-02
72  7.1000000000000D-01  1.2492395549518D+00  4.1557461589033D-02
73  7.2000000000000D-01  1.2370821418593D+00  5.1644144311681D-02
74  7.3000000000000D-01  1.2238697741209D+00  6.2647048769478D-02
75  7.4000000000000D-01  1.2096129067395D+00  7.4632730920099D-02
76  7.5000000000000D-01  1.1943242475012D+00  8.7664731883832D-02
77  7.6000000000000D-01  1.1780188020028D+00  1.0180298081003D-01
78  7.7000000000000D-01  1.1607139077673D+00  1.1710321478669D-01
79  7.8000000000000D-01  1.1424292568314D+00  1.3361642031175D-01
80  7.9000000000000D-01  1.1231869062711D+00  1.5138830066066D-01
81  8.0000000000000D-01  1.1030112762250D+00  1.7045877325986D-01
82  8.1000000000000D-01  1.0819291350720D+00  1.9086150091068D-01
83  8.2000000000000D-01  1.0599695715249D+00  2.1262346040688D-01
84  8.3000000000000D-01  1.0371639535159D+00  2.3576455175195D-01
85  8.4000000000000D-01  1.0135458738599D+00  2.6029725081599D-01
86  8.5000000000000D-01  9.8915108280586D-01  2.8622630787655D-01
87  8.6000000000000D-01  9.6401740770607D-01  3.1354849407113D-01
88  8.7000000000000D-01  9.3818466015480D-01  3.4225239735191D-01
89  8.8000000000000D-01  9.1169453107376D-01  3.7231826908442D-01
90  8.9000000000000D-01  8.8459047434112D-01  4.0371792197262D-01
91  9.0000000000000D-01  8.5691757968024D-01  4.3641467953266D-01
92  9.1000000000000D-01  8.2872243563933D-01  4.7036337687774D-01
93  9.2000000000000D-01  8.0005298360130D-01  5.0551041212761D-01
94  9.3000000000000D-01  7.7095836386552D-01  5.4179384731948D-01
95  9.4000000000000D-01  7.4148875493574D-01  5.7914355728209D-01
96  9.5000000000000D-01  7.1169520723174D-01  6.1748142454517D-01
97  9.6000000000000D-01  6.8162947251354D-01  6.5672157799865D-01
98  9.7000000000000D-01  6.5134383036600D-01  6.9677067269570D-01
99  9.8000000000000D-01  6.2089091313596D-01  7.3752820791584D-01
100  9.9000000000000D-01  5.9032353074348D-01  7.7888688037240D-01
101  1.0000000000000D+00  5.5969449680164D-01  8.2073296927343D-01
102  1.0100000000000D+00  5.2905645747573D-01  8.6294674981615D-01
103  1.0200000000000D+00  4.9846172448971D-01  9.0540293163352D-01
104  1.0300000000000D+00  4.6796211364752D-01  9.4797111870744D-01
105  1.0400000000000D+00  4.3760879017731D-01  9.9051628732035D-01
106  1.0500000000000D+00  4.0745212212480D-01  1.0328992787473D+00
107  1.0600000000000D+00  3.7754154292858D-01  1.0749773035672D+00
108  1.0700000000000D+00  3.4792542419080D-01  1.1166044547257D+00
109  1.0800000000000D+00  3.1865095951836D-01  1.1576322267994D+00
110  1.0900000000000D+00  2.8976406016194D-01  1.1979100392683D+00
111  1.1000000000000D+00  2.6130926299614D-01  1.2372857620616D+00
112  1.1100000000000D+00  2.3332965122598D-01  1.2756062420421D+00
113  1.1200000000000D+00  2.0586678797725D-01  1.3127178296829D+00
114  1.1300000000000D+00  1.7896066273187D-01  1.3484669057011D+00
115  1.1400000000000D+00  1.5264965033253D-01  1.3827004080284D+00
116  1.1500000000000D+00  1.2697048208296D-01  1.4152663600103D+00
117  1.1600000000000D+00  1.0195822821125D-01  1.4460144013923D+00
118  1.1700000000000D+00  7.7646290730704D-02  1.4747963242381D+00
119  1.1800000000000D+00  5.4066405483765D-02  1.5014666165188D+00
120  1.1900000000000D+00  3.1248651996909D-02  1.5258830164980D+00
121  1.2000000000000D+00  9.2214694587460D-03  1.5479070817529D+00
122  1.2100000000000D+00 -1.1988323025393D-02  1.5674047769652D+00
123  1.2200000000000D+00 -3.2355503926895D-02  1.5842470849247D+00
124  1.2300000000000D+00 -5.1856426737244D-02  1.5983106455189D+00
125  1.2400000000000D+00 -7.0468999744034D-02  1.6094784276107D+00
126  1.2500000000000D+00 -8.8172670568915D-02  1.6176404384898D+00
127  1.2600000000000D+00 -1.0494841800554D-01  1.6226944757821D+00
128  1.2700000000000D+00 -1.2077875375888D-01  1.6245469260809D+00
129  1.2800000000000D+00 -1.3564773655804D-01  1.6231136136952D+00
130  1.2900000000000D+00 -1.4954100123311D-01  1.6183207032514D+00
131  1.3000000000000D+00 -1.6244580507150D-01  1.6101056576269D+00
132  1.3100000000000D+00 -1.7435109350194D-01  1.5984182514296D+00
133  1.3200000000000D+00 -1.8524758731333D-01  1.5832216407028D+00
134  1.3300000000000D+00 -1.9512789270745D-01  1.5644934845325D+00
135  1.3400000000000D+00 -2.0398663533941D-01  1.5422271137538D+00
136  1.3500000000000D+00 -2.1182061945082D-01  1.5164327412845D+00
137  1.3600000000000D+00 -2.1862901140552D-01  1.4871387000260D+00
138  1.3700000000000D+00 -2.2441354762162D-01  1.4543926975923D+00
139  1.3800000000000D+00 -2.2917876555405D-01  1.4182630705027D+00
140  1.3900000000000D+00 -2.3293225406875D-01  1.3788400102577D+00
141  1.4000000000000D+00 -2.3568492212686D-01  1.3362367450903D+00
142  1.4100000000000D+00 -2.3745127885061D-01  1.2905906349683D+00
143  1.4200000000000D+00 -2.3824972023696D-01  1.2420641474605D+00
144  1.4300000000000D+00 -2.3810281628198D-01  1.1908456749924D+00
145  1.4400000000000D+00 -2.3703758589022D-01  1.1371501266487D+00
146  1.4500000000000D+00 -2.3508575471745D-01  1.0812192610060D+00
147  1.4600000000000D+00 -2.3228397728017D-01  1.0233216670832D+00
148  1.4700000000000D+00 -2.2867401291681D-01  9.6375233604465D-01
149  1.4800000000000D+00 -2.2430283791655D-01  9.0283173493226D-01
150  1.4900000000000D+00 -2.1922267072362D-01  8.4090427118791D-01
151  1.5000000000000D+00 -2.1349089678708D-01  7.7833607720686D-01
152  1.5100000000000D+00 -2.0716985491053D-01  7.1551194019254D-01
153  1.5200000000000D+00 -2.0032647324804D-01  6.5283131311186D-01
154  1.5300000000000D+00 -1.9303170742028D-01  5.9070319265624D-01
155  1.5400000000000D+00 -1.8535975880372D-01  5.2953975756101D-01
156  1.5500000000000D+00 -1.7738701141470D-01  4.6974844681399D-01
157  1.5600000000000D+00 -1.6919074338567D-01  4.1172300534604D-01
158  1.5700000000000D+00 -1.6084716565712D-01  3.5583040095178D-01
159  1.5800000000000D+00 -1.5243006828011D-01  3.0240271382683D-01
160  1.5900000000000D+00 -1.4400744464184D-01  2.5171626897663D-01
161  1.6000000000000D+00 -1.3563704552478D-01  2.0396257259839D-01
162  1.6100000000000D+00 -1.2736735044864D-01  1.5926208364736D-01
163  1.6200000000000D+00 -1.1923766760955D-01  1.1767253005644D-01
164  1.6300000000000D+00 -1.1128138192421D-01  7.9214250795745D-02
165  1.6400000000000D+00 -1.0352999225590D-01  4.3902337531279D-02
166  1.6500000000000D+00 -9.6011555301745D-02  1.1735263165364D-02
167  1.6600000000000D+00 -8.8750373539353D-02 -1.7307952446456D-02
168  1.6700000000000D+00 -8.1767496315159D-02 -4.3263269730982D-02
169  1.6800000000000D+00 -7.5080533958249D-02 -6.6183037741865D-02
170  1.6900000000000D+00 -6.8703796761804D-02 -8.6134850178189D-02
171  1.7000000000000D+00 -6.2648357259183D-02 -1.0320106748644D-01
172  1.7100000000000D+00 -5.6922151046738D-02 -1.1747810321810D-01
173  1.7200000000000D+00 -5.1530096527905D-02 -1.2907562128154D-01
174  1.7300000000000D+00 -4.6474234334675D-02 -1.3811564060924D-01
175  1.7400000000000D+00 -4.1753883413285D-02 -1.4473156236001D-01
176  1.7500000000000D+00 -3.7365814369240D-02 -1.4906711702589D-01
177  1.7600000000000D+00 -3.3304436747633D-02 -1.5127524802240D-01
178  1.7700000000000D+00 -2.9562000650892D-02 -1.5151693015253D-01
179  1.7800000000000D+00 -2.6128809247733D-02 -1.4995994002962D-01
180  1.7900000000000D+00 -2.2993442168869D-02 -1.4677757892067D-01
181  1.8000000000000D+00 -2.0142986634294D-02 -1.4214736357777D-01
182  1.8100000000000D+00 -1.7563275536818D-02 -1.3624968933949D-01
183  1.8200000000000D+00 -1.5239129991407D-02 -1.2926647776448D-01
184  1.8300000000000D+00 -1.3154604742566D-02 -1.2137981713361D-01
185  1.8400000000000D+00 -1.1293234535920D-02 -1.1277060518444D-01
186  1.8500000000000D+00 -9.6382793659513D-03 -1.0361720466080D-01
187  1.8600000000000D+00 -8.1729670318109D-03 -9.4094119480541D-02
188  1.8700000000000D+00 -6.8807309328058D-03 -8.4370701903598D-02
189  1.8800000000000D+00 -5.7454407731128D-03 -7.4609902551283D-02
190  1.8900000000000D+00 -4.7516254070993D-03 -6.4967066931869D-02
191  1.9000000000000D+00 -3.8846854527591D-03 -5.5588790065625D-02
192  1.9100000000000D+00 -3.1310964045396D-03 -4.6611825433464D-02
193  1.9200000000000D+00 -2.4785944719004D-03 -3.8162088556835D-02
194  1.9300000000000D+00 -1.9163492234402D-03 -3.0353733710626D-02
195  1.9400000000000D+00 -1.4352849747182D-03 -2.3291121183108D-02
196  1.9500000000000D+00 -1.0277842225374D-03 -1.7060582642331D-02
197  1.9600000000000D+00 -6.8747821001247D-04 -1.1723671006743D-02
198  1.9700000000000D+00 -4.1011071331740D-04 -7.3203669110685D-03
199  1.9800000000000D+00 -1.9764016521228D-04 -3.9843699616657D-03
200  1.9900000000000D+00 -5.0853452894436D-05 -1.7895910363742D-03
201  2.0000000000000D+00  3.1507377838040D-05 -5.8255683654049D-04
202  2.0100000000000D+00  5.4760828852503D-05 -6.8480409958749D-05
203  2.0200000000000D+00  3.4520870020203D-05  5.4527100284755D-05
204  2.0300000000000D+00  3.0363634285674D-06  7.7270037643426D-06
205  2.0400000000000D+00 -8.7236291739698D-06 -2.6829073279924D-05
206  2.0500000000000D+00 -4.9640367408288D-06 -1.7146155273396D-05
207  2.0600000000000D+00  1.1583793549712D-06  2.5176774225697D-06
208  2.0700000000000D+00  1.7253814850087D-06  4.1209513169757D-06
209  2.0800000000000D+00  3.1956962194803D-08  8.1671987623336D-08
210  2.0900000000000D+00 -1.4949775394935D-07  4.7156477569701D-07
211  2.1000000000000D+00 -8.7427505740682D-08  2.7577492668098D-07
212  2.1100000000000D+00  0.0000000000000D+00  0.0000000000000D+00
213  2.1200000000000D+00  0.0000000000000D+00  0.0000000000000D+00
214  2.1300000000000D+00  0.0000000000000D+00  0.0000000000000D+00
215  2.1400000000000D+00  0.0000000000000D+00  0.0000000000000D+00
216  2.1500000000000D+00  0.0000000000000D+00  0.0000000000000D+00
217  2.1600000000000D+00  0.0000000000000D+00  0.0000000000000D+00
218  2.1700000000000D+00  0.0000000000000D+00  0.0000000000000D+00
219  2.1800000000000D+00  0.0000000000000D+00  0.0000000000000D+00
220  2.1900000000000D+00  0.0000000000000D+00  0.0000000000000D+00
221  2.2000000000000D+00  0.0000000000000D+00  0.0000000000000D+00
222  2.2100000000000D+00  0.0000000000000D+00  0.0000000000000D+00
223  2.2200000000000D+00  0.0000000000000D+00  0.0000000000000D+00
224  2.2300000000000D+00  0.0000000000000D+00  0.0000000000000D+00
225  2.2400000000000D+00  0.0000000000000D+00  0.0000000000000D+00
226  2.2500000000000D+00  0.0000000000000D+00  0.0000000000000D+00
227  2.2600000000000D+00  0.0000000000000D+00  0.0000000000000D+00
228  2.2700000000000D+00  0.0000000000000D+00  0.0000000000000D+00
229  2.2800000000000D+00  0.0000000000000D+00  0.0000000000000D+00
230  2.2900000000000D+00  0.0000000000000D+00  0.0000000000000D+00
231  2.3000000000000D+00  0.0000000000000D+00  0.0000000000000D+00
232  2.3100000000000D+00  0.0000000000000D+00  0.0000000000000D+00
233  2.3200000000000D+00  0.0000000000000D+00  0.0000000000000D+00
234  2.3300000000000D+00  0.0000000000000D+00  0.0000000000000D+00
235  2.3400000000000D+00  0.0000000000000D+00  0.0000000000000D+00
236  2.3500000000000D+00  0.0000000000000D+00  0.0000000000000D+00
237  2.3600000000000D+00  0.0000000000000D+00  0.0000000000000D+00
238  2.3700000000000D+00  0.0000000000000D+00  0.0000000000000D+00
239  2.3800000000000D+00  0.0000000000000D+00  0.0000000000000D+00
240  2.3900000000000D+00  0.0000000000000D+00  0.0000000000000D+00
241  2.4000000000000D+00  0.0000000000000D+00  0.0000000000000D+00
242  2.4100000000000D+00  0.0000000000000D+00  0.0000000000000D+00
243  2.4200000000000D+00  0.0000000000000D+00  0.0000000000000D+00
244  2.4300000000000D+00  0.0000000000000D+00  0.0000000000000D+00
245  2.4400000000000D+00  0.0000000000000D+00  0.0000000000000D+00
246  2.4500000000000D+00  0.0000000000000D+00  0.0000000000000D+00
247  2.4600000000000D+00  0.0000000000000D+00  0.0000000000000D+00
248  2.4700000000000D+00  0.0000000000000D+00  0.0000000000000D+00
249  2.4800000000000D+00  0.0000000000000D+00  0.0000000000000D+00
250  2.4900000000000D+00  0.0000000000000D+00  0.0000000000000D+00
251  2.5000000000000D+00  0.0000000000000D+00  0.0000000000000D+00
252  2.5100000000000D+00  0.0000000000000D+00  0.0000000000000D+00
253  2.5200000000000D+00  0.0000000000000D+00  0.0000000000000D+00
254  2.5300000000000D+00  0.0000000000000D+00  0.0000000000000D+00
255  2.5400000000000D+00  0.0000000000000D+00  0.0000000000000D+00
256  2.5500000000000D+00  0.0000000000000D+00  0.0000000000000D+00
257  2.5600000000000D+00  0.0000000000000D+00  0.0000000000000D+00
258  2.5700000000000D+00  0.0000000000000D+00  0.0000000000000D+00
259  2.5800000000000D+00  0.0000000000000D+00  0.0000000000000D+00
260  2.5900000000000D+00  0.0000000000000D+00  0.0000000000000D+00
261  2.6000000000000D+00  0.0000000000000D+00  0.0000000000000D+00
262  2.6100000000000D+00  0.0000000000000D+00  0.0000000000000D+00
263  2.6200000000000D+00  0.0000000000000D+00  0.0000000000000D+00
264  2.6300000000000D+00  0.0000000000000D+00  0.0000000000000D+00
265  2.6400000000000D+00  0.0000000000000D+00  0.0000000000000D+00
266  2.6500000000000D+00  0.0000000000000D+00  0.0000000000000D+00
267  2.6600000000000D+00  0.0000000000000D+00  0.0000000000000D+00
268  2.6700000000000D+00  0.0000000000000D+00  0.0000000000000D+00
269  2.6800000000000D+00  0.0000000000000D+00  0.0000000000000D+00
270  2.6900000000000D+00  0.0000000000000D+00  0.0000000000000D+00
271  2.7000000000000D+00  0.0000000000000D+00  0.0000000000000D+00
272  2.7100000000000D+00  0.0000000000000D+00  0.0000000000000D+00
273  2.7200000000000D+00  0.0000000000000D+00  0.0000000000000D+00
274  2.7300000000000D+00  0.0000000000000D+00  0.0000000000000D+00
275  2.7400000000000D+00  0.0000000000000D+00  0.0000000000000D+00
276  2.7500000000000D+00  0.0000000000000D+00  0.0000000000000D+00
277  2.7600000000000D+00  0.0000000000000D+00  0.0000000000000D+00
278  2.7700000000000D+00  0.0000000000000D+00  0.0000000000000D+00
279  2.7800000000000D+00  0.0000000000000D+00  0.0000000000000D+00
280  2.7900000000000D+00  0.0000000000000D+00  0.0000000000000D+00
281  2.8000000000000D+00  0.0000000000000D+00  0.0000000000000D+00
282  2.8100000000000D+00  0.0000000000000D+00  0.0000000000000D+00
283  2.8200000000000D+00  0.0000000000000D+00  0.0000000000000D+00
284  2.8300000000000D+00  0.0000000000000D+00  0.0000000000000D+00
285  2.8400000000000D+00  0.0000000000000D+00  0.0000000000000D+00
286  2.8500000000000D+00  0.0000000000000D+00  0.0000000000000D+00
287  2.8600000000000D+00  0.0000000000000D+00  0.0000000000000D+00
288  2.8700000000000D+00  0.0000000000000D+00  0.0000000000000D+00
289  2.8800000000000D+00  0.0000000000000D+00  0.0000000000000D+00
290  2.8900000000000D+00  0.0000000000000D+00  0.0000000000000D+00
291  2.9000000000000D+00  0.0000000000000D+00  0.0000000000000D+00
292  2.9100000000000D+00  0.0000000000000D+00  0.0000000000000D+00
293  2.9200000000000D+00  0.0000000000000D+00  0.0000000000000D+00
294  2.9300000000000D+00  0.0000000000000D+00  0.0000000000000D+00
295  2.9400000000000D+00  0.0000000000000D+00  0.0000000000000D+00
296  2.9500000000000D+00  0.0000000000000D+00  0.0000000000000D+00
297  2.9600000000000D+00  0.0000000000000D+00  0.0000000000000D+00
298  2.9700000000000D+00  0.0000000000000D+00  0.0000000000000D+00
299  2.9800000000000D+00  0.0000000000000D+00  0.0000000000000D+00
300  2.9900000000000D+00  0.0000000000000D+00  0.0000000000000D+00
301  3.0000000000000D+00  0.0000000000000D+00  0.0000000000000D+00
302  3.0100000000000D+00  0.0000000000000D+00  0.0000000000000D+00
303  3.0200000000000D+00  0.0000000000000D+00  0.0000000000000D+00
304  3.0300000000000D+00  0.0000000000000D+00  0.0000000000000D+00
305  3.0400000000000D+00  0.0000000000000D+00  0.0000000000000D+00
306  3.0500000000000D+00  0.0000000000000D+00  0.0000000000000D+00
307  3.0600000000000D+00  0.0000000000000D+00  0.0000000000000D+00
308  3.0700000000000D+00  0.0000000000000D+00  0.0000000000000D+00
309  3.0800000000000D+00  0.0000000000000D+00  0.0000000000000D+00
310  3.0900000000000D+00  0.0000000000000D+00  0.0000000000000D+00
311  3.1000000000000D+00  0.0000000000000D+00  0.0000000000000D+00
312  3.1100000000000D+00  0.0000000000000D+00  0.0000000000000D+00
313  3.1200000000000D+00  0.0000000000000D+00  0.0000000000000D+00
314  3.1300000000000D+00  0.0000000000000D+00  0.0000000000000D+00
315  3.1400000000000D+00  0.0000000000000D+00  0.0000000000000D+00
316  3.1500000000000D+00  0.0000000000000D+00  0.0000000000000D+00
317  3.1600000000000D+00  0.0000000000000D+00  0.0000000000000D+00
318  3.1700000000000D+00  0.0000000000000D+00  0.0000000000000D+00
319  3.1800000000000D+00  0.0000000000000D+00  0.0000000000000D+00
320  3.1900000000000D+00  0.0000000000000D+00  0.0000000000000D+00
321  3.2000000000000D+00  0.0000000000000D+00  0.0000000000000D+00
322  3.2100000000000D+00  0.0000000000000D+00  0.0000000000000D+00
323  3.2200000000000D+00  0.0000000000000D+00  0.0000000000000D+00
324  3.2300000000000D+00  0.0000000000000D+00  0.0000000000000D+00
325  3.2400000000000D+00  0.0000000000000D+00  0.0000000000000D+00
326  3.2500000000000D+00  0.0000000000000D+00  0.0000000000000D+00
327  3.2600000000000D+00  0.0000000000000D+00  0.0000000000000D+00
328  3.2700000000000D+00  0.0000000000000D+00  0.0000000000000D+00
329  3.2800000000000D+00  0.0000000000000D+00  0.0000000000000D+00
330  3.2900000000000D+00  0.0000000000000D+00  0.0000000000000D+00
331  3.3000000000000D+00  0.0000000000000D+00  0.0000000000000D+00
332  3.3100000000000D+00  0.0000000000000D+00  0.0000000000000D+00
333  3.3200000000000D+00  0.0000000000000D+00  0.0000000000000D+00
334  3.3300000000000D+00  0.0000000000000D+00  0.0000000000000D+00
335  3.3400000000000D+00  0.0000000000000D+00  0.0000000000000D+00
336  3.3500000000000D+00  0.0000000000000D+00  0.0000000000000D+00
337  3.3600000000000D+00  0.0000000000000D+00  0.0000000000000D+00
338  3.3700000000000D+00  0.0000000000000D+00  0.0000000000000D+00
339  3.3800000000000D+00  0.0000000000000D+00  0.0000000000000D+00
340  3.3900000000000D+00  0.0000000000000D+00  0.0000000000000D+00
341  3.4000000000000D+00  0.0000000000000D+00  0.0000000000000D+00
342  3.4100000000000D+00  0.0000000000000D+00  0.0000000000000D+00
343  3.4200000000000D+00  0.0000000000000D+00  0.0000000000000D+00
344  3.4300000000000D+00  0.0000000000000D+00  0.0000000000000D+00
345  3.4400000000000D+00  0.0000000000000D+00  0.0000000000000D+00
346  3.4500000000000D+00  0.0000000000000D+00  0.0000000000000D+00
347  3.4600000000000D+00  0.0000000000000D+00  0.0000000000000D+00
348  3.4700000000000D+00  0.0000000000000D+00  0.0000000000000D+00
349  3.4800000000000D+00  0.0000000000000D+00  0.0000000000000D+00
350  3.4900000000000D+00  0.0000000000000D+00  0.0000000000000D+00
351  3.5000000000000D+00  0.0000000000000D+00  0.0000000000000D+00
352  3.5100000000000D+00  0.0000000000000D+00  0.0000000000000D+00
353  3.5200000000000D+00  0.0000000000000D+00  0.0000000000000D+00
354  3.5300000000000D+00  0.0000000000000D+00  0.0000000000000D+00
355  3.5400000000000D+00  0.0000000000000D+00  0.0000000000000D+00
356  3.5500000000000D+00  0.0000000000000D+00  0.0000000000000D+00
357  3.5600000000000D+00  0.0000000000000D+00  0.0000000000000D+00
358  3.5700000000000D+00  0.0000000000000D+00  0.0000000000000D+00
359  3.5800000000000D+00  0.0000000000000D+00  0.0000000000000D+00
360  3.5900000000000D+00  0.0000000000000D+00  0.0000000000000D+00
361  3.6000000000000D+00  0.0000000000000D+00  0.0000000000000D+00
362  3.6100000000000D+00  0.0000000000000D+00  0.0000000000000D+00
363  3.6200000000000D+00  0.0000000000000D+00  0.0000000000000D+00
364  3.6300000000000D+00  0.0000000000000D+00  0.0000000000000D+00
365  3.6400000000000D+00  0.0000000000000D+00  0.0000000000000D+00
366  3.6500000000000D+00  0.0000000000000D+00  0.0000000000000D+00
367  3.6600000000000D+00  0.0000000000000D+00  0.0000000000000D+00
368  3.6700000000000D+00  0.0000000000000D+00  0.0000000000000D+00
369  3.6800000000000D+00  0.0000000000000D+00  0.0000000000000D+00
370  3.6900000000000D+00  0.0000000000000D+00  0.0000000000000D+00
371  3.7000000000000D+00  0.0000000000000D+00  0.0000000000000D+00
372  3.7100000000000D+00  0.0000000000000D+00  0.0000000000000D+00
373  3.7200000000000D+00  0.0000000000000D+00  0.0000000000000D+00
374  3.7300000000000D+00  0.0000000000000D+00  0.0000000000000D+00
375  3.7400000000000D+00  0.0000000000000D+00  0.0000000000000D+00
376  3.7500000000000D+00  0.0000000000000D+00  0.0000000000000D+00
377  3.7600000000000D+00  0.0000000000000D+00  0.0000000000000D+00
378  3.7700000000000D+00  0.0000000000000D+00  0.0000000000000D+00
379  3.7800000000000D+00  0.0000000000000D+00  0.0000000000000D+00
380  3.7900000000000D+00  0.0000000000000D+00  0.0000000000000D+00
381  3.8000000000000D+00  0.0000000000000D+00  0.0000000000000D+00
382  3.8100000000000D+00  0.0000000000000D+00  0.0000000000000D+00
383  3.8200000000000D+00  0.0000000000000D+00  0.0000000000000D+00
384  3.8300000000000D+00  0.0000000000000D+00  0.0000000000000D+00
385  3.8400000000000D+00  0.0000000000000D+00  0.0000000000000D+00
386  3.8500000000000D+00  0.0000000000000D+00  0.0000000000000D+00
387  3.8600000000000D+00  0.0000000000000D+00  0.0000000000000D+00
388  3.8700000000000D+00  0.0000000000000D+00  0.0000000000000D+00
389  3.8800000000000D+00  0.0000000000000D+00  0.0000000000000D+00
390  3.8900000000000D+00  0.0000000000000D+00  0.0000000000000D+00
391  3.9000000000000D+00  0.0000000000000D+00  0.0000000000000D+00
392  3.9100000000000D+00  0.0000000000000D+00  0.0000000000000D+00
393  3.9200000000000D+00  0.0000000000000D+00  0.0000000000000D+00
394  3.9300000000000D+00  0.0000000000000D+00  0.0000000000000D+00
395  3.9400000000000D+00  0.0000000000000D+00  0.0000000000000D+00
396  3.9500000000000D+00  0.0000000000000D+00  0.0000000000000D+00
397  3.9600000000000D+00  0.0000000000000D+00  0.0000000000000D+00
398  3.9700000000000D+00  0.0000000000000D+00  0.0000000000000D+00
399  3.9800000000000D+00  0.0000000000000D+00  0.0000000000000D+00
400  3.9900000000000D+00  0.0000000000000D+00  0.0000000000000D+00
401  4.0000000000000D+00  0.0000000000000D+00  0.0000000000000D+00
402  4.0100000000000D+00  0.0000000000000D+00  0.0000000000000D+00
403  4.0200000000000D+00  0.0000000000000D+00  0.0000000000000D+00
404  4.0300000000000D+00  0.0000000000000D+00  0.0000000000000D+00
405  4.0400000000000D+00  0.0000000000000D+00  0.0000000000000D+00
406  4.0500000000000D+00  0.0000000000000D+00  0.0000000000000D+00
407  4.0600000000000D+00  0.0000000000000D+00  0.0000000000000D+00
408  4.0700000000000D+00  0.0000000000000D+00  0.0000000000000D+00
409  4.0800000000000D+00  0.0000000000000D+00  0.0000000000000D+00
410  4.0900000000000D+00  0.0000000000000D+00  0.0000000000000D+00
411  4.1000000000000D+00  0.0000000000000D+00  0.0000000000000D+00
412  4.1100000000000D+00  0.0000000000000D+00  0.0000000000000D+00
413  4.1200000000000D+00  0.0000000000000D+00  0.0000000000000D+00
414  4.1300000000000D+00  0.0000000000000D+00  0.0000000000000D+00
415  4.1400000000000D+00  0.0000000000000D+00  0.0000000000000D+00
416  4.1500000000000D+00  0.0000000000000D+00  0.0000000000000D+00
417  4.1600000000000D+00  0.0000000000000D+00  0.0000000000000D+00
418  4.1700000000000D+00  0.0000000000000D+00  0.0000000000000D+00
419  4.1800000000000D+00  0.0000000000000D+00  0.0000000000000D+00
420  4.1900000000000D+00  0.0000000000000D+00  0.0000000000000D+00
421  4.2000000000000D+00  0.0000000000000D+00  0.0000000000000D+00
422  4.2100000000000D+00  0.0000000000000D+00  0.0000000000000D+00
423  4.2200000000000D+00  0.0000000000000D+00  0.0000000000000D+00
424  4.2300000000000D+00  0.0000000000000D+00  0.0000000000000D+00
425  4.2400000000000D+00  0.0000000000000D+00  0.0000000000000D+00
426  4.2500000000000D+00  0.0000000000000D+00  0.0000000000000D+00
427  4.2600000000000D+00  0.0000000000000D+00  0.0000000000000D+00
428  4.2700000000000D+00  0.0000000000000D+00  0.0000000000000D+00
429  4.2800000000000D+00  0.0000000000000D+00  0.0000000000000D+00
430  4.2900000000000D+00  0.0000000000000D+00  0.0000000000000D+00
431  4.3000000000000D+00  0.0000000000000D+00  0.0000000000000D+00
432  4.3100000000000D+00  0.0000000000000D+00  0.0000000000000D+00
433  4.3200000000000D+00  0.0000000000000D+00  0.0000000000000D+00
434  4.3300000000000D+00  0.0000000000000D+00  0.0000000000000D+00
435  4.3400000000000D+00  0.0000000000000D+00  0.0000000000000D+00
436  4.3500000000000D+00  0.0000000000000D+00  0.0000000000000D+00
437  4.3600000000000D+00  0.0000000000000D+00  0.0000000000000D+00
438  4.3700000000000D+00  0.0000000000000D+00  0.0000000000000D+00
439  4.3800000000000D+00  0.0000000000000D+00  0.0000000000000D+00
440  4.3900000000000D+00  0.0000000000000D+00  0.0000000000000D+00
441  4.4000000000000D+00  0.0000000000000D+00  0.0000000000000D+00
442  4.4100000000000D+00  0.0000000000000D+00  0.0000000000000D+00
443  4.4200000000000D+00  0.0000000000000D+00  0.0000000000000D+00