Al    ONCVPSP  r_core=  1.77  0.91  1.71
13.0000     11.0000      150529    zatom,zion,pspd
8    11     2     4   601     0    pspcod,pspxc,lmax,lloc,mmax,r2well
6.00000000  0.00000000  0.00000000    rchrg fchrg qchrg
2     2     2     0     0    nproj
0                 extension_switch
0                         3.3466987377149D+00 -2.9973617524312D-01
1  0.0000000000000D+00  0.0000000000000D+00  0.0000000000000D+00
2  1.0000000000000D-02  1.2430529332580D-01 -3.1176712837609D-02
3  2.0000000000000D-02  2.4801865393240D-01 -6.2294617054714D-02
4  3.0000000000000D-02  3.7055145340382D-01 -9.3295199159947D-02
5  4.0000000000000D-02  4.9132165161869D-01 -1.2412053559088D-01
6  5.0000000000000D-02  6.0975704025198D-01 -1.5471358683187D-01
7  6.0000000000000D-02  7.2529842586892D-01 -1.8501849045022D-01
8  7.0000000000000D-02  8.3740273310660D-01 -2.1498085258469D-01
9  8.0000000000000D-02  9.4554600892329D-01 -2.4454803732701D-01
10  9.0000000000000D-02  1.0492263096038D+00 -2.7366945333544D-01
11  1.0000000000000D-01  1.1479664529031D+00 -3.0229683688756D-01
12  1.1000000000000D-01  1.2413166186327D+00 -3.3038453044429D-01
13  1.2000000000000D-01  1.3288567820120D+00 -3.5788975565037D-01
14  1.3000000000000D-01  1.4101989652346D+00 -3.8477287954389D-01
15  1.4000000000000D-01  1.4849892933625D+00 -4.1099767252261D-01
16  1.5000000000000D-01  1.5529098434151D+00 -4.3653155662584D-01
17  1.6000000000000D-01  1.6136802741950D+00 -4.6134584220789D-01
18  1.7000000000000D-01  1.6670592296174D+00 -4.8541595139849D-01
19  1.8000000000000D-01  1.7128455051262D+00 -5.0872162599908D-01
20  1.9000000000000D-01  1.7508789734137D+00 -5.3124711803244D-01
21  2.0000000000000D-01  1.7810412610539D+00 -5.5298136010420D-01
22  2.1000000000000D-01  1.8032561788250D+00 -5.7391811428591D-01
23  2.2000000000000D-01  1.8174898957826D+00 -5.9405609560794D-01
24  2.3000000000000D-01  1.8237508643577D+00 -6.1339906903750D-01
25  2.4000000000000D-01  1.8220894938653D+00 -6.3195591652599D-01
26  2.5000000000000D-01  1.8125975781082D+00 -6.4974067295067D-01
27  2.6000000000000D-01  1.7954074790603D+00 -6.6677252619163D-01
28  2.7000000000000D-01  1.7706910743946D+00 -6.8307578241107D-01
29  2.8000000000000D-01  1.7386584775381D+00 -6.9867979106581D-01
30  2.9000000000000D-01  1.6995565374659D+00 -7.1361883003483D-01
31  3.0000000000000D-01  1.6536671290393D+00 -7.2793194801254D-01
32  3.1000000000000D-01  1.6013052458398D+00 -7.4166276288482D-01
33  3.2000000000000D-01  1.5428169189951D+00 -7.5485921593281D-01
34  3.3000000000000D-01  1.4785769343113D+00 -7.6757327734561D-01
35  3.4000000000000D-01  1.4089864372522D+00 -7.7986060873224D-01
36  3.5000000000000D-01  1.3344703712142D+00 -7.9178017716943D-01
37  3.6000000000000D-01  1.2554747968232D+00 -8.0339382280857D-01
38  3.7000000000000D-01  1.1724640931954D+00 -8.1476577925075D-01
39  3.8000000000000D-01  1.0859181342772D+00 -8.2596215857202D-01
40  3.9000000000000D-01  9.9632930401079D-01 -8.3705038111550D-01
41  4.0000000000000D-01  9.0419950552903D-01 -8.4809857061992D-01
42  4.1000000000000D-01  8.1003716975308D-01 -8.5917491754782D-01
43  4.2000000000000D-01  7.1435420833110D-01 -8.7034700166481D-01
44  4.3000000000000D-01  6.1766298610877D-01 -8.8168108642594D-01
45  4.4000000000000D-01  5.2047331917317D-01 -8.9324138767871D-01
46  4.5000000000000D-01  4.2328951682974D-01 -9.0508932158499D-01
47  4.6000000000000D-01  3.2660748625771D-01 -9.1728273733584D-01
48  4.7000000000000D-01  2.3091194723531D-01 -9.2987514747701D-01
49  4.8000000000000D-01  1.3667370763913D-01 -9.4291494819348D-01
50  4.9000000000000D-01  4.4346920744879D-02 -9.5644461070317D-01
51  5.0000000000000D-01 -4.5633237799471D-02 -9.7049995116785D-01
52  5.1000000000000D-01 -1.3285280278748D-01 -9.8510941243745D-01
53  5.2000000000000D-01 -2.1692152001136D-01 -1.0002932637526D+00
54  5.3000000000000D-01 -2.9747475046991D-01 -1.0160629369988D+00
55  5.4000000000000D-01 -3.7417482506484D-01 -1.0324205141600D+00
56  5.5000000000000D-01 -4.4671373601600D-01 -1.0493578495076D+00
57  5.6000000000000D-01 -5.1481333564171D-01 -1.0668563759909D+00
58  5.7000000000000D-01 -5.7822772815692D-01 -1.0848863192140D+00
59  5.8000000000000D-01 -6.3674324452550D-01 -1.1034066040241D+00
60  5.9000000000000D-01 -6.9018037288250D-01 -1.1223642275668D+00
61  6.0000000000000D-01 -7.3839301388452D-01 -1.1416944319428D+00
62  6.1000000000000D-01 -7.8127037954003D-01 -1.1613201468381D+00
63  6.2000000000000D-01 -8.1873581162090D-01 -1.1811523695469D+00
64  6.3000000000000D-01 -8.5074735201374D-01 -1.2010900865634D+00
65  6.4000000000000D-01 -8.7729758343922D-01 -1.2210204727761D+00
66  6.5000000000000D-01 -8.9841255483010D-01 -1.2408194019475D+00
67  6.6000000000000D-01 -9.1415143936251D-01 -1.2603518350596D+00
68  6.7000000000000D-01 -9.2460570645183D-01 -1.2794724493423D+00
69  6.8000000000000D-01 -9.2989762225576D-01 -1.2980264965956D+00
70  6.9000000000000D-01 -9.3017902721416D-01 -1.3158506819416D+00
71  7.0000000000000D-01 -9.2562995526119D-01 -1.3327742563254D+00
72  7.1000000000000D-01 -9.1645682321067D-01 -1.3486203022721D+00
73  7.2000000000000D-01 -9.0289049930222D-01 -1.3632071045716D+00
74  7.3000000000000D-01 -8.8518431626619D-01 -1.3763497182369D+00
75  7.4000000000000D-01 -8.6361188754384D-01 -1.3878616955611D+00
76  7.5000000000000D-01 -8.3846488070934D-01 -1.3975568558736D+00
77  7.6000000000000D-01 -8.1005032132116D-01 -1.4052516640583D+00
78  7.7000000000000D-01 -7.7868819684339D-01 -1.4107671906817D+00
79  7.8000000000000D-01 -7.4470877435703D-01 -1.4139315285019D+00
80  7.9000000000000D-01 -7.0844983522668D-01 -1.4145823396428D+00
81  8.0000000000000D-01 -6.7025384217203D-01 -1.4125695441225D+00
82  8.1000000000000D-01 -6.3046504125818D-01 -1.4077581599789D+00
83  8.2000000000000D-01 -5.8942651105351D-01 -1.4000312909129D+00
84  8.3000000000000D-01 -5.4747717086153D-01 -1.3892932569117D+00
85  8.4000000000000D-01 -5.0494875953027D-01 -1.3754728629005D+00
86  8.5000000000000D-01 -4.6216279589259D-01 -1.3585268000861D+00
87  8.6000000000000D-01 -4.1942753140651D-01 -1.3384431742938D+00
88  8.7000000000000D-01 -3.7703490505754D-01 -1.3152451552568D+00
89  8.8000000000000D-01 -3.3525751006506D-01 -1.2889947404725D+00
90  8.9000000000000D-01 -2.9434558140809D-01 -1.2597966268877D+00
91  9.0000000000000D-01 -2.5452396667724D-01 -1.2278024115501D+00
92  9.1000000000000D-01 -2.1598902931578D-01 -1.1932152844546D+00
93  9.2000000000000D-01 -1.7890883166267D-01 -1.1562791693210D+00
94  9.3000000000000D-01 -1.4342835972645D-01 -1.1172467498611D+00
95  9.4000000000000D-01 -1.0967436838009D-01 -1.0763558589060D+00
96  9.5000000000000D-01 -7.7756133928970D-02 -1.0338311545050D+00
97  9.6000000000000D-01 -4.7764989029097D-02 -9.8988450645632D-01
98  9.7000000000000D-01 -1.9775205119788D-02 -9.4471667754536D-01
99  9.8000000000000D-01  6.1552477285722D-03 -8.9851870450365D-01
100  9.9000000000000D-01  2.9984367316267D-02 -8.5147269926665D-01
101  1.0000000000000D+00  5.1685563705079D-02 -8.0375282827157D-01
102  1.0100000000000D+00  7.1247075681687D-02 -7.5552623195769D-01
103  1.0200000000000D+00  8.8670990490191D-02 -7.0695426801822D-01
104  1.0300000000000D+00  1.0397366217965D-01 -6.5819222212699D-01
105  1.0400000000000D+00  1.1718441418030D-01 -6.0939071693610D-01
106  1.0500000000000D+00  1.2834458743567D-01 -5.6069665228881D-01
107  1.0600000000000D+00  1.3750706726907D-01 -5.1225358517702D-01
108  1.0700000000000D+00  1.4473539147134D-01 -4.6420251973946D-01
109  1.0800000000000D+00  1.5010357951521D-01 -4.1668183677256D-01
110  1.0900000000000D+00  1.5369526198266D-01 -3.6982777607460D-01
111  1.1000000000000D+00  1.5560244592556D-01 -3.2377544998877D-01
112  1.1100000000000D+00  1.5592504731095D-01 -2.7865893212834D-01
113  1.1200000000000D+00  1.5477025532713D-01 -2.3461174697417D-01
114  1.1300000000000D+00  1.5225195883083D-01 -1.9176604167801D-01
115  1.1400000000000D+00  1.4848950710945D-01 -1.5025396744716D-01
116  1.1500000000000D+00  1.4360729634236D-01 -1.1020741968223D-01
117  1.1600000000000D+00  1.3773430980855D-01 -7.1758121169444D-02
118  1.1700000000000D+00  1.3100244349037D-01 -3.5036490673501D-02
119  1.1800000000000D+00  1.2354632290167D-01 -1.7235658015493D-04
120  1.1900000000000D+00  1.1550310983408D-01  3.2705203584499D-02
121  1.2000000000000D+00  1.0701030752052D-01  6.3469844825443D-02
122  1.2100000000000D+00  9.8204842840188D-02  9.1998947804549D-02
123  1.2200000000000D+00  8.9223511538606D-02  1.1817340596523D-01
124  1.2300000000000D+00  8.0201484700995D-02  1.4187924262131D-01
125  1.2400000000000D+00  7.1267944180548D-02  1.6301371946467D-01
126  1.2500000000000D+00  6.2548896980335D-02  1.8148267057735D-01
127  1.2600000000000D+00  5.4166142903605D-02  1.9720161872714D-01
128  1.2700000000000D+00  4.6228185943785D-02  2.1011015721078D-01
129  1.2800000000000D+00  3.8837168813188D-02  2.2016287840565D-01
130  1.2900000000000D+00  3.2086564733706D-02  2.2733251130511D-01
131  1.3000000000000D+00  2.6048522992893D-02  2.3163184472179D-01
132  1.3100000000000D+00  2.0786661094772D-02  2.3309338017259D-01
133  1.3200000000000D+00  1.6347857959257D-02  2.3178297410146D-01
134  1.3300000000000D+00  1.2752932853529D-02  2.2781647960731D-01
135  1.3400000000000D+00  1.0014015348514D-02  2.2132991949570D-01
136  1.3500000000000D+00  8.1147642028427D-03  2.1251337569169D-01
137  1.3600000000000D+00  7.0176523602948D-03  2.0159674771223D-01
138  1.3700000000000D+00  6.6761845821875D-03  1.8883106405753D-01
139  1.3800000000000D+00  7.0081711301946D-03  1.7452726415946D-01
140  1.3900000000000D+00  7.9266975011849D-03  1.5900616434532D-01
141  1.4000000000000D+00  9.3252150585283D-03  1.4262165963651D-01
142  1.4100000000000D+00  1.1086417590528D-02  1.2573405394614D-01
143  1.4200000000000D+00  1.3086278563489D-02  1.0872018901379D-01
144  1.4300000000000D+00  1.5198185753332D-02  9.1934353038758D-02
145  1.4400000000000D+00  1.7297650659592D-02  7.5724650177202D-02
146  1.4500000000000D+00  1.9264127625673D-02  6.0413255644821D-02
147  1.4600000000000D+00  2.0997677258059D-02  4.6259218350493D-02
148  1.4700000000000D+00  2.2394768420784D-02  3.3527442628922D-02
149  1.4800000000000D+00  2.3397221206085D-02  2.2354016089159D-02
150  1.4900000000000D+00  2.3939166641134D-02  1.2895650315797D-02
151  1.5000000000000D+00  2.4001609397983D-02  5.1821614408186D-03
152  1.5100000000000D+00  2.3570604372260D-02 -7.6905199725156D-04
153  1.5200000000000D+00  2.2661238753385D-02 -5.0168603764626D-03
154  1.5300000000000D+00  2.1307667423103D-02 -7.6673548405289D-03
155  1.5400000000000D+00  1.9555027434948D-02 -8.8555257193478D-03
156  1.5500000000000D+00  1.7469720223764D-02 -8.7670437508099D-03
157  1.5600000000000D+00  1.5119723063051D-02 -7.5932936741004D-03
158  1.5700000000000D+00  1.2583811319000D-02 -5.5484120218918D-03
159  1.5800000000000D+00  9.9424394480089D-03 -2.8529820914327D-03
160  1.5900000000000D+00  7.2705723751389D-03  2.9006276404753D-04
161  1.6000000000000D+00  4.6468745978072D-03  3.6667919668584D-03
162  1.6100000000000D+00  2.1342755412392D-03  7.1049598938963D-03
163  1.6200000000000D+00 -2.0205146021709D-04  1.0425630067357D-02
164  1.6300000000000D+00 -2.3157187363274D-03  1.3497783148395D-02
165  1.6400000000000D+00 -4.1608963804940D-03  1.6191066250254D-02
166  1.6500000000000D+00 -5.7092717361596D-03  1.8419034318814D-02
167  1.6600000000000D+00 -6.9350063751334D-03  2.0100914094375D-02
168  1.6700000000000D+00 -7.8268588452009D-03  2.1192198051825D-02
169  1.6800000000000D+00 -8.3762820533805D-03  2.1654826041575D-02
170  1.6900000000000D+00 -8.5862470102971D-03  2.1479328454643D-02
171  1.7000000000000D+00 -8.4613264407985D-03  2.0660193000819D-02
172  1.7100000000000D+00 -8.0147889763207D-03  1.9213753582765D-02
173  1.7200000000000D+00 -7.2600572300809D-03  1.7156812551895D-02
174  1.7300000000000D+00 -6.2164878187988D-03  1.4521713022474D-02
175  1.7400000000000D+00 -4.9027316746028D-03  1.1338965442449D-02
176  1.7500000000000D+00 -3.2358583592659D-03  7.4078891203565D-03
177  1.7600000000000D+00 -1.2576889343089D-03  2.8137265058126D-03
178  1.7700000000000D+00  1.4112425413652D-04 -4.0277693642072D-04
179  1.7800000000000D+00  2.5331352942925D-04 -6.2296879965086D-04
180  1.7900000000000D+00 -4.2296353792639D-07  1.9344901701140D-06
181  1.8000000000000D+00 -2.3781485429164D-06  1.0876835866035D-05
182  1.8100000000000D+00 -2.1160248846750D-07  9.6779721466978D-07
183  1.8200000000000D+00  0.0000000000000D+00  0.0000000000000D+00
184  1.8300000000000D+00  0.0000000000000D+00  0.0000000000000D+00
185  1.8400000000000D+00  0.0000000000000D+00  0.0000000000000D+00
186  1.8500000000000D+00  0.0000000000000D+00  0.0000000000000D+00
187  1.8600000000000D+00  0.0000000000000D+00  0.0000000000000D+00
188  1.8700000000000D+00  0.0000000000000D+00  0.0000000000000D+00
189  1.8800000000000D+00  0.0000000000000D+00  0.0000000000000D+00
190  1.8900000000000D+00  0.0000000000000D+00  0.0000000000000D+00
191  1.9000000000000D+00  0.0000000000000D+00  0.0000000000000D+00
192  1.9100000000000D+00  0.0000000000000D+00  0.0000000000000D+00
193  1.9200000000000D+00  0.0000000000000D+00  0.0000000000000D+00
194  1.9300000000000D+00  0.0000000000000D+00  0.0000000000000D+00
195  1.9400000000000D+00  0.0000000000000D+00  0.0000000000000D+00
196  1.9500000000000D+00  0.0000000000000D+00  0.0000000000000D+00
197  1.9600000000000D+00  0.0000000000000D+00  0.0000000000000D+00
198  1.9700000000000D+00  0.0000000000000D+00  0.0000000000000D+00
199  1.9800000000000D+00  0.0000000000000D+00  0.0000000000000D+00
200  1.9900000000000D+00  0.0000000000000D+00  0.0000000000000D+00
201  2.0000000000000D+00  0.0000000000000D+00  0.0000000000000D+00
202  2.0100000000000D+00  0.0000000000000D+00  0.0000000000000D+00
203  2.0200000000000D+00  0.0000000000000D+00  0.0000000000000D+00
204  2.0300000000000D+00  0.0000000000000D+00  0.0000000000000D+00
205  2.0400000000000D+00  0.0000000000000D+00  0.0000000000000D+00
206  2.0500000000000D+00  0.0000000000000D+00  0.0000000000000D+00
207  2.0600000000000D+00  0.0000000000000D+00  0.0000000000000D+00
208  2.0700000000000D+00  0.0000000000000D+00  0.0000000000000D+00
209  2.0800000000000D+00  0.0000000000000D+00  0.0000000000000D+00
210  2.0900000000000D+00  0.0000000000000D+00  0.0000000000000D+00
211  2.1000000000000D+00  0.0000000000000D+00  0.0000000000000D+00
212  2.1100000000000D+00  0.0000000000000D+00  0.0000000000000D+00
213  2.1200000000000D+00  0.0000000000000D+00  0.0000000000000D+00
214  2.1300000000000D+00  0.0000000000000D+00  0.0000000000000D+00
215  2.1400000000000D+00  0.0000000000000D+00  0.0000000000000D+00
216  2.1500000000000D+00  0.0000000000000D+00  0.0000000000000D+00
217  2.1600000000000D+00  0.0000000000000D+00  0.0000000000000D+00
218  2.1700000000000D+00  0.0000000000000D+00  0.0000000000000D+00
219  2.1800000000000D+00  0.0000000000000D+00  0.0000000000000D+00
220  2.1900000000000D+00  0.0000000000000D+00  0.0000000000000D+00
221  2.2000000000000D+00  0.0000000000000D+00  0.0000000000000D+00
222  2.2100000000000D+00  0.0000000000000D+00  0.0000000000000D+00
223  2.2200000000000D+00  0.0000000000000D+00  0.0000000000000D+00
224  2.2300000000000D+00  0.0000000000000D+00  0.0000000000000D+00
225  2.2400000000000D+00  0.0000000000000D+00  0.0000000000000D+00
226  2.2500000000000D+00  0.0000000000000D+00  0.0000000000000D+00
227  2.2600000000000D+00  0.0000000000000D+00  0.0000000000000D+00
228  2.2700000000000D+00  0.0000000000000D+00  0.0000000000000D+00
229  2.2800000000000D+00  0.0000000000000D+00  0.0000000000000D+00
230  2.2900000000000D+00  0.0000000000000D+00  0.0000000000000D+00
231  2.3000000000000D+00  0.0000000000000D+00  0.0000000000000D+00
232  2.3100000000000D+00  0.0000000000000D+00  0.0000000000000D+00
233  2.3200000000000D+00  0.0000000000000D+00  0.0000000000000D+00
234  2.3300000000000D+00  0.0000000000000D+00  0.0000000000000D+00
235  2.3400000000000D+00  0.0000000000000D+00  0.0000000000000D+00
236  2.3500000000000D+00  0.0000000000000D+00  0.0000000000000D+00
237  2.3600000000000D+00  0.0000000000000D+00  0.0000000000000D+00
238  2.3700000000000D+00  0.0000000000000D+00  0.0000000000000D+00
239  2.3800000000000D+00  0.0000000000000D+00  0.0000000000000D+00
240  2.3900000000000D+00  0.0000000000000D+00  0.0000000000000D+00
241  2.4000000000000D+00  0.0000000000000D+00  0.0000000000000D+00
242  2.4100000000000D+00  0.0000000000000D+00  0.0000000000000D+00
243  2.4200000000000D+00  0.0000000000000D+00  0.0000000000000D+00
244  2.4300000000000D+00  0.0000000000000D+00  0.0000000000000D+00
245  2.4400000000000D+00  0.0000000000000D+00  0.0000000000000D+00
246  2.4500000000000D+00  0.0000000000000D+00  0.0000000000000D+00
247  2.4600000000000D+00  0.0000000000000D+00  0.0000000000000D+00
248  2.4700000000000D+00  0.0000000000000D+00  0.0000000000000D+00
249  2.4800000000000D+00  0.0000000000000D+00  0.0000000000000D+00
250  2.4900000000000D+00  0.0000000000000D+00  0.0000000000000D+00
251  2.5000000000000D+00  0.0000000000000D+00  0.0000000000000D+00
252  2.5100000000000D+00  0.0000000000000D+00  0.0000000000000D+00
253  2.5200000000000D+00  0.0000000000000D+00  0.0000000000000D+00
254  2.5300000000000D+00  0.0000000000000D+00  0.0000000000000D+00
255  2.5400000000000D+00  0.0000000000000D+00  0.0000000000000D+00
256  2.5500000000000D+00  0.0000000000000D+00  0.0000000000000D+00
257  2.5600000000000D+00  0.0000000000000D+00  0.0000000000000D+00
258  2.5700000000000D+00  0.0000000000000D+00  0.0000000000000D+00
259  2.5800000000000D+00  0.0000000000000D+00  0.0000000000000D+00
260  2.5900000000000D+00  0.0000000000000D+00  0.0000000000000D+00
261  2.6000000000000D+00  0.0000000000000D+00  0.0000000000000D+00
262  2.6100000000000D+00  0.0000000000000D+00  0.0000000000000D+00
263  2.6200000000000D+00  0.0000000000000D+00  0.0000000000000D+00
264  2.6300000000000D+00  0.0000000000000D+00  0.0000000000000D+00
265  2.6400000000000D+00  0.0000000000000D+00  0.0000000000000D+00
266  2.6500000000000D+00  0.0000000000000D+00  0.0000000000000D+00
267  2.6600000000000D+00  0.0000000000000D+00  0.0000000000000D+00
268  2.6700000000000D+00  0.0000000000000D+00  0.0000000000000D+00
269  2.6800000000000D+00  0.0000000000000D+00  0.0000000000000D+00
270  2.6900000000000D+00  0.0000000000000D+00  0.0000000000000D+00
271  2.7000000000000D+00  0.0000000000000D+00  0.0000000000000D+00
272  2.7100000000000D+00  0.0000000000000D+00  0.0000000000000D+00
273  2.7200000000000D+00  0.0000000000000D+00  0.0000000000000D+00
274  2.7300000000000D+00  0.0000000000000D+00  0.0000000000000D+00
275  2.7400000000000D+00  0.0000000000000D+00  0.0000000000000D+00
276  2.7500000000000D+00  0.0000000000000D+00  0.0000000000000D+00
277  2.7600000000000D+00  0.0000000000000D+00  0.0000000000000D+00
278  2.7700000000000D+00  0.0000000000000D+00  0.0000000000000D+00
279  2.7800000000000D+00  0.0000000000000D+00  0.0000000000000D+00
280  2.7900000000000D+00  0.0000000000000D+00  0.0000000000000D+00
281  2.8000000000000D+00  0.0000000000000D+00  0.0000000000000D+00
282  2.8100000000000D+00  0.0000000000000D+00  0.0000000000000D+00
283  2.8200000000000D+00  0.0000000000000D+00  0.0000000000000D+00
284  2.8300000000000D+00  0.0000000000000D+00  0.0000000000000D+00
285  2.8400000000000D+00  0.0000000000000D+00  0.0000000000000D+00
286  2.8500000000000D+00  0.0000000000000D+00  0.0000000000000D+00
287  2.8600000000000D+00  0.0000000000000D+00  0.0000000000000D+00
288  2.8700000000000D+00  0.0000000000000D+00  0.0000000000000D+00
289  2.8800000000000D+00  0.0000000000000D+00  0.0000000000000D+00
290  2.8900000000000D+00  0.0000000000000D+00  0.0000000000000D+00
291  2.9000000000000D+00  0.0000000000000D+00  0.0000000000000D+00
292  2.9100000000000D+00  0.0000000000000D+00  0.0000000000000D+00
293  2.9200000000000D+00  0.0000000000000D+00  0.0000000000000D+00
294  2.9300000000000D+00  0.0000000000000D+00  0.0000000000000D+00
295  2.9400000000000D+00  0.0000000000000D+00  0.0000000000000D+00
296  2.9500000000000D+00  0.0000000000000D+00  0.0000000000000D+00
297  2.9600000000000D+00  0.0000000000000D+00  0.0000000000000D+00
298  2.9700000000000D+00  0.0000000000000D+00  0.0000000000000D+00
299  2.9800000000000D+00  0.0000000000000D+00  0.0000000000000D+00
300  2.9900000000000D+00  0.0000000000000D+00  0.0000000000000D+00
301  3.0000000000000D+00  0.0000000000000D+00  0.0000000000000D+00
302  3.0100000000000D+00  0.0000000000000D+00  0.0000000000000D+00
303  3.0200000000000D+00  0.0000000000000D+00  0.0000000000000D+00
304  3.0300000000000D+00  0.0000000000000D+00  0.0000000000000D+00
305  3.0400000000000D+00  0.0000000000000D+00  0.0000000000000D+00
306  3.0500000000000D+00  0.0000000000000D+00  0.0000000000000D+00
307  3.0600000000000D+00  0.0000000000000D+00  0.0000000000000D+00
308  3.0700000000000D+00  0.0000000000000D+00  0.0000000000000D+00
309  3.0800000000000D+00  0.0000000000000D+00  0.0000000000000D+00
310  3.0900000000000D+00  0.0000000000000D+00  0.0000000000000D+00
311  3.1000000000000D+00  0.0000000000000D+00  0.0000000000000D+00
312  3.1100000000000D+00  0.0000000000000D+00  0.0000000000000D+00
313  3.1200000000000D+00  0.0000000000000D+00  0.0000000000000D+00
314  3.1300000000000D+00  0.0000000000000D+00  0.0000000000000D+00
315  3.1400000000000D+00  0.0000000000000D+00  0.0000000000000D+00
316  3.1500000000000D+00  0.0000000000000D+00  0.0000000000000D+00
317  3.1600000000000D+00  0.0000000000000D+00  0.0000000000000D+00
318  3.1700000000000D+00  0.0000000000000D+00  0.0000000000000D+00
319  3.1800000000000D+00  0.0000000000000D+00  0.0000000000000D+00
320  3.1900000000000D+00  0.0000000000000D+00  0.0000000000000D+00
321  3.2000000000000D+00  0.0000000000000D+00  0.0000000000000D+00
322  3.2100000000000D+00  0.0000000000000D+00  0.0000000000000D+00
323  3.2200000000000D+00  0.0000000000000D+00  0.0000000000000D+00
324  3.2300000000000D+00  0.0000000000000D+00  0.0000000000000D+00
325  3.2400000000000D+00  0.0000000000000D+00  0.0000000000000D+00
326  3.2500000000000D+00  0.0000000000000D+00  0.0000000000000D+00
327  3.2600000000000D+00  0.0000000000000D+00  0.0000000000000D+00
328  3.2700000000000D+00  0.0000000000000D+00  0.0000000000000D+00
329  3.2800000000000D+00  0.0000000000000D+00  0.0000000000000D+00
330  3.2900000000000D+00  0.0000000000000D+00  0.0000000000000D+00
331  3.3000000000000D+00  0.0000000000000D+00  0.0000000000000D+00
332  3.3100000000000D+00  0.0000000000000D+00  0.0000000000000D+00
333  3.3200000000000D+00  0.0000000000000D+00  0.0000000000000D+00
334  3.3300000000000D+00  0.0000000000000D+00  0.0000000000000D+00
335  3.3400000000000D+00  0.0000000000000D+00  0.0000000000000D+00
336  3.3500000000000D+00  0.0000000000000D+00  0.0000000000000D+00
337  3.3600000000000D+00  0.0000000000000D+00  0.0000000000000D+00
338  3.3700000000000D+00  0.0000000000000D+00  0.0000000000000D+00
339  3.3800000000000D+00  0.0000000000000D+00  0.0000000000000D+00
340  3.3900000000000D+00  0.0000000000000D+00  0.0000000000000D+00
341  3.4000000000000D+00  0.0000000000000D+00  0.0000000000000D+00
342  3.4100000000000D+00  0.0000000000000D+00  0.0000000000000D+00
343  3.4200000000000D+00  0.0000000000000D+00  0.0000000000000D+00
344  3.4300000000000D+00  0.0000000000000D+00  0.0000000000000D+00
345  3.4400000000000D+00  0.0000000000000D+00  0.0000000000000D+00
346  3.4500000000000D+00  0.0000000000000D+00  0.0000000000000D+00
347  3.4600000000000D+00  0.0000000000000D+00  0.0000000000000D+00
348  3.4700000000000D+00  0.0000000000000D+00  0.0000000000000D+00
349  3.4800000000000D+00  0.0000000000000D+00  0.0000000000000D+00
350  3.4900000000000D+00  0.0000000000000D+00  0.0000000000000D+00
351  3.5000000000000D+00  0.0000000000000D+00  0.0000000000000D+00
352  3.5100000000000D+00  0.0000000000000D+00  0.0000000000000D+00
353  3.5200000000000D+00  0.0000000000000D+00  0.0000000000000D+00
354  3.5300000000000D+00  0.0000000000000D+00  0.0000000000000D+00
355  3.5400000000000D+00  0.0000000000000D+00  0.0000000000000D+00
356  3.5500000000000D+00  0.0000000000000D+00  0.0000000000000D+00
357  3.5600000000000D+00  0.0000000000000D+00  0.0000000000000D+00
358  3.5700000000000D+00  0.0000000000000D+00  0.0000000000000D+00
359  3.5800000000000D+00  0.0000000000000D+00  0.0000000000000D+00
360  3.5900000000000D+00  0.0000000000000D+00  0.0000000000000D+00
361  3.6000000000000D+00  0.0000000000000D+00  0.0000000000000D+00
362  3.6100000000000D+00  0.0000000000000D+00  0.0000000000000D+00
363  3.6200000000000D+00  0.0000000000000D+00  0.0000000000000D+00
364  3.6300000000000D+00  0.0000000000000D+00  0.0000000000000D+00
365  3.6400000000000D+00  0.0000000000000D+00  0.0000000000000D+00
366  3.6500000000000D+00  0.0000000000000D+00  0.0000000000000D+00
367  3.6600000000000D+00  0.0000000000000D+00  0.0000000000000D+00
368  3.6700000000000D+00  0.0000000000000D+00  0.0000000000000D+00
369  3.6800000000000D+00  0.0000000000000D+00  0.0000000000000D+00
370  3.6900000000000D+00  0.0000000000000D+00  0.0000000000000D+00
371  3.7000000000000D+00  0.0000000000000D+00  0.0000000000000D+00
372  3.7100000000000D+00  0.0000000000000D+00  0.0000000000000D+00
373  3.7200000000000D+00  0.0000000000000D+00  0.0000000000000D+00
374  3.7300000000000D+00  0.0000000000000D+00  0.0000000000000D+00
375  3.7400000000000D+00  0.0000000000000D+00  0.0000000000000D+00
376  3.7500000000000D+00  0.0000000000000D+00  0.0000000000000D+00
377  3.7600000000000D+00  0.0000000000000D+00  0.0000000000000D+00
378  3.7700000000000D+00  0.0000000000000D+00  0.0000000000000D+00
379  3.7800000000000D+00  0.0000000000000D+00  0.0000000000000D+00
380  3.7900000000000D+00  0.0000000000000D+00  0.0000000000000D+00
381  3.8000000000000D+00  0.0000000000000D+00  0.0000000000000D+00
382  3.8100000000000D+00  0.0000000000000D+00  0.0000000000000D+00
383  3.8200000000000D+00  0.0000000000000D+00  0.0000000000000D+00
384  3.8300000000000D+00  0.0000000000000D+00  0.0000000000000D+00
385  3.8400000000000D+00  0.0000000000000D+00  0.0000000000000D+00
386  3.8500000000000D+00  0.0000000000000D+00  0.0000000000000D+00
387  3.8600000000000D+00  0.0000000000000D+00  0.0000000000000D+00
388  3.8700000000000D+00  0.0000000000000D+00  0.0000000000000D+00
389  3.8800000000000D+00  0.0000000000000D+00  0.0000000000000D+00
390  3.8900000000000D+00  0.0000000000000D+00  0.0000000000000D+00
391  3.9000000000000D+00  0.0000000000000D+00  0.0000000000000D+00
392  3.9100000000000D+00  0.0000000000000D+00  0.0000000000000D+00
393  3.9200000000000D+00  0.0000000000000D+00  0.0000000000000D+00
394  3.9300000000000D+00  0.0000000000000D+00  0.0000000000000D+00
395  3.9400000000000D+00  0.0000000000000D+00  0.0000000000000D+00
396  3.9500000000000D+00  0.0000000000000D+00  0.0000000000000D+00
397  3.9600000000000D+00  0.0000000000000D+00  0.0000000000000D+00
398  3.9700000000000D+00  0.0000000000000D+00  0.0000000000000D+00
399  3.9800000000000D+00  0.0000000000000D+00  0.0000000000000D+00
400  3.9900000000000D+00  0.0000000000000D+00  0.0000000000000D+00
401  4.0000000000000D+00  0.0000000000000D+00  0.0000000000000D+00
402  4.0100000000000D+00  0.0000000000000D+00  0.0000000000000D+00
403  4.0200000000000D+00  0.0000000000000D+00  0.0000000000000D+00
404  4.0300000000000D+00  0.0000000000000D+00  0.0000000000000D+00
405  4.0400000000000D+00  0.0000000000000D+00  0.0000000000000D+00
406  4.0500000000000D+00  0.0000000000000D+00  0.0000000000000D+00
407  4.0600000000000D+00  0.0000000000000D+00  0.0000000000000D+00
408  4.0700000000000D+00  0.0000000000000D+00  0.0000000000000D+00
409  4.0800000000000D+00  0.0000000000000D+00  0.0000000000000D+00
410  4.0900000000000D+00  0.0000000000000D+00  0.0000000000000D+00
411  4.1000000000000D+00  0.0000000000000D+00  0.0000000000000D+00
412  4.1100000000000D+00  0.0000000000000D+00  0.0000000000000D+00
413  4.1200000000000D+00  0.0000000000000D+00  0.0000000000000D+00
414  4.1300000000000D+00  0.0000000000000D+00  0.0000000000000D+00
415  4.1400000000000D+00  0.0000000000000D+00  0.0000000000000D+00
416  4.1500000000000D+00  0.0000000000000D+00  0.0000000000000D+00
417  4.1600000000000D+00  0.0000000000000D+00  0.0000000000000D+00
418  4.1700000000000D+00  0.0000000000000D+00  0.0000000000000D+00
419  4.1800000000000D+00  0.0000000000000D+00  0.0000000000000D+00
420  4.1900000000000D+00  0.0000000000000D+00  0.0000000000000D+00
421  4.2000000000000D+00  0.0000000000000D+00  0.0000000000000D+00
422  4.2100000000000D+00  0.0000000000000D+00  0.0000000000000D+00
423  4.2200000000000D+00  0.0000000000000D+00  0.0000000000000D+00
424  4.2300000000000D+00  0.0000000000000D+00  0.0000000000000D+00
425  4.2400000000000D+00  0.0000000000000D+00  0.0000000000000D+00
426  4.2500000000000D+00  0.0000000000000D+00  0.0000000000000D+00
427  4.2600000000000D+00  0.0000000000000D+00  0.0000000000000D+00
428  4.2700000000000D+00  0.0000000000000D+00  0.0000000000000D+00
429  4.2800000000000D+00  0.0000000000000D+00  0.0000000000000D+00
430  4.2900000000000D+00  0.0000000000000D+00  0.0000000000000D+00
431  4.3000000000000D+00  0.0000000000000D+00  0.0000000000000D+00
432  4.3100000000000D+00  0.0000000000000D+00  0.0000000000000D+00
433  4.3200000000000D+00  0.0000000000000D+00  0.0000000000000D+00
434  4.3300000000000D+00  0.0000000000000D+00  0.0000000000000D+00
435  4.3400000000000D+00  0.0000000000000D+00  0.0000000000000D+00
436  4.3500000000000D+00  0.0000000000000D+00  0.0000000000000D+00
437  4.3600000000000D+00  0.0000000000000D+00  0.0000000000000D+00
438  4.3700000000000D+00  0.0000000000000D+00  0.0000000000000D+00
439  4.3800000000000D+00  0.0000000000000D+00  0.0000000000000D+00
440  4.3900000000000D+00  0.0000000000000D+00  0.0000000000000D+00
441  4.4000000000000D+00  0.0000000000000D+00  0.0000000000000D+00
442  4.4100000000000D+00  0.0000000000000D+00  0.0000000000000D+00
443  4.4200000000000D+00  0.0000000000000D+00  0.0000000000000D+00
444  4.4300000000000D+00  0.0000000000000D+00  0.0000000000000D+00