Al    ONCVPSP  r_core=  1.81  1.81  1.92
13.0000      3.0000      141210    zatom,zion,pspd
8    11     2     4   601     0    pspcod,pspxc,lmax,lloc,mmax,r2well
6.00000000  0.65000000  0.00000000    rchrg fchrg qchrg
2     2     2     0     0    nproj
0                 extension_switch
0                         4.8591323901425D+00  6.4559064373540D-01
1  0.0000000000000D+00 -0.0000000000000D+00  0.0000000000000D+00
2  1.0000000000000D-02 -1.3296161998034D-02  2.1417146234822D-02
3  2.0000000000000D-02 -2.6697648081043D-02  4.2568068330659D-02
4  3.0000000000000D-02 -4.0308629404696D-02  6.3189299861268D-02
5  4.0000000000000D-02 -5.4230982491496D-02  8.3022862903208D-02
6  5.0000000000000D-02 -6.8563169870720D-02  1.0181894523768D-01
7  6.0000000000000D-02 -8.3399153969808D-02  1.1933849780483D-01
8  7.0000000000000D-02 -9.8827354842463D-02  1.3535572702545D-01
9  8.0000000000000D-02 -1.1492966191453D-01  1.4966045757585D-01
10  9.0000000000000D-02 -1.3178050939429D-01  1.6206034248542D-01
11  1.0000000000000D-01 -1.4944602441176D-01  1.7238289882413D-01
12  1.1000000000000D-01 -1.6798325624477D-01  1.8047734894529D-01
13  1.2000000000000D-01 -1.8743949420872D-01  1.8621624912358D-01
14  1.3000000000000D-01 -2.0785168093668D-01  1.8949688947077D-01
15  1.4000000000000D-01 -2.2924592700011D-01  1.9024245087772D-01
16  1.5000000000000D-01 -2.5163713146951D-01  1.8840290796988D-01
17  1.6000000000000D-01 -2.7502871267323D-01  1.8395566789350D-01
18  1.7000000000000D-01 -2.9941245145855D-01  1.7690593942618D-01
19  1.8000000000000D-01 -3.2476844920588D-01  1.6728682705298D-01
20  1.9000000000000D-01 -3.5106520076826D-01  1.5515914961808D-01
21  2.0000000000000D-01 -3.7825978217460D-01  1.4061098399326D-01
22  2.1000000000000D-01 -4.0629815133673D-01  1.2375693798833D-01
23  2.2000000000000D-01 -4.3511555924261D-01  1.0473715863168D-01
24  2.3000000000000D-01 -4.6463706786844D-01  8.3716084854861D-02
25  2.4000000000000D-01 -4.9477816914547D-01  6.0880958245920D-02
26  2.5000000000000D-01 -5.2544550315904D-01  3.6440096230591D-02
27  2.6000000000000D-01 -5.5653765955863D-01  1.0620966270080D-02
28  2.7000000000000D-01 -5.8794607003124D-01 -1.6331957885830D-02
29  2.8000000000000D-01 -6.1955596564063D-01 -4.4159494825580D-02
30  2.9000000000000D-01 -6.5124740370250D-01 -7.2590220273415D-02
31  3.0000000000000D-01 -6.8289634863014D-01 -1.0134306062012D-01
32  3.1000000000000D-01 -7.1437579735101D-01 -1.3012999260998D-01
33  3.2000000000000D-01 -7.4555693176555D-01 -1.5865880709373D-01
34  3.3000000000000D-01 -7.7631031578815D-01 -1.8663597893048D-01
35  3.4000000000000D-01 -8.0650707323139D-01 -2.1376949002205D-01
36  3.5000000000000D-01 -8.3602008638752D-01 -2.3977170115754D-01
37  3.6000000000000D-01 -8.6472517887771D-01 -2.6436218518910D-01
38  3.7000000000000D-01 -8.9250228237341D-01 -2.8727052058516D-01
39  3.8000000000000D-01 -9.1923653736869D-01 -3.0823892589999D-01
40  3.9000000000000D-01 -9.4481939674440D-01 -3.2702489992411D-01
41  4.0000000000000D-01 -9.6914964889930D-01 -3.4340366795797D-01
42  4.1000000000000D-01 -9.9213436280215D-01 -3.5717043990835D-01
43  4.2000000000000D-01 -1.0136897781976D+00 -3.6814253583047D-01
44  4.3000000000000D-01 -1.0337421054580D+00 -3.7616129382608D-01
45  4.4000000000000D-01 -1.0522282332678D+00 -3.8109375595559D-01
46  4.5000000000000D-01 -1.0690963369818D+00 -3.8283411502267D-01
47  4.6000000000000D-01 -1.0843063811599D+00 -3.8130490667922D-01
48  4.7000000000000D-01 -1.0978305031631D+00 -3.7645791554143D-01
49  4.8000000000000D-01 -1.1096532950206D+00 -3.6827483645455D-01
50  4.9000000000000D-01 -1.1197719942610D+00 -3.5676771613188D-01
51  5.0000000000000D-01 -1.1281964779966D+00 -3.4197892326403D-01
52  5.1000000000000D-01 -1.1349491681878D+00 -3.2398090502848D-01
53  5.2000000000000D-01 -1.1400648932161D+00 -3.0287583634739D-01
54  5.3000000000000D-01 -1.1435905248503D+00 -2.7879473155459D-01
55  5.4000000000000D-01 -1.1455844934147D+00 -2.5189626600931D-01
56  5.5000000000000D-01 -1.1461163433180D+00 -2.2236568566622D-01
57  5.6000000000000D-01 -1.1452659524097D+00 -1.9041292296052D-01
58  5.7000000000000D-01 -1.1431228429931D+00 -1.5627091831649D-01
59  5.8000000000000D-01 -1.1397852869024D+00 -1.2019346146819D-01
60  5.9000000000000D-01 -1.1353593326015D+00 -8.2452830728920D-02
61  6.0000000000000D-01 -1.1299578645446D+00 -4.3337528402944D-02
62  6.1000000000000D-01 -1.1236993276432D+00 -3.1491892856699D-03
63  6.2000000000000D-01 -1.1167067498994D+00  3.7799770380322D-02
64  6.3000000000000D-01 -1.1091064352150D+00  7.9189312623547D-02
65  6.4000000000000D-01 -1.1010266205338D+00  1.2069501923937D-01
66  6.5000000000000D-01 -1.0925964125343D+00  1.6199065281450D-01
67  6.6000000000000D-01 -1.0839443597129D+00  2.0275160385473D-01
68  6.7000000000000D-01 -1.0751970093410D+00  2.4265837227713D-01
69  6.8000000000000D-01 -1.0664778598080D+00  2.8139909053446D-01
70  6.9000000000000D-01 -1.0579061104047D+00  3.1867253881548D-01
71  7.0000000000000D-01 -1.0495951972197D+00  3.5419167753028D-01
72  7.1000000000000D-01 -1.0416516270762D+00  3.8768645859352D-01
73  7.2000000000000D-01 -1.0341740207301D+00  4.1890613170178D-01
74  7.3000000000000D-01 -1.0272519682617D+00  4.4762200601846D-01
75  7.4000000000000D-01 -1.0209650399617D+00  4.7362983688500D-01
76  7.5000000000000D-01 -1.0153820306528D+00  4.9675164962208D-01
77  7.6000000000000D-01 -1.0105597291167D+00  5.1683871288197D-01
78  7.7000000000000D-01 -1.0065426208576D+00  5.3377225780507D-01
79  7.8000000000000D-01 -1.0033622242882D+00  5.4746508539607D-01
80  7.9000000000000D-01 -1.0010366130190D+00  5.5786272635908D-01
81  8.0000000000000D-01 -9.9957008353652D-01  5.6494425204032D-01
82  8.1000000000000D-01 -9.9895295342760D-01  5.6872277257720D-01
83  8.2000000000000D-01 -9.9916149321088D-01  5.6924561504922D-01
84  8.3000000000000D-01 -1.0001579936277D+00  5.6659417734377D-01
85  8.4000000000000D-01 -1.0018909690246D+00  5.6088345638061D-01
86  8.5000000000000D-01 -1.0042954962419D+00  5.5226125227011D-01
87  8.6000000000000D-01 -1.0072936872068D+00  5.4090705289984D-01
88  8.7000000000000D-01 -1.0107952922217D+00  5.2703060634780D-01
89  8.8000000000000D-01 -1.0146984297367D+00  5.1087019140917D-01
90  8.9000000000000D-01 -1.0188904371953D+00  4.9269059939802D-01
91  9.0000000000000D-01 -1.0232488363512D+00  4.7278084324745D-01
92  9.1000000000000D-01 -1.0276424052640D+00  4.5145161277789D-01
93  9.2000000000000D-01 -1.0319323480088D+00  4.2903249781988D-01
94  9.3000000000000D-01 -1.0359735519750D+00  4.0586900363505D-01
95  9.4000000000000D-01 -1.0396159215272D+00  3.8231938572946D-01
96  9.5000000000000D-01 -1.0427056689601D+00  3.5875158121682D-01
97  9.6000000000000D-01 -1.0450869299379D+00  3.3553939118766D-01
98  9.7000000000000D-01 -1.0466032966554D+00  3.1305884058105D-01
99  9.8000000000000D-01 -1.0470992259068D+00  2.9168483872643D-01
100  9.9000000000000D-01 -1.0464216175102D+00  2.7178744646380D-01
101  1.0000000000000D+00 -1.0444213470761D+00  2.5372825178270D-01
102  1.0100000000000D+00 -1.0409547780392D+00  2.3785679837271D-01
103  1.0200000000000D+00 -1.0358847001364D+00  2.2450836557867D-01
104  1.0300000000000D+00 -1.0290829868860D+00  2.1399771773654D-01
105  1.0400000000000D+00 -1.0204316471140D+00  2.0661662933138D-01
106  1.0500000000000D+00 -1.0098236270648D+00  2.0263200546130D-01
107  1.0600000000000D+00 -9.9716428373997D-01  2.0228243321695D-01
108  1.0700000000000D+00 -9.8237178498019D-01  2.0577725603471D-01
109  1.0800000000000D+00 -9.6537949195750D-01  2.1329100611716D-01
110  1.0900000000000D+00 -9.4613756294716D-01  2.2495968837859D-01
111  1.1000000000000D+00 -9.2461177495905D-01  2.4088358327300D-01
112  1.1100000000000D+00 -9.0078466288613D-01  2.6112462456491D-01
113  1.1200000000000D+00 -8.7465489023998D-01  2.8570790102301D-01
114  1.1300000000000D+00 -8.4624295593268D-01  3.1460844767923D-01
115  1.1400000000000D+00 -8.1558580304268D-01  3.4776389999644D-01
116  1.1500000000000D+00 -7.8273801588033D-01  3.8507177277294D-01
117  1.1600000000000D+00 -7.4777173204535D-01  4.2638972160735D-01
118  1.1700000000000D+00 -7.1078056565938D-01  4.7152668884852D-01
119  1.1800000000000D+00 -6.7187372390481D-01  5.2025661340756D-01
120  1.1900000000000D+00 -6.3117599103286D-01  5.7231850163423D-01
121  1.2000000000000D+00 -5.8883104716076D-01  6.2740909062106D-01
122  1.2100000000000D+00 -5.4499790985639D-01  6.8519128428282D-01
123  1.2200000000000D+00 -4.9984853757318D-01  7.4529964327955D-01
124  1.2300000000000D+00 -4.5356893491985D-01  8.0733807501782D-01
125  1.2400000000000D+00 -4.0635825405133D-01  8.7088262994553D-01
126  1.2500000000000D+00 -3.5842476817105D-01  9.3549035475936D-01
127  1.2600000000000D+00 -3.0998670043174D-01  1.0006975488864D+00
128  1.2700000000000D+00 -2.6126963596304D-01  1.0660271354283D+00
129  1.2800000000000D+00 -2.1250441533166D-01  1.1309924118498D+00
130  1.2900000000000D+00 -1.6392758960551D-01  1.1950963673085D+00
131  1.3000000000000D+00 -1.1577507098093D-01  1.2578481829307D+00
132  1.3100000000000D+00 -6.8284968226383D-02  1.3187547635236D+00
133  1.3200000000000D+00 -2.1694780266612D-02  1.3773284204450D+00
134  1.3300000000000D+00  2.3766302761503D-02  1.4331060770292D+00
135  1.3400000000000D+00  6.7868389804813D-02  1.4856259011590D+00
136  1.3500000000000D+00  1.1039331943956D-01  1.5344590420483D+00
137  1.3600000000000D+00  1.5113479555406D-01  1.5792093273436D+00
138  1.3700000000000D+00  1.8988595764555D-01  1.6194821045491D+00
139  1.3800000000000D+00  2.2646971149761D-01  1.6549601424844D+00
140  1.3900000000000D+00  2.6071196018556D-01  1.6853362686200D+00
141  1.4000000000000D+00  2.9245595972769D-01  1.7103495967788D+00
142  1.4100000000000D+00  3.2157279098045D-01  1.7298102328362D+00
143  1.4200000000000D+00  3.4793308155243D-01  1.7435308180847D+00
144  1.4300000000000D+00  3.7145134495907D-01  1.7514296642892D+00
145  1.4400000000000D+00  3.9204636267428D-01  1.7534323551009D+00
146  1.4500000000000D+00  4.0966433169980D-01  1.7495240145898D+00
147  1.4600000000000D+00  4.2428026411595D-01  1.7397407266424D+00
148  1.4700000000000D+00  4.3587380159948D-01  1.7241314620568D+00
149  1.4800000000000D+00  4.4447211658698D-01  1.7028213254491D+00
150  1.4900000000000D+00  4.5009867833993D-01  1.6759321862122D+00
151  1.5000000000000D+00  4.5281911622087D-01  1.6436487126308D+00
152  1.5100000000000D+00  4.5270571616236D-01  1.6061670232779D+00
153  1.5200000000000D+00  4.4985607225390D-01  1.5637202363979D+00
154  1.5300000000000D+00  4.4438712626943D-01  1.5165722375635D+00
155  1.5400000000000D+00  4.3642662755569D-01  1.4650035295846D+00
156  1.5500000000000D+00  4.2612896899625D-01  1.4093411010010D+00
157  1.5600000000000D+00  4.1365006614316D-01  1.3499137335764D+00
158  1.5700000000000D+00  3.9917358992315D-01  1.2871075119320D+00
159  1.5800000000000D+00  3.8288250071959D-01  1.2213048899739D+00
160  1.5900000000000D+00  3.6498100725316D-01  1.1529428070669D+00
161  1.6000000000000D+00  3.4567530180524D-01  1.0824594347800D+00
162  1.6100000000000D+00  3.2518427292886D-01  1.0103350721885D+00
163  1.6200000000000D+00  3.0373068403768D-01  9.3705694115917D-01
164  1.6300000000000D+00  2.8154320765478D-01  8.6314067629707D-01
165  1.6400000000000D+00  2.5885369323416D-01  7.8910943910953D-01
166  1.6500000000000D+00  2.3589486736864D-01  7.1550191851635D-01
167  1.6600000000000D+00  2.1290005971208D-01  6.4285979484332D-01
168  1.6700000000000D+00  1.9009937653608D-01  5.7172831811969D-01
169  1.6800000000000D+00  1.6772020262031D-01  5.0264806308107D-01
170  1.6900000000000D+00  1.4598243416120D-01  4.3615069914210D-01
171  1.7000000000000D+00  1.2510064391860D-01  3.7275618744549D-01
172  1.7100000000000D+00  1.0527618225965D-01  3.1295981510292D-01
173  1.7200000000000D+00  8.6704866818184D-02  2.5724346530476D-01
174  1.7300000000000D+00  6.9560730336188D-02  2.0604188062875D-01
175  1.7400000000000D+00  5.4016075535818D-02  1.5978465374265D-01
176  1.7500000000000D+00  4.0208865390314D-02  1.1882199927529D-01
177  1.7600000000000D+00  2.8284383108404D-02  8.3520639306706D-02
178  1.7700000000000D+00  1.8336399019503D-02  5.4124218485848D-02
179  1.7800000000000D+00  1.0480759086002D-02  3.0929210264269D-02
180  1.7900000000000D+00  4.7893869858047D-03  1.4140818731490D-02
181  1.8000000000000D+00  1.5709137102710D-03  4.6442487267830D-03
182  1.8100000000000D+00  2.1561566981873D-05  7.3666676591264D-05
183  1.8200000000000D+00 -3.6722114892876D-04 -1.0776118700382D-03
184  1.8300000000000D+00 -1.0404957218477D-04 -3.0597921047997D-04
185  1.8400000000000D+00  2.4774473560160D-06  6.6562843152898D-06
186  1.8500000000000D+00  1.2914377268951D-06  3.4697716844844D-06
187  1.8600000000000D+00  0.0000000000000D+00  0.0000000000000D+00
188  1.8700000000000D+00  0.0000000000000D+00  0.0000000000000D+00
189  1.8800000000000D+00  0.0000000000000D+00  0.0000000000000D+00
190  1.8900000000000D+00  0.0000000000000D+00  0.0000000000000D+00
191  1.9000000000000D+00  0.0000000000000D+00  0.0000000000000D+00
192  1.9100000000000D+00  0.0000000000000D+00  0.0000000000000D+00
193  1.9200000000000D+00  0.0000000000000D+00  0.0000000000000D+00
194  1.9300000000000D+00  0.0000000000000D+00  0.0000000000000D+00
195  1.9400000000000D+00  0.0000000000000D+00  0.0000000000000D+00
196  1.9500000000000D+00  0.0000000000000D+00  0.0000000000000D+00
197  1.9600000000000D+00  0.0000000000000D+00  0.0000000000000D+00
198  1.9700000000000D+00  0.0000000000000D+00  0.0000000000000D+00
199  1.9800000000000D+00  0.0000000000000D+00  0.0000000000000D+00
200  1.9900000000000D+00  0.0000000000000D+00  0.0000000000000D+00
201  2.0000000000000D+00  0.0000000000000D+00  0.0000000000000D+00
202  2.0100000000000D+00  0.0000000000000D+00  0.0000000000000D+00
203  2.0200000000000D+00  0.0000000000000D+00  0.0000000000000D+00
204  2.0300000000000D+00  0.0000000000000D+00  0.0000000000000D+00
205  2.0400000000000D+00  0.0000000000000D+00  0.0000000000000D+00
206  2.0500000000000D+00  0.0000000000000D+00  0.0000000000000D+00
207  2.0600000000000D+00  0.0000000000000D+00  0.0000000000000D+00
208  2.0700000000000D+00  0.0000000000000D+00  0.0000000000000D+00
209  2.0800000000000D+00  0.0000000000000D+00  0.0000000000000D+00
210  2.0900000000000D+00  0.0000000000000D+00  0.0000000000000D+00
211  2.1000000000000D+00  0.0000000000000D+00  0.0000000000000D+00
212  2.1100000000000D+00  0.0000000000000D+00  0.0000000000000D+00
213  2.1200000000000D+00  0.0000000000000D+00  0.0000000000000D+00
214  2.1300000000000D+00  0.0000000000000D+00  0.0000000000000D+00
215  2.1400000000000D+00  0.0000000000000D+00  0.0000000000000D+00
216  2.1500000000000D+00  0.0000000000000D+00  0.0000000000000D+00
217  2.1600000000000D+00  0.0000000000000D+00  0.0000000000000D+00
218  2.1700000000000D+00  0.0000000000000D+00  0.0000000000000D+00
219  2.1800000000000D+00  0.0000000000000D+00  0.0000000000000D+00
220  2.1900000000000D+00  0.0000000000000D+00  0.0000000000000D+00
221  2.2000000000000D+00  0.0000000000000D+00  0.0000000000000D+00
222  2.2100000000000D+00  0.0000000000000D+00  0.0000000000000D+00
223  2.2200000000000D+00  0.0000000000000D+00  0.0000000000000D+00
224  2.2300000000000D+00  0.0000000000000D+00  0.0000000000000D+00
225  2.2400000000000D+00  0.0000000000000D+00  0.0000000000000D+00
226  2.2500000000000D+00  0.0000000000000D+00  0.0000000000000D+00
227  2.2600000000000D+00  0.0000000000000D+00  0.0000000000000D+00
228  2.2700000000000D+00  0.0000000000000D+00  0.0000000000000D+00
229  2.2800000000000D+00  0.0000000000000D+00  0.0000000000000D+00
230  2.2900000000000D+00  0.0000000000000D+00  0.0000000000000D+00
231  2.3000000000000D+00  0.0000000000000D+00  0.0000000000000D+00
232  2.3100000000000D+00  0.0000000000000D+00  0.0000000000000D+00
233  2.3200000000000D+00  0.0000000000000D+00  0.0000000000000D+00
234  2.3300000000000D+00  0.0000000000000D+00  0.0000000000000D+00
235  2.3400000000000D+00  0.0000000000000D+00  0.0000000000000D+00
236  2.3500000000000D+00  0.0000000000000D+00  0.0000000000000D+00
237  2.3600000000000D+00  0.0000000000000D+00  0.0000000000000D+00
238  2.3700000000000D+00  0.0000000000000D+00  0.0000000000000D+00
239  2.3800000000000D+00  0.0000000000000D+00  0.0000000000000D+00
240  2.3900000000000D+00  0.0000000000000D+00  0.0000000000000D+00
241  2.4000000000000D+00  0.0000000000000D+00  0.0000000000000D+00
242  2.4100000000000D+00  0.0000000000000D+00  0.0000000000000D+00
243  2.4200000000000D+00  0.0000000000000D+00  0.0000000000000D+00
244  2.4300000000000D+00  0.0000000000000D+00  0.0000000000000D+00
245  2.4400000000000D+00  0.0000000000000D+00  0.0000000000000D+00
246  2.4500000000000D+00  0.0000000000000D+00  0.0000000000000D+00
247  2.4600000000000D+00  0.0000000000000D+00  0.0000000000000D+00
248  2.4700000000000D+00  0.0000000000000D+00  0.0000000000000D+00
249  2.4800000000000D+00  0.0000000000000D+00  0.0000000000000D+00
250  2.4900000000000D+00  0.0000000000000D+00  0.0000000000000D+00
251  2.5000000000000D+00  0.0000000000000D+00  0.0000000000000D+00
252  2.5100000000000D+00  0.0000000000000D+00  0.0000000000000D+00
253  2.5200000000000D+00  0.0000000000000D+00  0.0000000000000D+00
254  2.5300000000000D+00  0.0000000000000D+00  0.0000000000000D+00
255  2.5400000000000D+00  0.0000000000000D+00  0.0000000000000D+00
256  2.5500000000000D+00  0.0000000000000D+00  0.0000000000000D+00
257  2.5600000000000D+00  0.0000000000000D+00  0.0000000000000D+00
258  2.5700000000000D+00  0.0000000000000D+00  0.0000000000000D+00
259  2.5800000000000D+00  0.0000000000000D+00  0.0000000000000D+00
260  2.5900000000000D+00  0.0000000000000D+00  0.0000000000000D+00
261  2.6000000000000D+00  0.0000000000000D+00  0.0000000000000D+00
262  2.6100000000000D+00  0.0000000000000D+00  0.0000000000000D+00
263  2.6200000000000D+00  0.0000000000000D+00  0.0000000000000D+00
264  2.6300000000000D+00  0.0000000000000D+00  0.0000000000000D+00
265  2.6400000000000D+00  0.0000000000000D+00  0.0000000000000D+00
266  2.6500000000000D+00  0.0000000000000D+00  0.0000000000000D+00
267  2.6600000000000D+00  0.0000000000000D+00  0.0000000000000D+00
268  2.6700000000000D+00  0.0000000000000D+00  0.0000000000000D+00
269  2.6800000000000D+00  0.0000000000000D+00  0.0000000000000D+00
270  2.6900000000000D+00  0.0000000000000D+00  0.0000000000000D+00
271  2.7000000000000D+00  0.0000000000000D+00  0.0000000000000D+00
272  2.7100000000000D+00  0.0000000000000D+00  0.0000000000000D+00
273  2.7200000000000D+00  0.0000000000000D+00  0.0000000000000D+00
274  2.7300000000000D+00  0.0000000000000D+00  0.0000000000000D+00
275  2.7400000000000D+00  0.0000000000000D+00  0.0000000000000D+00
276  2.7500000000000D+00  0.0000000000000D+00  0.0000000000000D+00
277  2.7600000000000D+00  0.0000000000000D+00  0.0000000000000D+00
278  2.7700000000000D+00  0.0000000000000D+00  0.0000000000000D+00
279  2.7800000000000D+00  0.0000000000000D+00  0.0000000000000D+00
280  2.7900000000000D+00  0.0000000000000D+00  0.0000000000000D+00
281  2.8000000000000D+00  0.0000000000000D+00  0.0000000000000D+00
282  2.8100000000000D+00  0.0000000000000D+00  0.0000000000000D+00
283  2.8200000000000D+00  0.0000000000000D+00  0.0000000000000D+00
284  2.8300000000000D+00  0.0000000000000D+00  0.0000000000000D+00
285  2.8400000000000D+00  0.0000000000000D+00  0.0000000000000D+00
286  2.8500000000000D+00  0.0000000000000D+00  0.0000000000000D+00
287  2.8600000000000D+00  0.0000000000000D+00  0.0000000000000D+00
288  2.8700000000000D+00  0.0000000000000D+00  0.0000000000000D+00
289  2.8800000000000D+00  0.0000000000000D+00  0.0000000000000D+00
290  2.8900000000000D+00  0.0000000000000D+00  0.0000000000000D+00
291  2.9000000000000D+00  0.0000000000000D+00  0.0000000000000D+00
292  2.9100000000000D+00  0.0000000000000D+00  0.0000000000000D+00
293  2.9200000000000D+00  0.0000000000000D+00  0.0000000000000D+00
294  2.9300000000000D+00  0.0000000000000D+00  0.0000000000000D+00
295  2.9400000000000D+00  0.0000000000000D+00  0.0000000000000D+00
296  2.9500000000000D+00  0.0000000000000D+00  0.0000000000000D+00
297  2.9600000000000D+00  0.0000000000000D+00  0.0000000000000D+00
298  2.9700000000000D+00  0.0000000000000D+00  0.0000000000000D+00
299  2.9800000000000D+00  0.0000000000000D+00  0.0000000000000D+00
300  2.9900000000000D+00  0.0000000000000D+00  0.0000000000000D+00
301  3.0000000000000D+00  0.0000000000000D+00  0.0000000000000D+00
302  3.0100000000000D+00  0.0000000000000D+00  0.0000000000000D+00
303  3.0200000000000D+00  0.0000000000000D+00  0.0000000000000D+00
304  3.0300000000000D+00  0.0000000000000D+00  0.0000000000000D+00
305  3.0400000000000D+00  0.0000000000000D+00  0.0000000000000D+00
306  3.0500000000000D+00  0.0000000000000D+00  0.0000000000000D+00
307  3.0600000000000D+00  0.0000000000000D+00  0.0000000000000D+00
308  3.0700000000000D+00  0.0000000000000D+00  0.0000000000000D+00
309  3.0800000000000D+00  0.0000000000000D+00  0.0000000000000D+00
310  3.0900000000000D+00  0.0000000000000D+00  0.0000000000000D+00
311  3.1000000000000D+00  0.0000000000000D+00  0.0000000000000D+00
312  3.1100000000000D+00  0.0000000000000D+00  0.0000000000000D+00
313  3.1200000000000D+00  0.0000000000000D+00  0.0000000000000D+00
314  3.1300000000000D+00  0.0000000000000D+00  0.0000000000000D+00
315  3.1400000000000D+00  0.0000000000000D+00  0.0000000000000D+00
316  3.1500000000000D+00  0.0000000000000D+00  0.0000000000000D+00
317  3.1600000000000D+00  0.0000000000000D+00  0.0000000000000D+00
318  3.1700000000000D+00  0.0000000000000D+00  0.0000000000000D+00
319  3.1800000000000D+00  0.0000000000000D+00  0.0000000000000D+00
320  3.1900000000000D+00  0.0000000000000D+00  0.0000000000000D+00
321  3.2000000000000D+00  0.0000000000000D+00  0.0000000000000D+00
322  3.2100000000000D+00  0.0000000000000D+00  0.0000000000000D+00
323  3.2200000000000D+00  0.0000000000000D+00  0.0000000000000D+00
324  3.2300000000000D+00  0.0000000000000D+00  0.0000000000000D+00
325  3.2400000000000D+00  0.0000000000000D+00  0.0000000000000D+00
326  3.2500000000000D+00  0.0000000000000D+00  0.0000000000000D+00
327  3.2600000000000D+00  0.0000000000000D+00  0.0000000000000D+00
328  3.2700000000000D+00  0.0000000000000D+00  0.0000000000000D+00
329  3.2800000000000D+00  0.0000000000000D+00  0.0000000000000D+00
330  3.2900000000000D+00  0.0000000000000D+00  0.0000000000000D+00
331  3.3000000000000D+00  0.0000000000000D+00  0.0000000000000D+00
332  3.3100000000000D+00  0.0000000000000D+00  0.0000000000000D+00
333  3.3200000000000D+00  0.0000000000000D+00  0.0000000000000D+00
334  3.3300000000000D+00  0.0000000000000D+00  0.0000000000000D+00
335  3.3400000000000D+00  0.0000000000000D+00  0.0000000000000D+00
336  3.3500000000000D+00  0.0000000000000D+00  0.0000000000000D+00
337  3.3600000000000D+00  0.0000000000000D+00  0.0000000000000D+00
338  3.3700000000000D+00  0.0000000000000D+00  0.0000000000000D+00
339  3.3800000000000D+00  0.0000000000000D+00  0.0000000000000D+00
340  3.3900000000000D+00  0.0000000000000D+00  0.0000000000000D+00
341  3.4000000000000D+00  0.0000000000000D+00  0.0000000000000D+00
342  3.4100000000000D+00  0.0000000000000D+00  0.0000000000000D+00
343  3.4200000000000D+00  0.0000000000000D+00  0.0000000000000D+00
344  3.4300000000000D+00  0.0000000000000D+00  0.0000000000000D+00
345  3.4400000000000D+00  0.0000000000000D+00  0.0000000000000D+00
346  3.4500000000000D+00  0.0000000000000D+00  0.0000000000000D+00
347  3.4600000000000D+00  0.0000000000000D+00  0.0000000000000D+00
348  3.4700000000000D+00  0.0000000000000D+00  0.0000000000000D+00
349  3.4800000000000D+00  0.0000000000000D+00  0.0000000000000D+00
350  3.4900000000000D+00  0.0000000000000D+00  0.0000000000000D+00
351  3.5000000000000D+00  0.0000000000000D+00  0.0000000000000D+00
352  3.5100000000000D+00  0.0000000000000D+00  0.0000000000000D+00
353  3.5200000000000D+00  0.0000000000000D+00  0.0000000000000D+00
354  3.5300000000000D+00  0.0000000000000D+00  0.0000000000000D+00
355  3.5400000000000D+00  0.0000000000000D+00  0.0000000000000D+00
356  3.5500000000000D+00  0.0000000000000D+00  0.0000000000000D+00
357  3.5600000000000D+00  0.0000000000000D+00  0.0000000000000D+00
358  3.5700000000000D+00  0.0000000000000D+00  0.0000000000000D+00
359  3.5800000000000D+00  0.0000000000000D+00  0.0000000000000D+00
360  3.5900000000000D+00  0.0000000000000D+00  0.0000000000000D+00
361  3.6000000000000D+00  0.0000000000000D+00  0.0000000000000D+00
362  3.6100000000000D+00  0.0000000000000D+00  0.0000000000000D+00
363  3.6200000000000D+00  0.0000000000000D+00  0.0000000000000D+00
364  3.6300000000000D+00  0.0000000000000D+00  0.0000000000000D+00
365  3.6400000000000D+00  0.0000000000000D+00  0.0000000000000D+00
366  3.6500000000000D+00  0.0000000000000D+00  0.0000000000000D+00
367  3.6600000000000D+00  0.0000000000000D+00  0.0000000000000D+00
368  3.6700000000000D+00  0.0000000000000D+00  0.0000000000000D+00
369  3.6800000000000D+00  0.0000000000000D+00  0.0000000000000D+00
370  3.6900000000000D+00  0.0000000000000D+00  0.0000000000000D+00
371  3.7000000000000D+00  0.0000000000000D+00  0.0000000000000D+00
372  3.7100000000000D+00  0.0000000000000D+00  0.0000000000000D+00
373  3.7200000000000D+00  0.0000000000000D+00  0.0000000000000D+00
374  3.7300000000000D+00  0.0000000000000D+00  0.0000000000000D+00
375  3.7400000000000D+00  0.0000000000000D+00  0.0000000000000D+00
376  3.7500000000000D+00  0.0000000000000D+00  0.0000000000000D+00
377  3.7600000000000D+00  0.0000000000000D+00  0.0000000000000D+00
378  3.7700000000000D+00  0.0000000000000D+00  0.0000000000000D+00
379  3.7800000000000D+00  0.0000000000000D+00  0.0000000000000D+00
380  3.7900000000000D+00  0.0000000000000D+00  0.0000000000000D+00
381  3.8000000000000D+00  0.0000000000000D+00  0.0000000000000D+00
382  3.8100000000000D+00  0.0000000000000D+00  0.0000000000000D+00
383  3.8200000000000D+00  0.0000000000000D+00  0.0000000000000D+00
384  3.8300000000000D+00  0.0000000000000D+00  0.0000000000000D+00
385  3.8400000000000D+00  0.0000000000000D+00  0.0000000000000D+00
386  3.8500000000000D+00  0.0000000000000D+00  0.0000000000000D+00
387  3.8600000000000D+00  0.0000000000000D+00  0.0000000000000D+00
388  3.8700000000000D+00  0.0000000000000D+00  0.0000000000000D+00
389  3.8800000000000D+00  0.0000000000000D+00  0.0000000000000D+00
390  3.8900000000000D+00  0.0000000000000D+00  0.0000000000000D+00
391  3.9000000000000D+00  0.0000000000000D+00  0.0000000000000D+00
392  3.9100000000000D+00  0.0000000000000D+00  0.0000000000000D+00
393  3.9200000000000D+00  0.0000000000000D+00  0.0000000000000D+00
394  3.9300000000000D+00  0.0000000000000D+00  0.0000000000000D+00
395  3.9400000000000D+00  0.0000000000000D+00  0.0000000000000D+00
396  3.9500000000000D+00  0.0000000000000D+00  0.0000000000000D+00
397  3.9600000000000D+00  0.0000000000000D+00  0.0000000000000D+00
398  3.9700000000000D+00  0.0000000000000D+00  0.0000000000000D+00
399  3.9800000000000D+00  0.0000000000000D+00  0.0000000000000D+00
400  3.9900000000000D+00  0.0000000000000D+00  0.0000000000000D+00
401  4.0000000000000D+00  0.0000000000000D+00  0.0000000000000D+00
402  4.0100000000000D+00  0.0000000000000D+00  0.0000000000000D+00
403  4.0200000000000D+00  0.0000000000000D+00  0.0000000000000D+00
404  4.0300000000000D+00  0.0000000000000D+00  0.0000000000000D+00
405  4.0400000000000D+00  0.0000000000000D+00  0.0000000000000D+00
406  4.0500000000000D+00  0.0000000000000D+00  0.0000000000000D+00
407  4.0600000000000D+00  0.0000000000000D+00  0.0000000000000D+00
408  4.0700000000000D+00  0.0000000000000D+00  0.0000000000000D+00
409  4.0800000000000D+00  0.0000000000000D+00  0.0000000000000D+00
410  4.0900000000000D+00  0.0000000000000D+00  0.0000000000000D+00
411  4.1000000000000D+00  0.0000000000000D+00  0.0000000000000D+00
412  4.1100000000000D+00  0.0000000000000D+00  0.0000000000000D+00
413  4.1200000000000D+00  0.0000000000000D+00  0.0000000000000D+00
414  4.1300000000000D+00  0.0000000000000D+00  0.0000000000000D+00
415  4.1400000000000D+00  0.0000000000000D+00  0.0000000000000D+00
416  4.1500000000000D+00  0.0000000000000D+00  0.0000000000000D+00
417  4.1600000000000D+00  0.0000000000000D+00  0.0000000000000D+00
418  4.1700000000000D+00  0.0000000000000D+00  0.0000000000000D+00
419  4.1800000000000D+00  0.0000000000000D+00  0.0000000000000D+00
420  4.1900000000000D+00  0.0000000000000D+00  0.0000000000000D+00
421  4.2000000000000D+00  0.0000000000000D+00  0.0000000000000D+00
422  4.2100000000000D+00  0.0000000000000D+00  0.0000000000000D+00
423  4.2200000000000D+00  0.0000000000000D+00  0.0000000000000D+00
424  4.2300000000000D+00  0.0000000000000D+00  0.0000000000000D+00
425  4.2400000000000D+00  0.0000000000000D+00  0.0000000000000D+00
426  4.2500000000000D+00  0.0000000000000D+00  0.0000000000000D+00
427  4.2600000000000D+00  0.0000000000000D+00  0.0000000000000D+00
428  4.2700000000000D+00  0.0000000000000D+00  0.0000000000000D+00
429  4.2800000000000D+00  0.0000000000000D+00  0.0000000000000D+00
430  4.2900000000000D+00  0.0000000000000D+00  0.0000000000000D+00
431  4.3000000000000D+00  0.0000000000000D+00  0.0000000000000D+00
432  4.3100000000000D+00  0.0000000000000D+00  0.0000000000000D+00
433  4.3200000000000D+00  0.0000000000000D+00  0.0000000000000D+00
434  4.3300000000000D+00  0.0000000000000D+00  0.0000000000000D+00
435  4.3400000000000D+00  0.0000000000000D+00  0.0000000000000D+00
436  4.3500000000000D+00  0.0000000000000D+00  0.0000000000000D+00
437  4.3600000000000D+00  0.0000000000000D+00  0.0000000000000D+00
438  4.3700000000000D+00  0.0000000000000D+00  0.0000000000000D+00
439  4.3800000000000D+00  0.0000000000000D+00  0.0000000000000D+00
440  4.3900000000000D+00  0.0000000000000D+00  0.0000000000000D+00
441  4.4000000000000D+00  0.0000000000000D+00  0.0000000000000D+00
442  4.4100000000000D+00  0.0000000000000D+00  0.0000000000000D+00
443  4.4200000000000D+00  0.0000000000000D+00  0.0000000000000D+00
444  4.4300000000000D+00  0.0000000000000D+00  0.0000000000000D+00