Al    ONCVPSP  r_core=  1.71  1.81  1.71
13.0000      3.0000      140817    zatom,zion,pspd
8    11     2     4   601     0    pspcod,pspxc,lmax,lloc,mmax,r2well
6.00000000  0.35000000  0.00000000    rchrg fchrg qchrg
2     2     2     0     0    nproj
0                 extension_switch
0                         6.0866091109445D+00  9.1925155041166D-01
1  0.0000000000000D+00 -0.0000000000000D+00 -0.0000000000000D+00
2  1.0000000000000D-02 -4.6490869979341D-02 -2.9682260986628D-02
3  2.0000000000000D-02 -9.2843298487469D-02 -5.9169557895847D-02
4  3.0000000000000D-02 -1.3891972359059D-01 -8.8268252909683D-02
5  4.0000000000000D-02 -1.8458433625698D-01 -1.1678735140810D-01
6  5.0000000000000D-02 -2.2970394141893D-01 -1.4453980033044D-01
7  6.0000000000000D-02 -2.7414880068566D-01 -1.7134375882992D-01
8  7.0000000000000D-02 -3.1779345079232D-01 -1.9702383229014D-01
9  8.0000000000000D-02 -3.6051749202781D-01 -2.2141226101053D-01
10  9.0000000000000D-02 -4.0220634110755D-01 -2.4435005520575D-01
11  1.0000000000000D-01 -4.4275194318432D-01 -2.6568806830644D-01
12  1.1000000000000D-01 -4.8205343798376D-01 -2.8528800099300D-01
13  1.2000000000000D-01 -5.2001777537588D-01 -3.0302332888416D-01
14  1.3000000000000D-01 -5.5656027605261D-01 -3.1878014734450D-01
15  1.4000000000000D-01 -5.9160513323258D-01 -3.3245792725485D-01
16  1.5000000000000D-01 -6.2508585209133D-01 -3.4397017676246D-01
17  1.6000000000000D-01 -6.5694562338883D-01 -3.5324500368787D-01
18  1.7000000000000D-01 -6.8713762915108D-01 -3.6022557535441D-01
19  1.8000000000000D-01 -7.1562527761666D-01 -3.6487047163521D-01
20  1.9000000000000D-01 -7.4238236634931D-01 -3.6715392955966D-01
21  2.0000000000000D-01 -7.6739317156311D-01 -3.6706597653908D-01
22  2.1000000000000D-01 -7.9065246417401D-01 -3.6461245298273D-01
23  2.2000000000000D-01 -8.1216545077813D-01 -3.5981492160398D-01
24  2.3000000000000D-01 -8.3194764132283D-01 -3.5271046607650D-01
25  2.4000000000000D-01 -8.5002464374349D-01 -3.4335137946589D-01
26  2.5000000000000D-01 -8.6643188652970D-01 -3.3180474387924D-01
27  2.6000000000000D-01 -8.8121427274251D-01 -3.1815190668825D-01
28  2.7000000000000D-01 -8.9442576458035D-01 -3.0248785191319D-01
29  2.8000000000000D-01 -9.0612890568961D-01 -2.8492047769195D-01
30  2.9000000000000D-01 -9.1639428096210D-01 -2.6556977940441D-01
31  3.0000000000000D-01 -9.2529991898886D-01 -2.4456694627566D-01
32  3.1000000000000D-01 -9.3293064116723D-01 -2.2205337748898D-01
33  3.2000000000000D-01 -9.3937736575390D-01 -1.9817963033548D-01
34  3.3000000000000D-01 -9.4473635658198D-01 -1.7310428483402D-01
35  3.4000000000000D-01 -9.4910844904472D-01 -1.4699277411328D-01
36  3.5000000000000D-01 -9.5259823257763D-01 -1.2001614911892D-01
37  3.6000000000000D-01 -9.5531320742741D-01 -9.2349804532667D-02
38  3.7000000000000D-01 -9.5736291570941D-01 -6.4172165879010D-02
39  3.8000000000000D-01 -9.5885807764488D-01 -3.5663384488091D-02
40  3.9000000000000D-01 -9.5990968822683D-01 -7.0039726484344D-03
41  4.0000000000000D-01 -9.6062812608961D-01  2.1626542819584D-02
42  4.1000000000000D-01 -9.6112227548830D-01  5.0050947236297D-02
43  4.2000000000000D-01 -9.6149864435005D-01  7.8095670760933D-02
44  4.3000000000000D-01 -9.6186050284984D-01  1.0559209019428D-01
45  4.4000000000000D-01 -9.6230704461282D-01  1.3237779674617D-01
46  4.5000000000000D-01 -9.6293257661239D-01  1.5829782063422D-01
47  4.6000000000000D-01 -9.6382574389045D-01  1.8320580329647D-01
48  4.7000000000000D-01 -9.6506880326538D-01  2.0696509584785D-01
49  4.8000000000000D-01 -9.6673693189932D-01  2.2944980517683D-01
50  4.9000000000000D-01 -9.6889755102593D-01  2.5054581753855D-01
51  5.0000000000000D-01 -9.7160978809177D-01  2.7015161334558D-01
52  5.1000000000000D-01 -9.7492398045346D-01  2.8817901957659D-01
53  5.2000000000000D-01 -9.7888112986291D-01  3.0455403723540D-01
54  5.3000000000000D-01 -9.8351254490794D-01  3.1921738526129D-01
55  5.4000000000000D-01 -9.8883963950548D-01  3.3212480879909D-01
56  5.5000000000000D-01 -9.9487342450998D-01  3.4324785309448D-01
57  5.6000000000000D-01 -1.0016146456051D+00  3.5257365958731D-01
58  5.7000000000000D-01 -1.0090534121568D+00  3.6010553420151D-01
59  5.8000000000000D-01 -1.0171694265455D+00  3.6586260657736D-01
60  5.9000000000000D-01 -1.0259318024290D+00  3.6988011438740D-01
61  6.0000000000000D-01 -1.0352994831929D+00  3.7220877722401D-01
62  6.1000000000000D-01 -1.0452211657613D+00  3.7291492501283D-01
63  6.2000000000000D-01 -1.0556358466328D+00  3.7207968023654D-01
64  6.3000000000000D-01 -1.0664730753757D+00  3.6979858826080D-01
65  6.4000000000000D-01 -1.0776533969800D+00  3.6618096273452D-01
66  6.5000000000000D-01 -1.0890889325868D+00  3.6134901906453D-01
67  6.6000000000000D-01 -1.1006839148605D+00  3.5543708207950D-01
68  6.7000000000000D-01 -1.1123353570072D+00  3.4859059292756D-01
69  6.8000000000000D-01 -1.1239337686502D+00  3.4096504148220D-01
70  6.9000000000000D-01 -1.1353638841947D+00  3.3272488369932D-01
71  7.0000000000000D-01 -1.1465055172239D+00  3.2404227300197D-01
72  7.1000000000000D-01 -1.1572344379804D+00  3.1509575481329D-01
73  7.2000000000000D-01 -1.1674232245891D+00  3.0606899964822D-01
74  7.3000000000000D-01 -1.1769422082561D+00  2.9714939878254D-01
75  7.4000000000000D-01 -1.1856604311119D+00  2.8852664090993D-01
76  7.5000000000000D-01 -1.1934465462343D+00  2.8039137457653D-01
77  7.6000000000000D-01 -1.2001700299031D+00  2.7293341015757D-01
78  7.7000000000000D-01 -1.2057019934371D+00  2.6634051359500D-01
79  7.8000000000000D-01 -1.2099162147205D+00  2.6079687710402D-01
80  7.9000000000000D-01 -1.2126901376899D+00  2.5648163821289D-01
81  8.0000000000000D-01 -1.2139058478774D+00  2.5356743548652D-01
82  8.1000000000000D-01 -1.2134510265539D+00  2.5221899735282D-01
83  8.2000000000000D-01 -1.2112198766175D+00  2.5259177431448D-01
84  8.3000000000000D-01 -1.2071140135503D+00  2.5483062455264D-01
85  8.4000000000000D-01 -1.2010433149812D+00  2.5906856259706D-01
86  8.5000000000000D-01 -1.1929267226406D+00  2.6542558035634D-01
87  8.6000000000000D-01 -1.1826929907736D+00  2.7400754937387D-01
88  8.7000000000000D-01 -1.1702813753820D+00  2.8490521270300D-01
89  8.8000000000000D-01 -1.1556422590118D+00  2.9819327427491D-01
90  8.9000000000000D-01 -1.1387377061683D+00  3.1392959306253D-01
91  9.0000000000000D-01 -1.1195419448605D+00  3.3215448871420D-01
92  9.1000000000000D-01 -1.0980417702287D+00  3.5289016463012D-01
93  9.2000000000000D-01 -1.0742368667317D+00  3.7614025366959D-01
94  9.3000000000000D-01 -1.0481400459453D+00  4.0188949079119D-01
95  9.4000000000000D-01 -1.0197773976909D+00  4.3010351592420D-01
96  9.5000000000000D-01 -9.8918817439432D-01  4.6072906895802D-01
97  9.6000000000000D-01 -9.5642521065939D-01  4.9369340786777D-01
98  9.7000000000000D-01 -9.2155459872749D-01  5.2890481919969D-01
99  9.8000000000000D-01 -8.8465533432579D-01  5.6625317136013D-01
100  9.9000000000000D-01 -8.4581911928935D-01  6.0561024361883D-01
101  1.0000000000000D+00 -8.0514997670110D-01  6.4683033149978D-01
102  1.0100000000000D+00 -7.6276378218465D-01  6.8975097703926D-01
103  1.0200000000000D+00 -7.1878756384246D-01  7.3419402576357D-01
104  1.0300000000000D+00 -6.7335937549587D-01  7.7996588875972D-01
105  1.0400000000000D+00 -6.2662721907714D-01  8.2685916452532D-01
106  1.0500000000000D+00 -5.7874816581584D-01  8.7465396263487D-01
107  1.0600000000000D+00 -5.2988761732653D-01  9.2311904240689D-01
108  1.0700000000000D+00 -4.8021846410902D-01  9.7201307243888D-01
109  1.0800000000000D+00 -4.2992023774706D-01  1.0210859614574D+00
110  1.0900000000000D+00 -3.7917773963541D-01  1.0700809462151D+00
111  1.1000000000000D+00 -3.2818012031783D-01  1.1187359272126D+00
112  1.1100000000000D+00 -2.7711990012131D-01  1.1667849637490D+00
113  1.1200000000000D+00 -2.2619246128872D-01  1.2139590123823D+00
114  1.1300000000000D+00 -1.7559300455598D-01  1.2599906431880D+00
115  1.1400000000000D+00 -1.2551691966574D-01  1.3046133298992D+00
116  1.1500000000000D+00 -7.6158636135149D-02  1.3475632055796D+00
117  1.1600000000000D+00 -2.7710948852247D-02  1.3885800700160D+00
118  1.1700000000000D+00  1.9639312537498D-02  1.4274139911864D+00
119  1.1800000000000D+00  6.5709208806537D-02  1.4638220342397D+00
120  1.1900000000000D+00  1.1031999012208D-01  1.4975687098793D+00
121  1.2000000000000D+00  1.5330199298335D-01  1.5284334125176D+00
122  1.2100000000000D+00  1.9449442900806D-01  1.5562100105887D+00
123  1.2200000000000D+00  2.3374351055601D-01  1.5807039700440D+00
124  1.2300000000000D+00  2.7090518167900D-01  1.6017364837112D+00
125  1.2400000000000D+00  3.0585036776822D-01  1.6191523300634D+00
126  1.2500000000000D+00  3.3845867284464D-01  1.6328103041277D+00
127  1.2600000000000D+00  3.6862033521634D-01  1.6425861760419D+00
128  1.2700000000000D+00  3.9624532379523D-01  1.6483862756538D+00
129  1.2800000000000D+00  4.2125296566985D-01  1.6501318622486D+00
130  1.2900000000000D+00  4.4357522106475D-01  1.6477640547570D+00
131  1.3000000000000D+00  4.6316603286941D-01  1.6412576801667D+00
132  1.3100000000000D+00  4.7998839203274D-01  1.6306019353508D+00
133  1.3200000000000D+00  4.9402156244374D-01  1.6158111518135D+00
134  1.3300000000000D+00  5.0526559954188D-01  1.5969313289473D+00
135  1.3400000000000D+00  5.1372873826517D-01  1.5740214787138D+00
136  1.3500000000000D+00  5.1944055272650D-01  1.5471729825648D+00
137  1.3600000000000D+00  5.2244641330954D-01  1.5165012302574D+00
138  1.3700000000000D+00  5.2279945758113D-01  1.4821340036935D+00
139  1.3800000000000D+00  5.2057889680268D-01  1.4442378732090D+00
140  1.3900000000000D+00  5.1587033713259D-01  1.4029895705388D+00
141  1.4000000000000D+00  5.0877541040418D-01  1.3585899474073D+00
142  1.4100000000000D+00  4.9941210553759D-01  1.3112639776762D+00
143  1.4200000000000D+00  4.8790446106570D-01  1.2612464375378D+00
144  1.4300000000000D+00  4.7439596458723D-01  1.2088001287429D+00
145  1.4400000000000D+00  4.5903538895559D-01  1.1541962191003D+00
146  1.4500000000000D+00  4.4198395911297D-01  1.0977240292196D+00
147  1.4600000000000D+00  4.2341148212175D-01  1.0396848803833D+00
148  1.4700000000000D+00  4.0349484649701D-01  9.8039125509894D-01
149  1.4800000000000D+00  3.8241849437256D-01  9.2016478532312D-01
150  1.4900000000000D+00  3.6037214746164D-01  8.5933594194461D-01
151  1.5000000000000D+00  3.3754934812507D-01  7.9823871013927D-01
152  1.5100000000000D+00  3.1414692169216D-01  7.3721201603516D-01
153  1.5200000000000D+00  2.9036414506750D-01  6.7659718655505D-01
154  1.5300000000000D+00  2.6639794823154D-01  6.1673056028915D-01
155  1.5400000000000D+00  2.4244997529536D-01  5.5795546682300D-01
156  1.5500000000000D+00  2.1871032631479D-01  5.0059487422670D-01
157  1.5600000000000D+00  1.9537924300830D-01  4.4498812811371D-01
158  1.5700000000000D+00  1.7263452280414D-01  3.9143644915608D-01
159  1.5800000000000D+00  1.5066793498238D-01  3.4026379469121D-01
160  1.5900000000000D+00  1.2964303468966D-01  2.9174700406718D-01
161  1.6000000000000D+00  1.0973498261682D-01  2.4618164782229D-01
162  1.6100000000000D+00  9.1090938480290D-02  2.0381699489991D-01
163  1.6200000000000D+00  7.3863768619481D-02  1.6491133033338D-01
164  1.6300000000000D+00  5.8180231369661D-02  1.2968004889124D-01
165  1.6400000000000D+00  4.4166775336840D-02  9.8337768732433D-02
166  1.6500000000000D+00  3.1925810775749D-02  7.1059789100458D-02
167  1.6600000000000D+00  2.1554290924743D-02  4.8012311168099D-02
168  1.6700000000000D+00  1.3126532394212D-02  2.9324622353567D-02
169  1.6800000000000D+00  6.7079846532945D-03  1.5111418262075D-02
170  1.6900000000000D+00  2.4736623987209D-03  5.7535968369513D-03
171  1.7000000000000D+00  2.8871718709064D-04  9.2816373282897D-04
172  1.7100000000000D+00 -4.6768480767264D-04 -8.0904807376328D-04
173  1.7200000000000D+00 -3.0263417869545D-04 -5.8666432653897D-04
174  1.7300000000000D+00  1.4183325758708D-05  1.8704107575362D-05
175  1.7400000000000D+00  1.6243200586127D-05  2.1420545244445D-05
176  1.7500000000000D+00  0.0000000000000D+00  0.0000000000000D+00
177  1.7600000000000D+00  0.0000000000000D+00  0.0000000000000D+00
178  1.7700000000000D+00  0.0000000000000D+00  0.0000000000000D+00
179  1.7800000000000D+00  0.0000000000000D+00  0.0000000000000D+00
180  1.7900000000000D+00  0.0000000000000D+00  0.0000000000000D+00
181  1.8000000000000D+00  0.0000000000000D+00  0.0000000000000D+00
182  1.8100000000000D+00  0.0000000000000D+00  0.0000000000000D+00
183  1.8200000000000D+00  0.0000000000000D+00  0.0000000000000D+00
184  1.8300000000000D+00  0.0000000000000D+00  0.0000000000000D+00
185  1.8400000000000D+00  0.0000000000000D+00  0.0000000000000D+00
186  1.8500000000000D+00  0.0000000000000D+00  0.0000000000000D+00
187  1.8600000000000D+00  0.0000000000000D+00  0.0000000000000D+00
188  1.8700000000000D+00  0.0000000000000D+00  0.0000000000000D+00
189  1.8800000000000D+00  0.0000000000000D+00  0.0000000000000D+00
190  1.8900000000000D+00  0.0000000000000D+00  0.0000000000000D+00
191  1.9000000000000D+00  0.0000000000000D+00  0.0000000000000D+00
192  1.9100000000000D+00  0.0000000000000D+00  0.0000000000000D+00
193  1.9200000000000D+00  0.0000000000000D+00  0.0000000000000D+00
194  1.9300000000000D+00  0.0000000000000D+00  0.0000000000000D+00
195  1.9400000000000D+00  0.0000000000000D+00  0.0000000000000D+00
196  1.9500000000000D+00  0.0000000000000D+00  0.0000000000000D+00
197  1.9600000000000D+00  0.0000000000000D+00  0.0000000000000D+00
198  1.9700000000000D+00  0.0000000000000D+00  0.0000000000000D+00
199  1.9800000000000D+00  0.0000000000000D+00  0.0000000000000D+00
200  1.9900000000000D+00  0.0000000000000D+00  0.0000000000000D+00
201  2.0000000000000D+00  0.0000000000000D+00  0.0000000000000D+00
202  2.0100000000000D+00  0.0000000000000D+00  0.0000000000000D+00
203  2.0200000000000D+00  0.0000000000000D+00  0.0000000000000D+00
204  2.0300000000000D+00  0.0000000000000D+00  0.0000000000000D+00
205  2.0400000000000D+00  0.0000000000000D+00  0.0000000000000D+00
206  2.0500000000000D+00  0.0000000000000D+00  0.0000000000000D+00
207  2.0600000000000D+00  0.0000000000000D+00  0.0000000000000D+00
208  2.0700000000000D+00  0.0000000000000D+00  0.0000000000000D+00
209  2.0800000000000D+00  0.0000000000000D+00  0.0000000000000D+00
210  2.0900000000000D+00  0.0000000000000D+00  0.0000000000000D+00
211  2.1000000000000D+00  0.0000000000000D+00  0.0000000000000D+00
212  2.1100000000000D+00  0.0000000000000D+00  0.0000000000000D+00
213  2.1200000000000D+00  0.0000000000000D+00  0.0000000000000D+00
214  2.1300000000000D+00  0.0000000000000D+00  0.0000000000000D+00
215  2.1400000000000D+00  0.0000000000000D+00  0.0000000000000D+00
216  2.1500000000000D+00  0.0000000000000D+00  0.0000000000000D+00
217  2.1600000000000D+00  0.0000000000000D+00  0.0000000000000D+00
218  2.1700000000000D+00  0.0000000000000D+00  0.0000000000000D+00
219  2.1800000000000D+00  0.0000000000000D+00  0.0000000000000D+00
220  2.1900000000000D+00  0.0000000000000D+00  0.0000000000000D+00
221  2.2000000000000D+00  0.0000000000000D+00  0.0000000000000D+00
222  2.2100000000000D+00  0.0000000000000D+00  0.0000000000000D+00
223  2.2200000000000D+00  0.0000000000000D+00  0.0000000000000D+00
224  2.2300000000000D+00  0.0000000000000D+00  0.0000000000000D+00
225  2.2400000000000D+00  0.0000000000000D+00  0.0000000000000D+00
226  2.2500000000000D+00  0.0000000000000D+00  0.0000000000000D+00
227  2.2600000000000D+00  0.0000000000000D+00  0.0000000000000D+00
228  2.2700000000000D+00  0.0000000000000D+00  0.0000000000000D+00
229  2.2800000000000D+00  0.0000000000000D+00  0.0000000000000D+00
230  2.2900000000000D+00  0.0000000000000D+00  0.0000000000000D+00
231  2.3000000000000D+00  0.0000000000000D+00  0.0000000000000D+00
232  2.3100000000000D+00  0.0000000000000D+00  0.0000000000000D+00
233  2.3200000000000D+00  0.0000000000000D+00  0.0000000000000D+00
234  2.3300000000000D+00  0.0000000000000D+00  0.0000000000000D+00
235  2.3400000000000D+00  0.0000000000000D+00  0.0000000000000D+00
236  2.3500000000000D+00  0.0000000000000D+00  0.0000000000000D+00
237  2.3600000000000D+00  0.0000000000000D+00  0.0000000000000D+00
238  2.3700000000000D+00  0.0000000000000D+00  0.0000000000000D+00
239  2.3800000000000D+00  0.0000000000000D+00  0.0000000000000D+00
240  2.3900000000000D+00  0.0000000000000D+00  0.0000000000000D+00
241  2.4000000000000D+00  0.0000000000000D+00  0.0000000000000D+00
242  2.4100000000000D+00  0.0000000000000D+00  0.0000000000000D+00
243  2.4200000000000D+00  0.0000000000000D+00  0.0000000000000D+00
244  2.4300000000000D+00  0.0000000000000D+00  0.0000000000000D+00
245  2.4400000000000D+00  0.0000000000000D+00  0.0000000000000D+00
246  2.4500000000000D+00  0.0000000000000D+00  0.0000000000000D+00
247  2.4600000000000D+00  0.0000000000000D+00  0.0000000000000D+00
248  2.4700000000000D+00  0.0000000000000D+00  0.0000000000000D+00
249  2.4800000000000D+00  0.0000000000000D+00  0.0000000000000D+00
250  2.4900000000000D+00  0.0000000000000D+00  0.0000000000000D+00
251  2.5000000000000D+00  0.0000000000000D+00  0.0000000000000D+00
252  2.5100000000000D+00  0.0000000000000D+00  0.0000000000000D+00
253  2.5200000000000D+00  0.0000000000000D+00  0.0000000000000D+00
254  2.5300000000000D+00  0.0000000000000D+00  0.0000000000000D+00
255  2.5400000000000D+00  0.0000000000000D+00  0.0000000000000D+00
256  2.5500000000000D+00  0.0000000000000D+00  0.0000000000000D+00
257  2.5600000000000D+00  0.0000000000000D+00  0.0000000000000D+00
258  2.5700000000000D+00  0.0000000000000D+00  0.0000000000000D+00
259  2.5800000000000D+00  0.0000000000000D+00  0.0000000000000D+00
260  2.5900000000000D+00  0.0000000000000D+00  0.0000000000000D+00
261  2.6000000000000D+00  0.0000000000000D+00  0.0000000000000D+00
262  2.6100000000000D+00  0.0000000000000D+00  0.0000000000000D+00
263  2.6200000000000D+00  0.0000000000000D+00  0.0000000000000D+00
264  2.6300000000000D+00  0.0000000000000D+00  0.0000000000000D+00
265  2.6400000000000D+00  0.0000000000000D+00  0.0000000000000D+00
266  2.6500000000000D+00  0.0000000000000D+00  0.0000000000000D+00
267  2.6600000000000D+00  0.0000000000000D+00  0.0000000000000D+00
268  2.6700000000000D+00  0.0000000000000D+00  0.0000000000000D+00
269  2.6800000000000D+00  0.0000000000000D+00  0.0000000000000D+00
270  2.6900000000000D+00  0.0000000000000D+00  0.0000000000000D+00
271  2.7000000000000D+00  0.0000000000000D+00  0.0000000000000D+00
272  2.7100000000000D+00  0.0000000000000D+00  0.0000000000000D+00
273  2.7200000000000D+00  0.0000000000000D+00  0.0000000000000D+00
274  2.7300000000000D+00  0.0000000000000D+00  0.0000000000000D+00
275  2.7400000000000D+00  0.0000000000000D+00  0.0000000000000D+00
276  2.7500000000000D+00  0.0000000000000D+00  0.0000000000000D+00
277  2.7600000000000D+00  0.0000000000000D+00  0.0000000000000D+00
278  2.7700000000000D+00  0.0000000000000D+00  0.0000000000000D+00
279  2.7800000000000D+00  0.0000000000000D+00  0.0000000000000D+00
280  2.7900000000000D+00  0.0000000000000D+00  0.0000000000000D+00
281  2.8000000000000D+00  0.0000000000000D+00  0.0000000000000D+00
282  2.8100000000000D+00  0.0000000000000D+00  0.0000000000000D+00
283  2.8200000000000D+00  0.0000000000000D+00  0.0000000000000D+00
284  2.8300000000000D+00  0.0000000000000D+00  0.0000000000000D+00
285  2.8400000000000D+00  0.0000000000000D+00  0.0000000000000D+00
286  2.8500000000000D+00  0.0000000000000D+00  0.0000000000000D+00
287  2.8600000000000D+00  0.0000000000000D+00  0.0000000000000D+00
288  2.8700000000000D+00  0.0000000000000D+00  0.0000000000000D+00
289  2.8800000000000D+00  0.0000000000000D+00  0.0000000000000D+00
290  2.8900000000000D+00  0.0000000000000D+00  0.0000000000000D+00
291  2.9000000000000D+00  0.0000000000000D+00  0.0000000000000D+00
292  2.9100000000000D+00  0.0000000000000D+00  0.0000000000000D+00
293  2.9200000000000D+00  0.0000000000000D+00  0.0000000000000D+00
294  2.9300000000000D+00  0.0000000000000D+00  0.0000000000000D+00
295  2.9400000000000D+00  0.0000000000000D+00  0.0000000000000D+00
296  2.9500000000000D+00  0.0000000000000D+00  0.0000000000000D+00
297  2.9600000000000D+00  0.0000000000000D+00  0.0000000000000D+00
298  2.9700000000000D+00  0.0000000000000D+00  0.0000000000000D+00
299  2.9800000000000D+00  0.0000000000000D+00  0.0000000000000D+00
300  2.9900000000000D+00  0.0000000000000D+00  0.0000000000000D+00
301  3.0000000000000D+00  0.0000000000000D+00  0.0000000000000D+00
302  3.0100000000000D+00  0.0000000000000D+00  0.0000000000000D+00
303  3.0200000000000D+00  0.0000000000000D+00  0.0000000000000D+00
304  3.0300000000000D+00  0.0000000000000D+00  0.0000000000000D+00
305  3.0400000000000D+00  0.0000000000000D+00  0.0000000000000D+00
306  3.0500000000000D+00  0.0000000000000D+00  0.0000000000000D+00
307  3.0600000000000D+00  0.0000000000000D+00  0.0000000000000D+00
308  3.0700000000000D+00  0.0000000000000D+00  0.0000000000000D+00
309  3.0800000000000D+00  0.0000000000000D+00  0.0000000000000D+00
310  3.0900000000000D+00  0.0000000000000D+00  0.0000000000000D+00
311  3.1000000000000D+00  0.0000000000000D+00  0.0000000000000D+00
312  3.1100000000000D+00  0.0000000000000D+00  0.0000000000000D+00
313  3.1200000000000D+00  0.0000000000000D+00  0.0000000000000D+00
314  3.1300000000000D+00  0.0000000000000D+00  0.0000000000000D+00
315  3.1400000000000D+00  0.0000000000000D+00  0.0000000000000D+00
316  3.1500000000000D+00  0.0000000000000D+00  0.0000000000000D+00
317  3.1600000000000D+00  0.0000000000000D+00  0.0000000000000D+00
318  3.1700000000000D+00  0.0000000000000D+00  0.0000000000000D+00
319  3.1800000000000D+00  0.0000000000000D+00  0.0000000000000D+00
320  3.1900000000000D+00  0.0000000000000D+00  0.0000000000000D+00
321  3.2000000000000D+00  0.0000000000000D+00  0.0000000000000D+00
322  3.2100000000000D+00  0.0000000000000D+00  0.0000000000000D+00
323  3.2200000000000D+00  0.0000000000000D+00  0.0000000000000D+00
324  3.2300000000000D+00  0.0000000000000D+00  0.0000000000000D+00
325  3.2400000000000D+00  0.0000000000000D+00  0.0000000000000D+00
326  3.2500000000000D+00  0.0000000000000D+00  0.0000000000000D+00
327  3.2600000000000D+00  0.0000000000000D+00  0.0000000000000D+00
328  3.2700000000000D+00  0.0000000000000D+00  0.0000000000000D+00
329  3.2800000000000D+00  0.0000000000000D+00  0.0000000000000D+00
330  3.2900000000000D+00  0.0000000000000D+00  0.0000000000000D+00
331  3.3000000000000D+00  0.0000000000000D+00  0.0000000000000D+00
332  3.3100000000000D+00  0.0000000000000D+00  0.0000000000000D+00
333  3.3200000000000D+00  0.0000000000000D+00  0.0000000000000D+00
334  3.3300000000000D+00  0.0000000000000D+00  0.0000000000000D+00
335  3.3400000000000D+00  0.0000000000000D+00  0.0000000000000D+00
336  3.3500000000000D+00  0.0000000000000D+00  0.0000000000000D+00
337  3.3600000000000D+00  0.0000000000000D+00  0.0000000000000D+00
338  3.3700000000000D+00  0.0000000000000D+00  0.0000000000000D+00
339  3.3800000000000D+00  0.0000000000000D+00  0.0000000000000D+00
340  3.3900000000000D+00  0.0000000000000D+00  0.0000000000000D+00
341  3.4000000000000D+00  0.0000000000000D+00  0.0000000000000D+00
342  3.4100000000000D+00  0.0000000000000D+00  0.0000000000000D+00
343  3.4200000000000D+00  0.0000000000000D+00  0.0000000000000D+00
344  3.4300000000000D+00  0.0000000000000D+00  0.0000000000000D+00
345  3.4400000000000D+00  0.0000000000000D+00  0.0000000000000D+00
346  3.4500000000000D+00  0.0000000000000D+00  0.0000000000000D+00
347  3.4600000000000D+00  0.0000000000000D+00  0.0000000000000D+00
348  3.4700000000000D+00  0.0000000000000D+00  0.0000000000000D+00
349  3.4800000000000D+00  0.0000000000000D+00  0.0000000000000D+00
350  3.4900000000000D+00  0.0000000000000D+00  0.0000000000000D+00
351  3.5000000000000D+00  0.0000000000000D+00  0.0000000000000D+00
352  3.5100000000000D+00  0.0000000000000D+00  0.0000000000000D+00
353  3.5200000000000D+00  0.0000000000000D+00  0.0000000000000D+00
354  3.5300000000000D+00  0.0000000000000D+00  0.0000000000000D+00
355  3.5400000000000D+00  0.0000000000000D+00  0.0000000000000D+00
356  3.5500000000000D+00  0.0000000000000D+00  0.0000000000000D+00
357  3.5600000000000D+00  0.0000000000000D+00  0.0000000000000D+00
358  3.5700000000000D+00  0.0000000000000D+00  0.0000000000000D+00
359  3.5800000000000D+00  0.0000000000000D+00  0.0000000000000D+00
360  3.5900000000000D+00  0.0000000000000D+00  0.0000000000000D+00
361  3.6000000000000D+00  0.0000000000000D+00  0.0000000000000D+00
362  3.6100000000000D+00  0.0000000000000D+00  0.0000000000000D+00
363  3.6200000000000D+00  0.0000000000000D+00  0.0000000000000D+00
364  3.6300000000000D+00  0.0000000000000D+00  0.0000000000000D+00
365  3.6400000000000D+00  0.0000000000000D+00  0.0000000000000D+00
366  3.6500000000000D+00  0.0000000000000D+00  0.0000000000000D+00
367  3.6600000000000D+00  0.0000000000000D+00  0.0000000000000D+00
368  3.6700000000000D+00  0.0000000000000D+00  0.0000000000000D+00
369  3.6800000000000D+00  0.0000000000000D+00  0.0000000000000D+00
370  3.6900000000000D+00  0.0000000000000D+00  0.0000000000000D+00
371  3.7000000000000D+00  0.0000000000000D+00  0.0000000000000D+00
372  3.7100000000000D+00  0.0000000000000D+00  0.0000000000000D+00
373  3.7200000000000D+00  0.0000000000000D+00  0.0000000000000D+00
374  3.7300000000000D+00  0.0000000000000D+00  0.0000000000000D+00
375  3.7400000000000D+00  0.0000000000000D+00  0.0000000000000D+00
376  3.7500000000000D+00  0.0000000000000D+00  0.0000000000000D+00
377  3.7600000000000D+00  0.0000000000000D+00  0.0000000000000D+00
378  3.7700000000000D+00  0.0000000000000D+00  0.0000000000000D+00
379  3.7800000000000D+00  0.0000000000000D+00  0.0000000000000D+00
380  3.7900000000000D+00  0.0000000000000D+00  0.0000000000000D+00
381  3.8000000000000D+00  0.0000000000000D+00  0.0000000000000D+00
382  3.8100000000000D+00  0.0000000000000D+00  0.0000000000000D+00
383  3.8200000000000D+00  0.0000000000000D+00  0.0000000000000D+00
384  3.8300000000000D+00  0.0000000000000D+00  0.0000000000000D+00
385  3.8400000000000D+00  0.0000000000000D+00  0.0000000000000D+00
386  3.8500000000000D+00  0.0000000000000D+00  0.0000000000000D+00
387  3.8600000000000D+00  0.0000000000000D+00  0.0000000000000D+00
388  3.8700000000000D+00  0.0000000000000D+00  0.0000000000000D+00
389  3.8800000000000D+00  0.0000000000000D+00  0.0000000000000D+00
390  3.8900000000000D+00  0.0000000000000D+00  0.0000000000000D+00
391  3.9000000000000D+00  0.0000000000000D+00  0.0000000000000D+00
392  3.9100000000000D+00  0.0000000000000D+00  0.0000000000000D+00
393  3.9200000000000D+00  0.0000000000000D+00  0.0000000000000D+00
394  3.9300000000000D+00  0.0000000000000D+00  0.0000000000000D+00
395  3.9400000000000D+00  0.0000000000000D+00  0.0000000000000D+00
396  3.9500000000000D+00  0.0000000000000D+00  0.0000000000000D+00
397  3.9600000000000D+00  0.0000000000000D+00  0.0000000000000D+00
398  3.9700000000000D+00  0.0000000000000D+00  0.0000000000000D+00
399  3.9800000000000D+00  0.0000000000000D+00  0.0000000000000D+00
400  3.9900000000000D+00  0.0000000000000D+00  0.0000000000000D+00
401  4.0000000000000D+00  0.0000000000000D+00  0.0000000000000D+00
402  4.0100000000000D+00  0.0000000000000D+00  0.0000000000000D+00
403  4.0200000000000D+00  0.0000000000000D+00  0.0000000000000D+00
404  4.0300000000000D+00  0.0000000000000D+00  0.0000000000000D+00
405  4.0400000000000D+00  0.0000000000000D+00  0.0000000000000D+00
406  4.0500000000000D+00  0.0000000000000D+00  0.0000000000000D+00
407  4.0600000000000D+00  0.0000000000000D+00  0.0000000000000D+00
408  4.0700000000000D+00  0.0000000000000D+00  0.0000000000000D+00
409  4.0800000000000D+00  0.0000000000000D+00  0.0000000000000D+00
410  4.0900000000000D+00  0.0000000000000D+00  0.0000000000000D+00
411  4.1000000000000D+00  0.0000000000000D+00  0.0000000000000D+00
412  4.1100000000000D+00  0.0000000000000D+00  0.0000000000000D+00
413  4.1200000000000D+00  0.0000000000000D+00  0.0000000000000D+00
414  4.1300000000000D+00  0.0000000000000D+00  0.0000000000000D+00
415  4.1400000000000D+00  0.0000000000000D+00  0.0000000000000D+00
416  4.1500000000000D+00  0.0000000000000D+00  0.0000000000000D+00
417  4.1600000000000D+00  0.0000000000000D+00  0.0000000000000D+00
418  4.1700000000000D+00  0.0000000000000D+00  0.0000000000000D+00
419  4.1800000000000D+00  0.0000000000000D+00  0.0000000000000D+00
420  4.1900000000000D+00  0.0000000000000D+00  0.0000000000000D+00
421  4.2000000000000D+00  0.0000000000000D+00  0.0000000000000D+00
422  4.2100000000000D+00  0.0000000000000D+00  0.0000000000000D+00
423  4.2200000000000D+00  0.0000000000000D+00  0.0000000000000D+00
424  4.2300000000000D+00  0.0000000000000D+00  0.0000000000000D+00
425  4.2400000000000D+00  0.0000000000000D+00  0.0000000000000D+00
426  4.2500000000000D+00  0.0000000000000D+00  0.0000000000000D+00
427  4.2600000000000D+00  0.0000000000000D+00  0.0000000000000D+00
428  4.2700000000000D+00  0.0000000000000D+00  0.0000000000000D+00
429  4.2800000000000D+00  0.0000000000000D+00  0.0000000000000D+00
430  4.2900000000000D+00  0.0000000000000D+00  0.0000000000000D+00
431  4.3000000000000D+00  0.0000000000000D+00  0.0000000000000D+00
432  4.3100000000000D+00  0.0000000000000D+00  0.0000000000000D+00
433  4.3200000000000D+00  0.0000000000000D+00  0.0000000000000D+00
434  4.3300000000000D+00  0.0000000000000D+00  0.0000000000000D+00
435  4.3400000000000D+00  0.0000000000000D+00  0.0000000000000D+00
436  4.3500000000000D+00  0.0000000000000D+00  0.0000000000000D+00
437  4.3600000000000D+00  0.0000000000000D+00  0.0000000000000D+00
438  4.3700000000000D+00  0.0000000000000D+00  0.0000000000000D+00
439  4.3800000000000D+00  0.0000000000000D+00  0.0000000000000D+00
440  4.3900000000000D+00  0.0000000000000D+00  0.0000000000000D+00
441  4.4000000000000D+00  0.0000000000000D+00  0.0000000000000D+00
442  4.4100000000000D+00  0.0000000000000D+00  0.0000000000000D+00
443  4.4200000000000D+00  0.0000000000000D+00  0.0000000000000D+00
444  4.4300000000000D+00  0.0000000000000D+00  0.0000000000000D+00