Pr    ONCVPSP-3.2.3  r_core=   2.11940   1.90365   1.90365   2.50460
59.0000     11.0000      170511    zatom,zion,pspd
8      11   3     4   600     0    pspcod,pspxc,lmax,lloc,mmax,r2well
5.99000000  5.40000000  0.00000000    rchrg fchrg qchrg
2     2     2     1     0    nproj
1     1           extension_switch
0                         5.3537346978475D+00  5.3809004335053D-01
1  0.0000000000000D+00 -5.7130744579581D-11  2.0260526589766D-10
2  1.0000000000000D-02  4.2675820306714D-02 -1.8875092161624D-02
3  2.0000000000000D-02  8.5279174554216D-02 -3.7610687658562D-02
4  3.0000000000000D-02  1.2773792037388D-01 -5.6068282616879D-02
5  4.0000000000000D-02  1.6998056067935D-01 -7.4111351538851D-02
6  5.0000000000000D-02  2.1193656107494D-01 -9.1606318529365D-02
7  6.0000000000000D-02  2.5353666102534D-01 -1.0842350711228D-01
8  7.0000000000000D-02  2.9471317677448D-01 -1.2443806173884D-01
9  8.0000000000000D-02  3.3540029405822D-01 -1.3953083429288D-01
10  9.0000000000000D-02  3.7553434872669D-01 -1.5358922914794D-01
11  1.0000000000000D-01  4.1505409347517D-01 -1.6650800062784D-01
12  1.1000000000000D-01  4.5390094897887D-01 -1.7818999706318D-01
13  1.2000000000000D-01  4.9201923783478D-01 -1.8854684601787D-01
14  1.3000000000000D-01  5.2935639983231D-01 -1.9749957568119D-01
15  1.4000000000000D-01  5.6586318720396D-01 -2.0497916787762D-01
16  1.5000000000000D-01  6.0149383864497D-01 -2.1092703863588D-01
17  1.6000000000000D-01  6.3620623103796D-01 -2.1529544277752D-01
18  1.7000000000000D-01  6.6996200797209D-01 -2.1804779952912D-01
19  1.8000000000000D-01  7.0272668430637D-01 -2.1915893672779D-01
20  1.9000000000000D-01  7.3446972619195D-01 -2.1861525177267D-01
21  2.0000000000000D-01  7.6516460613706D-01 -2.1641478807169D-01
22  2.1000000000000D-01  7.9478883287013D-01 -2.1256722633823D-01
23  2.2000000000000D-01  8.2332395592979D-01 -2.0709379070306D-01
24  2.3000000000000D-01  8.5075554508421D-01 -2.0002707021794D-01
25  2.4000000000000D-01  8.7707314485485D-01 -1.9141075693421D-01
26  2.5000000000000D-01  9.0227020459027D-01 -1.8129930233918D-01
27  2.6000000000000D-01  9.2634398470335D-01 -1.6975749452000D-01
28  2.7000000000000D-01  9.4929543984781D-01 -1.5685995899472D-01
29  2.8000000000000D-01  9.7112907996785D-01 -1.4269058670062D-01
30  2.9000000000000D-01  9.9185281030496D-01 -1.2734189315521D-01
31  3.0000000000000D-01  1.0114777515896D+00 -1.1091431330287D-01
32  3.1000000000000D-01  1.0300180417798D+00 -9.3515437026159D-02
33  3.2000000000000D-01  1.0474906208329D+00 -7.5259190732046D-02
34  3.3000000000000D-01  1.0639150001128D+00 -5.6264970816526D-02
35  3.4000000000000D-01  1.0793130181369D+00 -3.6656735164046D-02
36  3.5000000000000D-01  1.0937085844574D+00 -1.6562059147794D-02
37  3.6000000000000D-01  1.1071274135549D+00  3.8888371384610D-03
38  3.7000000000000D-01  1.1195967506817D+00  2.4564083468927D-02
39  3.8000000000000D-01  1.1311450916495D+00  4.5331168777576D-02
40  3.9000000000000D-01  1.1418018985928D+00  6.6057957916931D-02
41  4.0000000000000D-01  1.1515973137637D+00  8.6613708578843D-02
42  4.1000000000000D-01  1.1605618734241D+00  1.0687008105467D-01
43  4.2000000000000D-01  1.1687262238977D+00  1.2670213354568D-01
44  4.3000000000000D-01  1.1761208418247D+00  1.4598929581897D-01
45  4.4000000000000D-01  1.1827757606312D+00  1.6461631413876D-01
46  4.5000000000000D-01  1.1887203051789D+00  1.8247416058701D-01
47  4.6000000000000D-01  1.1939828364985D+00  1.9946090011968D-01
48  4.7000000000000D-01  1.1985905084411D+00  2.1548250898321D-01
49  4.8000000000000D-01  1.2025690379939D+00  2.3045363843935D-01
50  4.9000000000000D-01  1.2059424909093D+00  2.4429831811197D-01
51  5.0000000000000D-01  1.2087330841897D+00  2.5695059367482D-01
52  5.1000000000000D-01  1.2109610068483D+00  2.6835509404202D-01
53  5.2000000000000D-01  1.2126442602387D+00  2.7846752369925D-01
54  5.3000000000000D-01  1.2137985191093D+00  2.8725507632121D-01
55  5.4000000000000D-01  1.2144370143900D+00  2.9469676635584D-01
56  5.5000000000000D-01  1.2145704385692D+00  3.0078367581390D-01
57  5.6000000000000D-01  1.2142068743576D+00  3.0551911408086D-01
58  5.7000000000000D-01  1.2133517471747D+00  3.0891868916327D-01
59  5.8000000000000D-01  1.2120078018252D+00  3.1101028938674D-01
60  5.9000000000000D-01  1.2101751035622D+00  3.1183397517891D-01
61  6.0000000000000D-01  1.2078510635672D+00  3.1144178118656D-01
62  6.1000000000000D-01  1.2050304886995D+00  3.0989742959634D-01
63  6.2000000000000D-01  1.2017056552028D+00  3.0727595613958D-01
64  6.3000000000000D-01  1.1978664058844D+00  3.0366325086709D-01
65  6.4000000000000D-01  1.1935002701204D+00  2.9915551637280D-01
66  6.5000000000000D-01  1.1885926058762D+00  2.9385864671753D-01
67  6.6000000000000D-01  1.1831267627789D+00  2.8788753086206D-01
68  6.7000000000000D-01  1.1770842651247D+00  2.8136528494740D-01
69  6.8000000000000D-01  1.1704450135688D+00  2.7442241826278D-01
70  6.9000000000000D-01  1.1631875041033D+00  2.6719593821480D-01
71  7.0000000000000D-01  1.1552890628113D+00  2.5982840004762D-01
72  7.1000000000000D-01  1.1467260947663D+00  2.5246690746524D-01
73  7.2000000000000D-01  1.1374743453432D+00  2.4526207066635D-01
74  7.3000000000000D-01  1.1275091721155D+00  2.3836692862146D-01
75  7.4000000000000D-01  1.1168058254309D+00  2.3193584269568D-01
76  7.5000000000000D-01  1.1053397356917D+00  2.2612336894783D-01
77  7.6000000000000D-01  1.0930868053093D+00  2.2108311661708D-01
78  7.7000000000000D-01  1.0800237032618D+00  2.1696660043846D-01
79  7.8000000000000D-01  1.0661281601557D+00  2.1392209451028D-01
80  7.9000000000000D-01  1.0513792616769D+00  2.1209349546667D-01
81  8.0000000000000D-01  1.0357577383189D+00  2.1161920268811D-01
82  8.1000000000000D-01  1.0192462492868D+00  2.1263102321170D-01
83  8.2000000000000D-01  1.0018296585049D+00  2.1525310888147D-01
84  8.3000000000000D-01  9.8349530069772D-01  2.1960093310804D-01
85  8.4000000000000D-01  9.6423323556650D-01  2.2578031438684D-01
86  8.5000000000000D-01  9.4403648815443D-01  2.3388649345703D-01
87  8.6000000000000D-01  9.2290127357164D-01  2.4400327067034D-01
88  8.7000000000000D-01  9.0082720434570D-01  2.5620220978209D-01
89  8.8000000000000D-01  8.7781747876706D-01  2.7054191397853D-01
90  8.9000000000000D-01  8.5387904871445D-01  2.8706737951646D-01
91  9.0000000000000D-01  8.2902276557120D-01  3.0580943187755D-01
92  9.1000000000000D-01  8.0326350297866D-01  3.2678424883139D-01
93  9.2000000000000D-01  7.7662025531661D-01  3.4999297426365D-01
94  9.3000000000000D-01  7.4911621095232D-01  3.7542142606063D-01
95  9.4000000000000D-01  7.2077879945907D-01  4.0303990074993D-01
96  9.5000000000000D-01  6.9163971216790D-01  4.3280307699283D-01
97  9.6000000000000D-01  6.6173489558606D-01  4.6465001939682D-01
98  9.7000000000000D-01  6.3110451738935D-01  4.9850428347633D-01
99  9.8000000000000D-01  5.9979290486965D-01  5.3427412194952D-01
100  9.9000000000000D-01  5.6784845589657D-01  5.7185279190591D-01
101  1.0000000000000D+00  5.3532352262982D-01  6.1111896173112D-01
102  1.0100000000000D+00  5.0227426839447D-01  6.5193721603120D-01
103  1.0200000000000D+00  4.6876049831069D-01  6.9415865614719D-01
104  1.0300000000000D+00  4.3484546443202D-01  7.3762159325813D-01
105  1.0400000000000D+00  4.0059564632535D-01  7.8215233042255D-01
106  1.0500000000000D+00  3.6608050818221D-01  8.2756602934101D-01
107  1.0600000000000D+00  3.3137223370895D-01  8.7366765705411D-01
108  1.0700000000000D+00  2.9654544019556D-01  9.2025300724202D-01
109  1.0800000000000D+00  2.6167687330091D-01  9.6710979029781D-01
110  1.0900000000000D+00  2.2684508422401D-01  1.0140187858763D+00
111  1.1000000000000D+00  1.9213009106116D-01  1.0607550511569D+00
112  1.1100000000000D+00  1.5761302625191D-01  1.1070891776969D+00
113  1.1200000000000D+00  1.2337577212636D-01  1.1527885893650D+00
114  1.1300000000000D+00  8.9500586638970D-02  1.1976188735957D+00
115  1.1400000000000D+00  5.6069721470859D-02  1.2413451378694D+00
116  1.1500000000000D+00  2.3165034729765D-02  1.2837333831661D+00
117  1.1600000000000D+00 -9.1323994689649D-03  1.3245518859674D+00
118  1.1700000000000D+00 -4.0742682227528D-02  1.3635725802815D+00
119  1.1800000000000D+00 -7.1587479553463D-02  1.4005724310877D+00
120  1.1900000000000D+00 -1.0159040817186D-01  1.4353347906269D+00
121  1.2000000000000D+00 -1.3067741513282D-01  1.4676507290251D+00
122  1.2100000000000D+00 -1.5877714889485D-01  1.4973203307853D+00
123  1.2200000000000D+00 -1.8582131961764D-01  1.5241539489093D+00
124  1.2300000000000D+00 -2.1174504646621D-01  1.5479734086781D+00
125  1.2400000000000D+00 -2.3648718973846D-01  1.5686131531700D+00
126  1.2500000000000D+00 -2.5999066577167D-01  1.5859213231547D+00
127  1.2600000000000D+00 -2.8220274267511D-01  1.5997607643553D+00
128  1.2700000000000D+00 -3.0307531497139D-01  1.6100099552079D+00
129  1.2800000000000D+00 -3.2256515542457D-01  1.6165638490004D+00
130  1.2900000000000D+00 -3.4063414248732D-01  1.6193346248522D+00
131  1.3000000000000D+00 -3.5724946180385D-01  1.6182523420175D+00
132  1.3100000000000D+00 -3.7238378049442D-01  1.6132654930914D+00
133  1.3200000000000D+00 -3.8601539313941D-01  1.6043414524127D+00
134  1.3300000000000D+00 -3.9812833830024D-01  1.5914668156596D+00
135  1.3400000000000D+00 -4.0871248491012D-01  1.5746476284967D+00
136  1.3500000000000D+00 -4.1776358791793D-01  1.5539095023064D+00
137  1.3600000000000D+00 -4.2528331255592D-01  1.5292976150048D+00
138  1.3700000000000D+00 -4.3127922723063D-01  1.5008765972754D+00
139  1.3800000000000D+00 -4.3576476481605D-01  1.4687303037327D+00
140  1.3900000000000D+00 -4.3875915245201D-01  1.4329614697373D+00
141  1.4000000000000D+00 -4.4028731043113D-01  1.3936912563530D+00
142  1.4100000000000D+00 -4.4037972030537D-01  1.3510586842699D+00
143  1.4200000000000D+00 -4.3907226328596D-01  1.3052199609949D+00
144  1.4300000000000D+00 -4.3640602966858D-01  1.2563477043441D+00
145  1.4400000000000D+00 -4.3242710026030D-01  1.2046300661834D+00
146  1.4500000000000D+00 -4.2718630141530D-01  1.1502697626554D+00
147  1.4600000000000D+00 -4.2073893458992D-01  1.0934830146017D+00
148  1.4700000000000D+00 -4.1314448249797D-01  1.0344984061459D+00
149  1.4800000000000D+00 -4.0446629323484D-01  9.7355566680849D-01
150  1.4900000000000D+00 -3.9477124437146D-01  9.1090438483310D-01
151  1.5000000000000D+00 -3.8412938906605D-01  8.4680265954074D-01
152  1.5100000000000D+00 -3.7261358605530D-01  7.8151569989806D-01
153  1.5200000000000D+00 -3.6029911605679D-01  7.1531437882973D-01
154  1.5300000000000D+00 -3.4726328647568D-01  6.4847375058522D-01
155  1.5400000000000D+00 -3.3358502709792D-01  5.8127154119780D-01
156  1.5500000000000D+00 -3.1934447889581D-01  5.1398662016099D-01
157  1.5600000000000D+00 -3.0462257855090D-01  4.4689746307675D-01
158  1.5700000000000D+00 -2.8950064099618D-01  3.8028061396365D-01
159  1.5800000000000D+00 -2.7405994255540D-01  3.1440915690054D-01
160  1.5900000000000D+00 -2.5838130690897D-01  2.4955120532395D-01
161  1.6000000000000D+00 -2.4254469656773D-01  1.8596841906331D-01
162  1.6100000000000D+00 -2.2662881173818D-01  1.2391455604671D-01
163  1.6200000000000D+00 -2.1071069949473D-01  6.3634069652990D-02
164  1.6300000000000D+00 -1.9486537453929D-01  5.3607563059782D-03
165  1.6400000000000D+00 -1.7916545480431D-01 -5.0683534432544D-02
166  1.6500000000000D+00 -1.6368081236167D-01 -1.0429012580026D-01
167  1.6600000000000D+00 -1.4847824327677D-01 -1.5526466211699D-01
168  1.6700000000000D+00 -1.3362115596164D-01 -2.0342818138441D-01
169  1.6800000000000D+00 -1.1916928194163D-01 -2.4861809751196D-01
170  1.6900000000000D+00 -1.0517840771955D-01 -2.9068909741357D-01
171  1.7000000000000D+00 -9.1700131807196D-02 -3.2951393774006D-01
172  1.7100000000000D+00 -7.8781644700461D-02 -3.6498414989332D-01
173  1.7200000000000D+00 -6.6465536050635D-02 -3.9701063743972D-01
174  1.7300000000000D+00 -5.4789625751337D-02 -4.2552417852314D-01
175  1.7400000000000D+00 -4.3786823433477D-02 -4.5047581653355D-01
176  1.7500000000000D+00 -3.3485012059578D-02 -4.7183715546647D-01
177  1.7600000000000D+00 -2.3906960070179D-02 -4.8960054342182D-01
178  1.7700000000000D+00 -1.5070257183244D-02 -5.0377916285718D-01
179  1.7800000000000D+00 -6.9872777011927D-03 -5.1440701333305D-01
180  1.7900000000000D+00  3.3483358134058D-04 -5.2153880535492D-01
181  1.8000000000000D+00  6.8941501717262D-03 -5.2524975542740D-01
182  1.8100000000000D+00  1.2693931728511D-02 -5.2563529881564D-01
183  1.8200000000000D+00  1.7742569934372D-02 -5.2281071639416D-01
184  1.8300000000000D+00  2.2053515668740D-02 -5.1691068802729D-01
185  1.8400000000000D+00  2.5645191638228D-02 -5.0808879004788D-01
186  1.8500000000000D+00  2.8540877787484D-02 -4.9651688138330D-01
187  1.8600000000000D+00  3.0768595452287D-02 -4.8238448754824D-01
188  1.8700000000000D+00  3.2361027044706D-02 -4.6589834164334D-01
189  1.8800000000000D+00  3.3355155574561D-02 -4.4728074177155D-01
190  1.8900000000000D+00  3.3792341386337D-02 -4.2676972399284D-01
191  1.9000000000000D+00  3.3718660375692D-02 -4.0462046928789D-01
192  1.9100000000000D+00  3.3183659565438D-02 -3.8109980455275D-01
193  1.9200000000000D+00  3.2239495860076D-02 -3.5648232418082D-01
194  1.9300000000000D+00  3.0939928655146D-02 -3.3104612778075D-01
195  1.9400000000000D+00  2.9339023468378D-02 -3.0506740879594D-01
196  1.9500000000000D+00  2.7490073128152D-02 -2.7881597601418D-01
197  1.9600000000000D+00  2.5445560722429D-02 -2.5255531437493D-01
198  1.9700000000000D+00  2.3256951893690D-02 -2.2654199177618D-01
199  1.9800000000000D+00  2.0974005689024D-02 -2.0102284961289D-01
200  1.9900000000000D+00  1.8644470748282D-02 -1.7623392744454D-01
201  2.0000000000000D+00  1.6313691104011D-02 -1.5239897185612D-01
202  2.0100000000000D+00  1.4024233885096D-02 -1.2972803213769D-01
203  2.0200000000000D+00  1.1815549216462D-02 -1.0841618617394D-01
204  2.0300000000000D+00  9.7236535819636D-03 -8.8642353990097D-02
205  2.0400000000000D+00  7.7808353323033D-03 -7.0568196531228D-02
206  2.0500000000000D+00  6.0163587347334D-03 -5.4345984674259D-02
207  2.0600000000000D+00  4.4530539990681D-03 -4.0088634784632D-02
208  2.0700000000000D+00  3.1078093092743D-03 -2.7875681932233D-02
209  2.0800000000000D+00  1.9910455182600D-03 -1.7752812805714D-02
210  2.0900000000000D+00  1.1343559411222D-03 -9.9664987647784D-03
211  2.1000000000000D+00  5.5502192529867D-04 -4.6515367255880D-03
212  2.1100000000000D+00  2.2131636828001D-04 -1.5634256604147D-03
213  2.1200000000000D+00  6.3129287471788D-05 -1.4327441978080D-04
214  2.1300000000000D+00  3.3138940809981D-06  2.4106304661880D-04
215  2.1400000000000D+00 -3.7241745374366D-06  1.1240010792482D-04
216  2.1500000000000D+00  2.8690570007055D-06 -6.1949869217575D-05
217  2.1600000000000D+00  4.5433530597923D-06 -8.4184051995912D-05
218  2.1700000000000D+00  3.2318142695890D-07 -5.5508802089818D-06
219  2.1800000000000D+00 -4.9823053854007D-07  1.4738197693168D-05
220  2.1900000000000D+00 -4.1337224973028D-07  1.0802271378192D-05
221  2.2000000000000D+00 -8.8323719449434D-08  2.4726542947884D-07
222  2.2100000000000D+00 -1.9579883379926D-07  5.4814587783010D-07
223  2.2200000000000D+00 -6.4363378887038D-08  1.8018759425461D-07
224  2.2300000000000D+00  0.0000000000000D+00  0.0000000000000D+00
225  2.2400000000000D+00  0.0000000000000D+00  0.0000000000000D+00
226  2.2500000000000D+00  0.0000000000000D+00  0.0000000000000D+00
227  2.2600000000000D+00  0.0000000000000D+00  0.0000000000000D+00
228  2.2700000000000D+00  0.0000000000000D+00  0.0000000000000D+00
229  2.2800000000000D+00  0.0000000000000D+00  0.0000000000000D+00
230  2.2900000000000D+00  0.0000000000000D+00  0.0000000000000D+00
231  2.3000000000000D+00  0.0000000000000D+00  0.0000000000000D+00
232  2.3100000000000D+00  0.0000000000000D+00  0.0000000000000D+00
233  2.3200000000000D+00  0.0000000000000D+00  0.0000000000000D+00
234  2.3300000000000D+00  0.0000000000000D+00  0.0000000000000D+00
235  2.3400000000000D+00  0.0000000000000D+00  0.0000000000000D+00
236  2.3500000000000D+00  0.0000000000000D+00  0.0000000000000D+00
237  2.3600000000000D+00  0.0000000000000D+00  0.0000000000000D+00
238  2.3700000000000D+00  0.0000000000000D+00  0.0000000000000D+00
239  2.3800000000000D+00  0.0000000000000D+00  0.0000000000000D+00
240  2.3900000000000D+00  0.0000000000000D+00  0.0000000000000D+00
241  2.4000000000000D+00  0.0000000000000D+00  0.0000000000000D+00
242  2.4100000000000D+00  0.0000000000000D+00  0.0000000000000D+00
243  2.4200000000000D+00  0.0000000000000D+00  0.0000000000000D+00
244  2.4300000000000D+00  0.0000000000000D+00  0.0000000000000D+00
245  2.4400000000000D+00  0.0000000000000D+00  0.0000000000000D+00
246  2.4500000000000D+00  0.0000000000000D+00  0.0000000000000D+00
247  2.4600000000000D+00  0.0000000000000D+00  0.0000000000000D+00
248  2.4700000000000D+00  0.0000000000000D+00  0.0000000000000D+00
249  2.4800000000000D+00  0.0000000000000D+00  0.0000000000000D+00
250  2.4900000000000D+00  0.0000000000000D+00  0.0000000000000D+00
251  2.5000000000000D+00  0.0000000000000D+00  0.0000000000000D+00
252  2.5100000000000D+00  0.0000000000000D+00  0.0000000000000D+00
253  2.5200000000000D+00  0.0000000000000D+00  0.0000000000000D+00
254  2.5300000000000D+00  0.0000000000000D+00  0.0000000000000D+00
255  2.5400000000000D+00  0.0000000000000D+00  0.0000000000000D+00
256  2.5500000000000D+00  0.0000000000000D+00  0.0000000000000D+00
257  2.5600000000000D+00  0.0000000000000D+00  0.0000000000000D+00
258  2.5700000000000D+00  0.0000000000000D+00  0.0000000000000D+00
259  2.5800000000000D+00  0.0000000000000D+00  0.0000000000000D+00
260  2.5900000000000D+00  0.0000000000000D+00  0.0000000000000D+00
261  2.6000000000000D+00  0.0000000000000D+00  0.0000000000000D+00
262  2.6100000000000D+00  0.0000000000000D+00  0.0000000000000D+00
263  2.6200000000000D+00  0.0000000000000D+00  0.0000000000000D+00
264  2.6300000000000D+00  0.0000000000000D+00  0.0000000000000D+00
265  2.6400000000000D+00  0.0000000000000D+00  0.0000000000000D+00
266  2.6500000000000D+00  0.0000000000000D+00  0.0000000000000D+00
267  2.6600000000000D+00  0.0000000000000D+00  0.0000000000000D+00
268  2.6700000000000D+00  0.0000000000000D+00  0.0000000000000D+00
269  2.6800000000000D+00  0.0000000000000D+00  0.0000000000000D+00
270  2.6900000000000D+00  0.0000000000000D+00  0.0000000000000D+00
271  2.7000000000000D+00  0.0000000000000D+00  0.0000000000000D+00
272  2.7100000000000D+00  0.0000000000000D+00  0.0000000000000D+00
273  2.7200000000000D+00  0.0000000000000D+00  0.0000000000000D+00
274  2.7300000000000D+00  0.0000000000000D+00  0.0000000000000D+00
275  2.7400000000000D+00  0.0000000000000D+00  0.0000000000000D+00
276  2.7500000000000D+00  0.0000000000000D+00  0.0000000000000D+00
277  2.7600000000000D+00  0.0000000000000D+00  0.0000000000000D+00
278  2.7700000000000D+00  0.0000000000000D+00  0.0000000000000D+00
279  2.7800000000000D+00  0.0000000000000D+00  0.0000000000000D+00
280  2.7900000000000D+00  0.0000000000000D+00  0.0000000000000D+00
281  2.8000000000000D+00  0.0000000000000D+00  0.0000000000000D+00
282  2.8100000000000D+00  0.0000000000000D+00  0.0000000000000D+00
283  2.8200000000000D+00  0.0000000000000D+00  0.0000000000000D+00
284  2.8300000000000D+00  0.0000000000000D+00  0.0000000000000D+00
285  2.8400000000000D+00  0.0000000000000D+00  0.0000000000000D+00
286  2.8500000000000D+00  0.0000000000000D+00  0.0000000000000D+00
287  2.8600000000000D+00  0.0000000000000D+00  0.0000000000000D+00
288  2.8700000000000D+00  0.0000000000000D+00  0.0000000000000D+00
289  2.8800000000000D+00  0.0000000000000D+00  0.0000000000000D+00
290  2.8900000000000D+00  0.0000000000000D+00  0.0000000000000D+00
291  2.9000000000000D+00  0.0000000000000D+00  0.0000000000000D+00
292  2.9100000000000D+00  0.0000000000000D+00  0.0000000000000D+00
293  2.9200000000000D+00  0.0000000000000D+00  0.0000000000000D+00
294  2.9300000000000D+00  0.0000000000000D+00  0.0000000000000D+00
295  2.9400000000000D+00  0.0000000000000D+00  0.0000000000000D+00
296  2.9500000000000D+00  0.0000000000000D+00  0.0000000000000D+00
297  2.9600000000000D+00  0.0000000000000D+00  0.0000000000000D+00
298  2.9700000000000D+00  0.0000000000000D+00  0.0000000000000D+00
299  2.9800000000000D+00  0.0000000000000D+00  0.0000000000000D+00
300  2.9900000000000D+00  0.0000000000000D+00  0.0000000000000D+00
301  3.0000000000000D+00  0.0000000000000D+00  0.0000000000000D+00
302  3.0100000000000D+00  0.0000000000000D+00  0.0000000000000D+00
303  3.0200000000000D+00  0.0000000000000D+00  0.0000000000000D+00
304  3.0300000000000D+00  0.0000000000000D+00  0.0000000000000D+00
305  3.0400000000000D+00  0.0000000000000D+00  0.0000000000000D+00
306  3.0500000000000D+00  0.0000000000000D+00  0.0000000000000D+00
307  3.0600000000000D+00  0.0000000000000D+00  0.0000000000000D+00
308  3.0700000000000D+00  0.0000000000000D+00  0.0000000000000D+00
309  3.0800000000000D+00  0.0000000000000D+00  0.0000000000000D+00
310  3.0900000000000D+00  0.0000000000000D+00  0.0000000000000D+00
311  3.1000000000000D+00  0.0000000000000D+00  0.0000000000000D+00
312  3.1100000000000D+00  0.0000000000000D+00  0.0000000000000D+00
313  3.1200000000000D+00  0.0000000000000D+00  0.0000000000000D+00
314  3.1300000000000D+00  0.0000000000000D+00  0.0000000000000D+00
315  3.1400000000000D+00  0.0000000000000D+00  0.0000000000000D+00
316  3.1500000000000D+00  0.0000000000000D+00  0.0000000000000D+00
317  3.1600000000000D+00  0.0000000000000D+00  0.0000000000000D+00
318  3.1700000000000D+00  0.0000000000000D+00  0.0000000000000D+00
319  3.1800000000000D+00  0.0000000000000D+00  0.0000000000000D+00
320  3.1900000000000D+00  0.0000000000000D+00  0.0000000000000D+00
321  3.2000000000000D+00  0.0000000000000D+00  0.0000000000000D+00
322  3.2100000000000D+00  0.0000000000000D+00  0.0000000000000D+00
323  3.2200000000000D+00  0.0000000000000D+00  0.0000000000000D+00
324  3.2300000000000D+00  0.0000000000000D+00  0.0000000000000D+00
325  3.2400000000000D+00  0.0000000000000D+00  0.0000000000000D+00
326  3.2500000000000D+00  0.0000000000000D+00  0.0000000000000D+00
327  3.2600000000000D+00  0.0000000000000D+00  0.0000000000000D+00
328  3.2700000000000D+00  0.0000000000000D+00  0.0000000000000D+00
329  3.2800000000000D+00  0.0000000000000D+00  0.0000000000000D+00
330  3.2900000000000D+00  0.0000000000000D+00  0.0000000000000D+00
331  3.3000000000000D+00  0.0000000000000D+00  0.0000000000000D+00
332  3.3100000000000D+00  0.0000000000000D+00  0.0000000000000D+00
333  3.3200000000000D+00  0.0000000000000D+00  0.0000000000000D+00
334  3.3300000000000D+00  0.0000000000000D+00  0.0000000000000D+00
335  3.3400000000000D+00  0.0000000000000D+00  0.0000000000000D+00
336  3.3500000000000D+00  0.0000000000000D+00  0.0000000000000D+00
337  3.3600000000000D+00  0.0000000000000D+00  0.0000000000000D+00
338  3.3700000000000D+00  0.0000000000000D+00  0.0000000000000D+00
339  3.3800000000000D+00  0.0000000000000D+00  0.0000000000000D+00
340  3.3900000000000D+00  0.0000000000000D+00  0.0000000000000D+00
341  3.4000000000000D+00  0.0000000000000D+00  0.0000000000000D+00
342  3.4100000000000D+00  0.0000000000000D+00  0.0000000000000D+00
343  3.4200000000000D+00  0.0000000000000D+00  0.0000000000000D+00
344  3.4300000000000D+00  0.0000000000000D+00  0.0000000000000D+00
345  3.4400000000000D+00  0.0000000000000D+00  0.0000000000000D+00
346  3.4500000000000D+00  0.0000000000000D+00  0.0000000000000D+00
347  3.4600000000000D+00  0.0000000000000D+00  0.0000000000000D+00
348  3.4700000000000D+00  0.0000000000000D+00  0.0000000000000D+00
349  3.4800000000000D+00  0.0000000000000D+00  0.0000000000000D+00
350  3.4900000000000D+00  0.0000000000000D+00  0.0000000000000D+00
351  3.5000000000000D+00  0.0000000000000D+00  0.0000000000000D+00
352  3.5100000000000D+00  0.0000000000000D+00  0.0000000000000D+00
353  3.5200000000000D+00  0.0000000000000D+00  0.0000000000000D+00
354  3.5300000000000D+00  0.0000000000000D+00  0.0000000000000D+00
355  3.5400000000000D+00  0.0000000000000D+00  0.0000000000000D+00
356  3.5500000000000D+00  0.0000000000000D+00  0.0000000000000D+00
357  3.5600000000000D+00  0.0000000000000D+00  0.0000000000000D+00
358  3.5700000000000D+00  0.0000000000000D+00  0.0000000000000D+00
359  3.5800000000000D+00  0.0000000000000D+00  0.0000000000000D+00
360  3.5900000000000D+00  0.0000000000000D+00  0.0000000000000D+00
361  3.6000000000000D+00  0.0000000000000D+00  0.0000000000000D+00
362  3.6100000000000D+00  0.0000000000000D+00  0.0000000000000D+00
363  3.6200000000000D+00  0.0000000000000D+00  0.0000000000000D+00
364  3.6300000000000D+00  0.0000000000000D+00  0.0000000000000D+00
365  3.6400000000000D+00  0.0000000000000D+00  0.0000000000000D+00
366  3.6500000000000D+00  0.0000000000000D+00  0.0000000000000D+00
367  3.6600000000000D+00  0.0000000000000D+00  0.0000000000000D+00
368  3.6700000000000D+00  0.0000000000000D+00  0.0000000000000D+00
369  3.6800000000000D+00  0.0000000000000D+00  0.0000000000000D+00
370  3.6900000000000D+00  0.0000000000000D+00  0.0000000000000D+00
371  3.7000000000000D+00  0.0000000000000D+00  0.0000000000000D+00
372  3.7100000000000D+00  0.0000000000000D+00  0.0000000000000D+00
373  3.7200000000000D+00  0.0000000000000D+00  0.0000000000000D+00
374  3.7300000000000D+00  0.0000000000000D+00  0.0000000000000D+00
375  3.7400000000000D+00  0.0000000000000D+00  0.0000000000000D+00
376  3.7500000000000D+00  0.0000000000000D+00  0.0000000000000D+00
377  3.7600000000000D+00  0.0000000000000D+00  0.0000000000000D+00
378  3.7700000000000D+00  0.0000000000000D+00  0.0000000000000D+00
379  3.7800000000000D+00  0.0000000000000D+00  0.0000000000000D+00
380  3.7900000000000D+00  0.0000000000000D+00  0.0000000000000D+00
381  3.8000000000000D+00  0.0000000000000D+00  0.0000000000000D+00
382  3.8100000000000D+00  0.0000000000000D+00  0.0000000000000D+00
383  3.8200000000000D+00  0.0000000000000D+00  0.0000000000000D+00
384  3.8300000000000D+00  0.0000000000000D+00  0.0000000000000D+00
385  3.8400000000000D+00  0.0000000000000D+00  0.0000000000000D+00
386  3.8500000000000D+00  0.0000000000000D+00  0.0000000000000D+00
387  3.8600000000000D+00  0.0000000000000D+00  0.0000000000000D+00
388  3.8700000000000D+00  0.0000000000000D+00  0.0000000000000D+00
389  3.8800000000000D+00  0.0000000000000D+00  0.0000000000000D+00
390  3.8900000000000D+00  0.0000000000000D+00  0.0000000000000D+00
391  3.9000000000000D+00  0.0000000000000D+00  0.0000000000000D+00
392  3.9100000000000D+00  0.0000000000000D+00  0.0000000000000D+00
393  3.9200000000000D+00  0.0000000000000D+00  0.0000000000000D+00
394  3.9300000000000D+00  0.0000000000000D+00  0.0000000000000D+00
395  3.9400000000000D+00  0.0000000000000D+00  0.0000000000000D+00
396  3.9500000000000D+00  0.0000000000000D+00  0.0000000000000D+00
397  3.9600000000000D+00  0.0000000000000D+00  0.0000000000000D+00
398  3.9700000000000D+00  0.0000000000000D+00  0.0000000000000D+00
399  3.9800000000000D+00  0.0000000000000D+00  0.0000000000000D+00
400  3.9900000000000D+00  0.0000000000000D+00  0.0000000000000D+00
401  4.0000000000000D+00  0.0000000000000D+00  0.0000000000000D+00
402  4.0100000000000D+00  0.0000000000000D+00  0.0000000000000D+00
403  4.0200000000000D+00  0.0000000000000D+00  0.0000000000000D+00
404  4.0300000000000D+00  0.0000000000000D+00  0.0000000000000D+00
405  4.0400000000000D+00  0.0000000000000D+00  0.0000000000000D+00
406  4.0500000000000D+00  0.0000000000000D+00  0.0000000000000D+00
407  4.0600000000000D+00  0.0000000000000D+00  0.0000000000000D+00
408  4.0700000000000D+00  0.0000000000000D+00  0.0000000000000D+00
409  4.0800000000000D+00  0.0000000000000D+00  0.0000000000000D+00
410  4.0900000000000D+00  0.0000000000000D+00  0.0000000000000D+00
411  4.1000000000000D+00  0.0000000000000D+00  0.0000000000000D+00
412  4.1100000000000D+00  0.0000000000000D+00  0.0000000000000D+00
413  4.1200000000000D+00  0.0000000000000D+00  0.0000000000000D+00
414  4.1300000000000D+00  0.0000000000000D+00  0.0000000000000D+00
415  4.1400000000000D+00  0.0000000000000D+00  0.0000000000000D+00
416  4.1500000000000D+00  0.0000000000000D+00  0.0000000000000D+00
417  4.1600000000000D+00  0.0000000000000D+00  0.0000000000000D+00
418  4.1700000000000D+00  0.0000000000000D+00  0.0000000000000D+00
419  4.1800000000000D+00  0.0000000000000D+00  0.0000000000000D+00
420  4.1900000000000D+00  0.0000000000000D+00  0.0000000000000D+00
421  4.2000000000000D+00  0.0000000000000D+00  0.0000000000000D+00
422  4.2100000000000D+00  0.0000000000000D+00  0.0000000000000D+00
423  4.2200000000000D+00  0.0000000000000D+00  0.0000000000000D+00
424  4.2300000000000D+00  0.0000000000000D+00  0.0000000000000D+00
425  4.2400000000000D+00  0.0000000000000D+00  0.0000000000000D+00
426  4.2500000000000D+00  0.0000000000000D+00  0.0000000000000D+00
427  4.2600000000000D+00  0.0000000000000D+00  0.0000000000000D+00
428  4.2700000000000D+00  0.0000000000000D+00  0.0000000000000D+00
429  4.2800000000000D+00  0.0000000000000D+00  0.0000000000000D+00
430  4.2900000000000D+00  0.0000000000000D+00  0.0000000000000D+00
431  4.3000000000000D+00  0.0000000000000D+00  0.0000000000000D+00
432  4.3100000000000D+00  0.0000000000000D+00  0.0000000000000D+00
433  4.3200000000000D+00  0.0000000000000D+00  0.0000000000000D+00
434  4.3300000000000D+00  0.0000000000000D+00  0.0000000000000D+00
435  4.3400000000000D+00  0.0000000000000D+00  0.0000000000000D+00
436  4.3500000000000D+00  0.0000000000000D+00  0.0000000000000D+00
437  4.3600000000000D+00  0.0000000000000D+00  0.0000000000000D+00
438  4.3700000000000D+00  0.0000000000000D+00  0.0000000000000D+00
439  4.3800000000000D+00  0.0000000000000D+00  0.0000000000000D+00
440  4.3900000000000D+00  0.0000000000000D+00  0.0000000000000D+00
441  4.4000000000000D+00  0.0000000000000D+00  0.0000000000000D+00
442  4.4100000000000D+00  0.0000000000000D+00  0.0000000000000D+00
443  4.4200000000000D+00  0.0000000000000D+00  0.0000000000000D+00