F     ONCVPSP  r_core=  1.31  1.60  1.26
9.0000      7.0000      150124    zatom,zion,pspd
8      11   2     4   600     0    pspcod,pspxc,lmax,lloc,mmax,r2well
5.99000000  0.05000000  0.00000000    rchrg fchrg qchrg
2     2     1     0     0    nproj
0                 extension_switch
0                         2.8769633235731D+00 -3.6002050504617D-01
1  0.0000000000000D+00  0.0000000000000D+00  0.0000000000000D+00
2  1.0000000000000D-02  9.2733279564348D-02  5.5681749956371D-02
3  2.0000000000000D-02  1.8497760337334D-01  1.0972237475077D-01
4  3.0000000000000D-02  2.7625011858611D-01  1.6051418908670D-01
5  4.0000000000000D-02  3.6608007660281D-01  2.0651576870551D-01
6  5.0000000000000D-02  4.5401463298073D-01  2.4628354520402D-01
7  6.0000000000000D-02  5.3962434961328D-01  2.7850158868690D-01
8  7.0000000000000D-02  6.2250830802846D-01  3.0200902481833D-01
9  8.0000000000000D-02  7.0229874940102D-01  3.1582457494657D-01
10  9.0000000000000D-02  7.7866516511002D-01  3.1916775941172D-01
11  1.0000000000000D-01  8.5131777124264D-01  3.1147636386384D-01
12  1.1000000000000D-01  9.2001031107079D-01  2.9241983482912D-01
13  1.2000000000000D-01  9.8454214133491D-01  2.6190834426961D-01
14  1.3000000000000D-01  1.0447595704889D+00  2.2009733985000D-01
15  1.4000000000000D-01  1.1005564301545D+00  1.6738747906742D-01
16  1.5000000000000D-01  1.1518738743237D+00  1.0441992820024D-01
17  1.6000000000000D-01  1.1986994142370D+00  3.2067090355870D-02
18  1.7000000000000D-01  1.2410652103271D+00 -4.8581089516728D-02
19  1.8000000000000D-01  1.2790456554925D+00 -1.3623501492214D-01
20  1.9000000000000D-01  1.3127542950123D+00 -2.2942722902669D-01
21  2.0000000000000D-01  1.3423401448143D+00 -3.2653770374737D-01
22  2.1000000000000D-01  1.3679834694357D+00 -4.2582224210389D-01
23  2.2000000000000D-01  1.3898911074090D+00 -5.2544342362300D-01
24  2.3000000000000D-01  1.4082914193479D+00 -6.2350362445651D-01
25  2.4000000000000D-01  1.4234289631756D+00 -7.1807944321978D-01
26  2.5000000000000D-01  1.4355589750833D+00 -8.0725704507084D-01
27  2.6000000000000D-01  1.4449417837649D+00 -8.8916761031481D-01
28  2.7000000000000D-01  1.4518372210329D+00 -9.6202250472105D-01
29  2.8000000000000D-01  1.4564991816856D+00 -1.0241471995094D+00
30  2.9000000000000D-01  1.4591703787585D+00 -1.0740136682527D+00
31  3.0000000000000D-01  1.4600774195819D+00 -1.1102704703623D+00
32  3.1000000000000D-01  1.4594262854609D+00 -1.1317700103852D+00
33  3.2000000000000D-01  1.4573983122882D+00 -1.1375923728666D+00
34  3.3000000000000D-01  1.4541467136905D+00 -1.1270654832287D+00
35  3.4000000000000D-01  1.4497936780537D+00 -1.0997813928066D+00
36  3.5000000000000D-01  1.4444283193909D+00 -1.0556069996681D+00
37  3.6000000000000D-01  1.4381050472476D+00 -9.9469183717732D-01
38  3.7000000000000D-01  1.4308429932235D+00 -9.1746909997698D-01
39  3.8000000000000D-01  1.4226260114891D+00 -8.2465283381196D-01
40  3.9000000000000D-01  1.4134034176935D+00 -7.1723026255390D-01
41  4.0000000000000D-01  1.4030916120206D+00 -5.9644850765269D-01
42  4.1000000000000D-01  1.3915763123829D+00 -4.6379727484267D-01
43  4.2000000000000D-01  1.3787154964996D+00 -3.2098698911518D-01
44  4.3000000000000D-01  1.3643429728210D+00 -1.6992288736202D-01
45  4.4000000000000D-01  1.3482725161450D+00 -1.2675492049280D-02
46  4.5000000000000D-01  1.3303024941413D+00  1.4855205029746D-01
47  4.6000000000000D-01  1.3102209016164D+00  3.1145922272085D-01
48  4.7000000000000D-01  1.2878107097476D+00  4.7368537926243D-01
49  4.8000000000000D-01  1.2628553668251D+00  6.3284785734705D-01
50  4.9000000000000D-01  1.2351445643219D+00  7.8658191972482D-01
51  5.0000000000000D-01  1.2044800149942D+00  9.3258066495904D-01
52  5.1000000000000D-01  1.1706808788136D+00  1.0686324307986D+00
53  5.2000000000000D-01  1.1335890017070D+00  1.1926570138650D+00
54  5.3000000000000D-01  1.0930748143809D+00  1.3027467734409D+00
55  5.4000000000000D-01  1.0490409627715D+00  1.3971917117413D+00
56  5.5000000000000D-01  1.0014274109695D+00  1.4745154582673D+00
57  5.6000000000000D-01  9.5021470611763D-01  1.5334984648248D+00
58  5.7000000000000D-01  8.9542696224988D-01  1.5731996299000D+00
59  5.8000000000000D-01  8.3713447722949D-01  1.5929758166809D+00
60  5.9000000000000D-01  7.7545504911793D-01  1.5924925667364D+00
61  6.0000000000000D-01  7.1055463565869D-01  1.5717306856781D+00
62  6.1000000000000D-01  6.4264804588305D-01  1.5309938171638D+00
63  6.2000000000000D-01  5.7199665265871D-01  1.4708947442634D+00
64  6.3000000000000D-01  4.9890848339542D-01  1.3923604019301D+00
65  6.4000000000000D-01  4.2373440753156D-01  1.2966084093761D+00
66  6.5000000000000D-01  3.4686504739107D-01  1.1851294188083D+00
67  6.6000000000000D-01  2.6872750974475D-01  1.0596704732622D+00
68  6.7000000000000D-01  1.8977994783079D-01  9.2220089983752D-01
69  6.8000000000000D-01  1.1050662535827D-01  7.7488336057005D-01
70  6.9000000000000D-01  3.1412248099413D-02  6.2004015556217D-01
71  7.0000000000000D-01 -4.6984620643244D-02  4.6011426333404D-01
72  7.1000000000000D-01 -1.2415780422629D-01  2.9763059924527D-01
73  7.2000000000000D-01 -1.9958030368952D-01  1.3515532365475D-01
74  7.3000000000000D-01 -2.7273110735291D-01 -2.4745434235672D-02
75  7.4000000000000D-01 -3.4310174396028D-01 -1.7954544807248D-01
76  7.5000000000000D-01 -4.1020439418238D-01 -3.2680678992259D-01
77  7.6000000000000D-01 -4.7357711174290D-01 -4.6421233975656D-01
78  7.7000000000000D-01 -5.3279046082999D-01 -5.8960561354788D-01
79  7.8000000000000D-01 -5.8745332803305D-01 -7.0102581680310D-01
80  7.9000000000000D-01 -6.3721821427679D-01 -7.9673964825904D-01
81  8.0000000000000D-01 -6.8178591876347D-01 -8.7526930424765D-01
82  8.1000000000000D-01 -7.2090953731695D-01 -9.3541620145875D-01
83  8.2000000000000D-01 -7.5439770919509D-01 -9.7628001117491D-01
84  8.3000000000000D-01 -7.8211705915150D-01 -9.9727267991070D-01
85  8.4000000000000D-01 -8.0399379503470D-01 -9.9812719816056D-01
86  8.5000000000000D-01 -8.2001443527389D-01 -9.7890096911216D-01
87  8.6000000000000D-01 -8.3022565499448D-01 -9.3997372129782D-01
88  8.7000000000000D-01 -8.3473325403597D-01 -8.8204000195932D-01
89  8.8000000000000D-01 -8.3370026463276D-01 -8.0609638025077D-01
90  8.9000000000000D-01 -8.2734423080495D-01 -7.1342358026129D-01
91  9.0000000000000D-01 -8.1593370543782D-01 -6.0556385219329D-01
92  9.1000000000000D-01 -7.9978402443950D-01 -4.8429397480376D-01
93  9.2000000000000D-01 -7.7925243006565D-01 -3.5159436213354D-01
94  9.3000000000000D-01 -7.5473262724387D-01 -2.0961482102738D-01
95  9.4000000000000D-01 -7.2664886721397D-01 -6.0637570975597D-02
96  9.5000000000000D-01 -6.9544966163755D-01  9.2961808113979D-02
97  9.6000000000000D-01 -6.6160134993927D-01  2.4875397984683D-01
98  9.7000000000000D-01 -6.2558193866480D-01  4.0429347643610D-01
99  9.8000000000000D-01 -5.8787260427989D-01  5.5717196135212D-01
100  9.9000000000000D-01 -5.4895223169865D-01  7.0504950573963D-01
101  1.0000000000000D+00 -5.0929060106971D-01  8.4569599288376D-01
102  1.0100000000000D+00 -4.6934217319735D-01  9.7702793776021D-01
103  1.0200000000000D+00 -4.2954028831627D-01  1.0971424019133D+00
104  1.0300000000000D+00 -3.9029405758481D-01  1.2043338737717D+00
105  1.0400000000000D+00 -3.5197822585899D-01  1.2971549090978D+00
106  1.0500000000000D+00 -3.1493105568247D-01  1.3744252257828D+00
107  1.0600000000000D+00 -2.7945269586849D-01  1.4352384621595D+00
108  1.0700000000000D+00 -2.4580160592752D-01  1.4789806405659D+00
109  1.0800000000000D+00 -2.1419589700971D-01  1.5053191133738D+00
110  1.0900000000000D+00 -1.8480319775974D-01  1.5142585630953D+00
111  1.1000000000000D+00 -1.5774524828998D-01  1.5061076661162D+00
112  1.1100000000000D+00 -1.3310083408991D-01  1.4814572403131D+00
113  1.1200000000000D+00 -1.1090736312198D-01  1.4411670030670D+00
114  1.1300000000000D+00 -9.1158474036530D-02  1.3863731700963D+00
115  1.1400000000000D+00 -7.3804755551754D-02  1.3184725188096D+00
116  1.1500000000000D+00 -5.8764866554698D-02  1.2390555390660D+00
117  1.1600000000000D+00 -4.5927511990060D-02  1.1498918983547D+00
118  1.1700000000000D+00 -3.5149956994798D-02  1.0529227913857D+00
119  1.1800000000000D+00 -2.6267549241640D-02  9.5019600707881D-01
120  1.1900000000000D+00 -1.9100274320389D-02  8.4382978253042D-01
121  1.2000000000000D+00 -1.3453881119837D-02  7.3600818134117D-01
122  1.2100000000000D+00 -9.1282483066079D-03  6.2888461470728D-01
123  1.2200000000000D+00 -5.9236020742546D-03  5.2457551446747D-01
124  1.2300000000000D+00 -3.6393913091519D-03  4.2516755753313D-01
125  1.2400000000000D+00 -2.0889657195436D-03  3.3258080306143D-01
126  1.2500000000000D+00 -1.1008167084732D-03  2.4858489896980D-01
127  1.2600000000000D+00 -5.1353283357317D-04  1.7484514766261D-01
128  1.2700000000000D+00 -1.9535467997556D-04  1.1275261745141D-01
129  1.2800000000000D+00 -4.2881402258567D-05  6.3442436484855D-02
130  1.2900000000000D+00  3.1190597241361D-05  2.7901911113222D-02
131  1.3000000000000D+00  6.7976332813107D-05  7.6716876041026D-03
132  1.3100000000000D+00  7.4824155268026D-05 -8.9588903505589D-05
133  1.3200000000000D+00  2.6031896360862D-05 -8.6477423771472D-04
134  1.3300000000000D+00 -4.7939902879883D-06 -7.9466144649530D-06
135  1.3400000000000D+00 -8.7643067713026D-07 -1.4527890709045D-06
136  1.3500000000000D+00  0.0000000000000D+00  0.0000000000000D+00
137  1.3600000000000D+00  0.0000000000000D+00  0.0000000000000D+00
138  1.3700000000000D+00  0.0000000000000D+00  0.0000000000000D+00
139  1.3800000000000D+00  0.0000000000000D+00  0.0000000000000D+00
140  1.3900000000000D+00  0.0000000000000D+00  0.0000000000000D+00
141  1.4000000000000D+00  0.0000000000000D+00  0.0000000000000D+00
142  1.4100000000000D+00  0.0000000000000D+00  0.0000000000000D+00
143  1.4200000000000D+00  0.0000000000000D+00  0.0000000000000D+00
144  1.4300000000000D+00  0.0000000000000D+00  0.0000000000000D+00
145  1.4400000000000D+00  0.0000000000000D+00  0.0000000000000D+00
146  1.4500000000000D+00  0.0000000000000D+00  0.0000000000000D+00
147  1.4600000000000D+00  0.0000000000000D+00  0.0000000000000D+00
148  1.4700000000000D+00  0.0000000000000D+00  0.0000000000000D+00
149  1.4800000000000D+00  0.0000000000000D+00  0.0000000000000D+00
150  1.4900000000000D+00  0.0000000000000D+00  0.0000000000000D+00
151  1.5000000000000D+00  0.0000000000000D+00  0.0000000000000D+00
152  1.5100000000000D+00  0.0000000000000D+00  0.0000000000000D+00
153  1.5200000000000D+00  0.0000000000000D+00  0.0000000000000D+00
154  1.5300000000000D+00  0.0000000000000D+00  0.0000000000000D+00
155  1.5400000000000D+00  0.0000000000000D+00  0.0000000000000D+00
156  1.5500000000000D+00  0.0000000000000D+00  0.0000000000000D+00
157  1.5600000000000D+00  0.0000000000000D+00  0.0000000000000D+00
158  1.5700000000000D+00  0.0000000000000D+00  0.0000000000000D+00
159  1.5800000000000D+00  0.0000000000000D+00  0.0000000000000D+00
160  1.5900000000000D+00  0.0000000000000D+00  0.0000000000000D+00
161  1.6000000000000D+00  0.0000000000000D+00  0.0000000000000D+00
162  1.6100000000000D+00  0.0000000000000D+00  0.0000000000000D+00
163  1.6200000000000D+00  0.0000000000000D+00  0.0000000000000D+00
164  1.6300000000000D+00  0.0000000000000D+00  0.0000000000000D+00
165  1.6400000000000D+00  0.0000000000000D+00  0.0000000000000D+00
166  1.6500000000000D+00  0.0000000000000D+00  0.0000000000000D+00
167  1.6600000000000D+00  0.0000000000000D+00  0.0000000000000D+00
168  1.6700000000000D+00  0.0000000000000D+00  0.0000000000000D+00
169  1.6800000000000D+00  0.0000000000000D+00  0.0000000000000D+00
170  1.6900000000000D+00  0.0000000000000D+00  0.0000000000000D+00
171  1.7000000000000D+00  0.0000000000000D+00  0.0000000000000D+00
172  1.7100000000000D+00  0.0000000000000D+00  0.0000000000000D+00
173  1.7200000000000D+00  0.0000000000000D+00  0.0000000000000D+00
174  1.7300000000000D+00  0.0000000000000D+00  0.0000000000000D+00
175  1.7400000000000D+00  0.0000000000000D+00  0.0000000000000D+00
176  1.7500000000000D+00  0.0000000000000D+00  0.0000000000000D+00
177  1.7600000000000D+00  0.0000000000000D+00  0.0000000000000D+00
178  1.7700000000000D+00  0.0000000000000D+00  0.0000000000000D+00
179  1.7800000000000D+00  0.0000000000000D+00  0.0000000000000D+00
180  1.7900000000000D+00  0.0000000000000D+00  0.0000000000000D+00
181  1.8000000000000D+00  0.0000000000000D+00  0.0000000000000D+00
182  1.8100000000000D+00  0.0000000000000D+00  0.0000000000000D+00
183  1.8200000000000D+00  0.0000000000000D+00  0.0000000000000D+00
184  1.8300000000000D+00  0.0000000000000D+00  0.0000000000000D+00
185  1.8400000000000D+00  0.0000000000000D+00  0.0000000000000D+00
186  1.8500000000000D+00  0.0000000000000D+00  0.0000000000000D+00
187  1.8600000000000D+00  0.0000000000000D+00  0.0000000000000D+00
188  1.8700000000000D+00  0.0000000000000D+00  0.0000000000000D+00
189  1.8800000000000D+00  0.0000000000000D+00  0.0000000000000D+00
190  1.8900000000000D+00  0.0000000000000D+00  0.0000000000000D+00
191  1.9000000000000D+00  0.0000000000000D+00  0.0000000000000D+00
192  1.9100000000000D+00  0.0000000000000D+00  0.0000000000000D+00
193  1.9200000000000D+00  0.0000000000000D+00  0.0000000000000D+00
194  1.9300000000000D+00  0.0000000000000D+00  0.0000000000000D+00
195  1.9400000000000D+00  0.0000000000000D+00  0.0000000000000D+00
196  1.9500000000000D+00  0.0000000000000D+00  0.0000000000000D+00
197  1.9600000000000D+00  0.0000000000000D+00  0.0000000000000D+00
198  1.9700000000000D+00  0.0000000000000D+00  0.0000000000000D+00
199  1.9800000000000D+00  0.0000000000000D+00  0.0000000000000D+00
200  1.9900000000000D+00  0.0000000000000D+00  0.0000000000000D+00
201  2.0000000000000D+00  0.0000000000000D+00  0.0000000000000D+00
202  2.0100000000000D+00  0.0000000000000D+00  0.0000000000000D+00
203  2.0200000000000D+00  0.0000000000000D+00  0.0000000000000D+00
204  2.0300000000000D+00  0.0000000000000D+00  0.0000000000000D+00
205  2.0400000000000D+00  0.0000000000000D+00  0.0000000000000D+00
206  2.0500000000000D+00  0.0000000000000D+00  0.0000000000000D+00
207  2.0600000000000D+00  0.0000000000000D+00  0.0000000000000D+00
208  2.0700000000000D+00  0.0000000000000D+00  0.0000000000000D+00
209  2.0800000000000D+00  0.0000000000000D+00  0.0000000000000D+00
210  2.0900000000000D+00  0.0000000000000D+00  0.0000000000000D+00
211  2.1000000000000D+00  0.0000000000000D+00  0.0000000000000D+00
212  2.1100000000000D+00  0.0000000000000D+00  0.0000000000000D+00
213  2.1200000000000D+00  0.0000000000000D+00  0.0000000000000D+00
214  2.1300000000000D+00  0.0000000000000D+00  0.0000000000000D+00
215  2.1400000000000D+00  0.0000000000000D+00  0.0000000000000D+00
216  2.1500000000000D+00  0.0000000000000D+00  0.0000000000000D+00
217  2.1600000000000D+00  0.0000000000000D+00  0.0000000000000D+00
218  2.1700000000000D+00  0.0000000000000D+00  0.0000000000000D+00
219  2.1800000000000D+00  0.0000000000000D+00  0.0000000000000D+00
220  2.1900000000000D+00  0.0000000000000D+00  0.0000000000000D+00
221  2.2000000000000D+00  0.0000000000000D+00  0.0000000000000D+00
222  2.2100000000000D+00  0.0000000000000D+00  0.0000000000000D+00
223  2.2200000000000D+00  0.0000000000000D+00  0.0000000000000D+00
224  2.2300000000000D+00  0.0000000000000D+00  0.0000000000000D+00
225  2.2400000000000D+00  0.0000000000000D+00  0.0000000000000D+00
226  2.2500000000000D+00  0.0000000000000D+00  0.0000000000000D+00
227  2.2600000000000D+00  0.0000000000000D+00  0.0000000000000D+00
228  2.2700000000000D+00  0.0000000000000D+00  0.0000000000000D+00
229  2.2800000000000D+00  0.0000000000000D+00  0.0000000000000D+00
230  2.2900000000000D+00  0.0000000000000D+00  0.0000000000000D+00
231  2.3000000000000D+00  0.0000000000000D+00  0.0000000000000D+00
232  2.3100000000000D+00  0.0000000000000D+00  0.0000000000000D+00
233  2.3200000000000D+00  0.0000000000000D+00  0.0000000000000D+00
234  2.3300000000000D+00  0.0000000000000D+00  0.0000000000000D+00
235  2.3400000000000D+00  0.0000000000000D+00  0.0000000000000D+00
236  2.3500000000000D+00  0.0000000000000D+00  0.0000000000000D+00
237  2.3600000000000D+00  0.0000000000000D+00  0.0000000000000D+00
238  2.3700000000000D+00  0.0000000000000D+00  0.0000000000000D+00
239  2.3800000000000D+00  0.0000000000000D+00  0.0000000000000D+00
240  2.3900000000000D+00  0.0000000000000D+00  0.0000000000000D+00
241  2.4000000000000D+00  0.0000000000000D+00  0.0000000000000D+00
242  2.4100000000000D+00  0.0000000000000D+00  0.0000000000000D+00
243  2.4200000000000D+00  0.0000000000000D+00  0.0000000000000D+00
244  2.4300000000000D+00  0.0000000000000D+00  0.0000000000000D+00
245  2.4400000000000D+00  0.0000000000000D+00  0.0000000000000D+00
246  2.4500000000000D+00  0.0000000000000D+00  0.0000000000000D+00
247  2.4600000000000D+00  0.0000000000000D+00  0.0000000000000D+00
248  2.4700000000000D+00  0.0000000000000D+00  0.0000000000000D+00
249  2.4800000000000D+00  0.0000000000000D+00  0.0000000000000D+00
250  2.4900000000000D+00  0.0000000000000D+00  0.0000000000000D+00
251  2.5000000000000D+00  0.0000000000000D+00  0.0000000000000D+00
252  2.5100000000000D+00  0.0000000000000D+00  0.0000000000000D+00
253  2.5200000000000D+00  0.0000000000000D+00  0.0000000000000D+00
254  2.5300000000000D+00  0.0000000000000D+00  0.0000000000000D+00
255  2.5400000000000D+00  0.0000000000000D+00  0.0000000000000D+00
256  2.5500000000000D+00  0.0000000000000D+00  0.0000000000000D+00
257  2.5600000000000D+00  0.0000000000000D+00  0.0000000000000D+00
258  2.5700000000000D+00  0.0000000000000D+00  0.0000000000000D+00
259  2.5800000000000D+00  0.0000000000000D+00  0.0000000000000D+00
260  2.5900000000000D+00  0.0000000000000D+00  0.0000000000000D+00
261  2.6000000000000D+00  0.0000000000000D+00  0.0000000000000D+00
262  2.6100000000000D+00  0.0000000000000D+00  0.0000000000000D+00
263  2.6200000000000D+00  0.0000000000000D+00  0.0000000000000D+00
264  2.6300000000000D+00  0.0000000000000D+00  0.0000000000000D+00
265  2.6400000000000D+00  0.0000000000000D+00  0.0000000000000D+00
266  2.6500000000000D+00  0.0000000000000D+00  0.0000000000000D+00
267  2.6600000000000D+00  0.0000000000000D+00  0.0000000000000D+00
268  2.6700000000000D+00  0.0000000000000D+00  0.0000000000000D+00
269  2.6800000000000D+00  0.0000000000000D+00  0.0000000000000D+00
270  2.6900000000000D+00  0.0000000000000D+00  0.0000000000000D+00
271  2.7000000000000D+00  0.0000000000000D+00  0.0000000000000D+00
272  2.7100000000000D+00  0.0000000000000D+00  0.0000000000000D+00
273  2.7200000000000D+00  0.0000000000000D+00  0.0000000000000D+00
274  2.7300000000000D+00  0.0000000000000D+00  0.0000000000000D+00
275  2.7400000000000D+00  0.0000000000000D+00  0.0000000000000D+00
276  2.7500000000000D+00  0.0000000000000D+00  0.0000000000000D+00
277  2.7600000000000D+00  0.0000000000000D+00  0.0000000000000D+00
278  2.7700000000000D+00  0.0000000000000D+00  0.0000000000000D+00
279  2.7800000000000D+00  0.0000000000000D+00  0.0000000000000D+00
280  2.7900000000000D+00  0.0000000000000D+00  0.0000000000000D+00
281  2.8000000000000D+00  0.0000000000000D+00  0.0000000000000D+00
282  2.8100000000000D+00  0.0000000000000D+00  0.0000000000000D+00
283  2.8200000000000D+00  0.0000000000000D+00  0.0000000000000D+00
284  2.8300000000000D+00  0.0000000000000D+00  0.0000000000000D+00
285  2.8400000000000D+00  0.0000000000000D+00  0.0000000000000D+00
286  2.8500000000000D+00  0.0000000000000D+00  0.0000000000000D+00
287  2.8600000000000D+00  0.0000000000000D+00  0.0000000000000D+00
288  2.8700000000000D+00  0.0000000000000D+00  0.0000000000000D+00
289  2.8800000000000D+00  0.0000000000000D+00  0.0000000000000D+00
290  2.8900000000000D+00  0.0000000000000D+00  0.0000000000000D+00
291  2.9000000000000D+00  0.0000000000000D+00  0.0000000000000D+00
292  2.9100000000000D+00  0.0000000000000D+00  0.0000000000000D+00
293  2.9200000000000D+00  0.0000000000000D+00  0.0000000000000D+00
294  2.9300000000000D+00  0.0000000000000D+00  0.0000000000000D+00
295  2.9400000000000D+00  0.0000000000000D+00  0.0000000000000D+00
296  2.9500000000000D+00  0.0000000000000D+00  0.0000000000000D+00
297  2.9600000000000D+00  0.0000000000000D+00  0.0000000000000D+00
298  2.9700000000000D+00  0.0000000000000D+00  0.0000000000000D+00
299  2.9800000000000D+00  0.0000000000000D+00  0.0000000000000D+00
300  2.9900000000000D+00  0.0000000000000D+00  0.0000000000000D+00
301  3.0000000000000D+00  0.0000000000000D+00  0.0000000000000D+00
302  3.0100000000000D+00  0.0000000000000D+00  0.0000000000000D+00
303  3.0200000000000D+00  0.0000000000000D+00  0.0000000000000D+00
304  3.0300000000000D+00  0.0000000000000D+00  0.0000000000000D+00
305  3.0400000000000D+00  0.0000000000000D+00  0.0000000000000D+00
306  3.0500000000000D+00  0.0000000000000D+00  0.0000000000000D+00
307  3.0600000000000D+00  0.0000000000000D+00  0.0000000000000D+00
308  3.0700000000000D+00  0.0000000000000D+00  0.0000000000000D+00
309  3.0800000000000D+00  0.0000000000000D+00  0.0000000000000D+00
310  3.0900000000000D+00  0.0000000000000D+00  0.0000000000000D+00
311  3.1000000000000D+00  0.0000000000000D+00  0.0000000000000D+00
312  3.1100000000000D+00  0.0000000000000D+00  0.0000000000000D+00
313  3.1200000000000D+00  0.0000000000000D+00  0.0000000000000D+00
314  3.1300000000000D+00  0.0000000000000D+00  0.0000000000000D+00
315  3.1400000000000D+00  0.0000000000000D+00  0.0000000000000D+00
316  3.1500000000000D+00  0.0000000000000D+00  0.0000000000000D+00
317  3.1600000000000D+00  0.0000000000000D+00  0.0000000000000D+00
318  3.1700000000000D+00  0.0000000000000D+00  0.0000000000000D+00
319  3.1800000000000D+00  0.0000000000000D+00  0.0000000000000D+00
320  3.1900000000000D+00  0.0000000000000D+00  0.0000000000000D+00
321  3.2000000000000D+00  0.0000000000000D+00  0.0000000000000D+00
322  3.2100000000000D+00  0.0000000000000D+00  0.0000000000000D+00
323  3.2200000000000D+00  0.0000000000000D+00  0.0000000000000D+00
324  3.2300000000000D+00  0.0000000000000D+00  0.0000000000000D+00
325  3.2400000000000D+00  0.0000000000000D+00  0.0000000000000D+00
326  3.2500000000000D+00  0.0000000000000D+00  0.0000000000000D+00
327  3.2600000000000D+00  0.0000000000000D+00  0.0000000000000D+00
328  3.2700000000000D+00  0.0000000000000D+00  0.0000000000000D+00
329  3.2800000000000D+00  0.0000000000000D+00  0.0000000000000D+00
330  3.2900000000000D+00  0.0000000000000D+00  0.0000000000000D+00
331  3.3000000000000D+00  0.0000000000000D+00  0.0000000000000D+00
332  3.3100000000000D+00  0.0000000000000D+00  0.0000000000000D+00
333  3.3200000000000D+00  0.0000000000000D+00  0.0000000000000D+00
334  3.3300000000000D+00  0.0000000000000D+00  0.0000000000000D+00
335  3.3400000000000D+00  0.0000000000000D+00  0.0000000000000D+00
336  3.3500000000000D+00  0.0000000000000D+00  0.0000000000000D+00
337  3.3600000000000D+00  0.0000000000000D+00  0.0000000000000D+00
338  3.3700000000000D+00  0.0000000000000D+00  0.0000000000000D+00
339  3.3800000000000D+00  0.0000000000000D+00  0.0000000000000D+00
340  3.3900000000000D+00  0.0000000000000D+00  0.0000000000000D+00
341  3.4000000000000D+00  0.0000000000000D+00  0.0000000000000D+00
342  3.4100000000000D+00  0.0000000000000D+00  0.0000000000000D+00
343  3.4200000000000D+00  0.0000000000000D+00  0.0000000000000D+00
344  3.4300000000000D+00  0.0000000000000D+00  0.0000000000000D+00
345  3.4400000000000D+00  0.0000000000000D+00  0.0000000000000D+00
346  3.4500000000000D+00  0.0000000000000D+00  0.0000000000000D+00
347  3.4600000000000D+00  0.0000000000000D+00  0.0000000000000D+00
348  3.4700000000000D+00  0.0000000000000D+00  0.0000000000000D+00
349  3.4800000000000D+00  0.0000000000000D+00  0.0000000000000D+00
350  3.4900000000000D+00  0.0000000000000D+00  0.0000000000000D+00
351  3.5000000000000D+00  0.0000000000000D+00  0.0000000000000D+00
352  3.5100000000000D+00  0.0000000000000D+00  0.0000000000000D+00
353  3.5200000000000D+00  0.0000000000000D+00  0.0000000000000D+00
354  3.5300000000000D+00  0.0000000000000D+00  0.0000000000000D+00
355  3.5400000000000D+00  0.0000000000000D+00  0.0000000000000D+00
356  3.5500000000000D+00  0.0000000000000D+00  0.0000000000000D+00
357  3.5600000000000D+00  0.0000000000000D+00  0.0000000000000D+00
358  3.5700000000000D+00  0.0000000000000D+00  0.0000000000000D+00
359  3.5800000000000D+00  0.0000000000000D+00  0.0000000000000D+00
360  3.5900000000000D+00  0.0000000000000D+00  0.0000000000000D+00
361  3.6000000000000D+00  0.0000000000000D+00  0.0000000000000D+00
362  3.6100000000000D+00  0.0000000000000D+00  0.0000000000000D+00
363  3.6200000000000D+00  0.0000000000000D+00  0.0000000000000D+00
364  3.6300000000000D+00  0.0000000000000D+00  0.0000000000000D+00
365  3.6400000000000D+00  0.0000000000000D+00  0.0000000000000D+00
366  3.6500000000000D+00  0.0000000000000D+00  0.0000000000000D+00
367  3.6600000000000D+00  0.0000000000000D+00  0.0000000000000D+00
368  3.6700000000000D+00  0.0000000000000D+00  0.0000000000000D+00
369  3.6800000000000D+00  0.0000000000000D+00  0.0000000000000D+00
370  3.6900000000000D+00  0.0000000000000D+00  0.0000000000000D+00
371  3.7000000000000D+00  0.0000000000000D+00  0.0000000000000D+00
372  3.7100000000000D+00  0.0000000000000D+00  0.0000000000000D+00
373  3.7200000000000D+00  0.0000000000000D+00  0.0000000000000D+00
374  3.7300000000000D+00  0.0000000000000D+00  0.0000000000000D+00
375  3.7400000000000D+00  0.0000000000000D+00  0.0000000000000D+00
376  3.7500000000000D+00  0.0000000000000D+00  0.0000000000000D+00
377  3.7600000000000D+00  0.0000000000000D+00  0.0000000000000D+00
378  3.7700000000000D+00  0.0000000000000D+00  0.0000000000000D+00
379  3.7800000000000D+00  0.0000000000000D+00  0.0000000000000D+00
380  3.7900000000000D+00  0.0000000000000D+00  0.0000000000000D+00
381  3.8000000000000D+00  0.0000000000000D+00  0.0000000000000D+00
382  3.8100000000000D+00  0.0000000000000D+00  0.0000000000000D+00
383  3.8200000000000D+00  0.0000000000000D+00  0.0000000000000D+00
384  3.8300000000000D+00  0.0000000000000D+00  0.0000000000000D+00
385  3.8400000000000D+00  0.0000000000000D+00  0.0000000000000D+00
386  3.8500000000000D+00  0.0000000000000D+00  0.0000000000000D+00
387  3.8600000000000D+00  0.0000000000000D+00  0.0000000000000D+00
388  3.8700000000000D+00  0.0000000000000D+00  0.0000000000000D+00
389  3.8800000000000D+00  0.0000000000000D+00  0.0000000000000D+00
390  3.8900000000000D+00  0.0000000000000D+00  0.0000000000000D+00
391  3.9000000000000D+00  0.0000000000000D+00  0.0000000000000D+00
392  3.9100000000000D+00  0.0000000000000D+00  0.0000000000000D+00
393  3.9200000000000D+00  0.0000000000000D+00  0.0000000000000D+00
394  3.9300000000000D+00  0.0000000000000D+00  0.0000000000000D+00
395  3.9400000000000D+00  0.0000000000000D+00  0.0000000000000D+00
396  3.9500000000000D+00  0.0000000000000D+00  0.0000000000000D+00
397  3.9600000000000D+00  0.0000000000000D+00  0.0000000000000D+00
398  3.9700000000000D+00  0.0000000000000D+00  0.0000000000000D+00
399  3.9800000000000D+00  0.0000000000000D+00  0.0000000000000D+00
400  3.9900000000000D+00  0.0000000000000D+00  0.0000000000000D+00
401  4.0000000000000D+00  0.0000000000000D+00  0.0000000000000D+00
402  4.0100000000000D+00  0.0000000000000D+00  0.0000000000000D+00
403  4.0200000000000D+00  0.0000000000000D+00  0.0000000000000D+00
404  4.0300000000000D+00  0.0000000000000D+00  0.0000000000000D+00
405  4.0400000000000D+00  0.0000000000000D+00  0.0000000000000D+00
406  4.0500000000000D+00  0.0000000000000D+00  0.0000000000000D+00
407  4.0600000000000D+00  0.0000000000000D+00  0.0000000000000D+00
408  4.0700000000000D+00  0.0000000000000D+00  0.0000000000000D+00
409  4.0800000000000D+00  0.0000000000000D+00  0.0000000000000D+00
410  4.0900000000000D+00  0.0000000000000D+00  0.0000000000000D+00
411  4.1000000000000D+00  0.0000000000000D+00  0.0000000000000D+00
412  4.1100000000000D+00  0.0000000000000D+00  0.0000000000000D+00
413  4.1200000000000D+00  0.0000000000000D+00  0.0000000000000D+00
414  4.1300000000000D+00  0.0000000000000D+00  0.0000000000000D+00
415  4.1400000000000D+00  0.0000000000000D+00  0.0000000000000D+00
416  4.1500000000000D+00  0.0000000000000D+00  0.0000000000000D+00
417  4.1600000000000D+00  0.0000000000000D+00  0.0000000000000D+00
418  4.1700000000000D+00  0.0000000000000D+00  0.0000000000000D+00
419  4.1800000000000D+00  0.0000000000000D+00  0.0000000000000D+00
420  4.1900000000000D+00  0.0000000000000D+00  0.0000000000000D+00
421  4.2000000000000D+00  0.0000000000000D+00  0.0000000000000D+00
422  4.2100000000000D+00  0.0000000000000D+00  0.0000000000000D+00
423  4.2200000000000D+00  0.0000000000000D+00  0.0000000000000D+00
424  4.2300000000000D+00  0.0000000000000D+00  0.0000000000000D+00
425  4.2400000000000D+00  0.0000000000000D+00  0.0000000000000D+00
426  4.2500000000000D+00  0.0000000000000D+00  0.0000000000000D+00
427  4.2600000000000D+00  0.0000000000000D+00  0.0000000000000D+00
428  4.2700000000000D+00  0.0000000000000D+00  0.0000000000000D+00
429  4.2800000000000D+00  0.0000000000000D+00  0.0000000000000D+00
430  4.2900000000000D+00  0.0000000000000D+00  0.0000000000000D+00
431  4.3000000000000D+00  0.0000000000000D+00  0.0000000000000D+00
432  4.3100000000000D+00  0.0000000000000D+00  0.0000000000000D+00
433  4.3200000000000D+00  0.0000000000000D+00  0.0000000000000D+00
434  4.3300000000000D+00  0.0000000000000D+00  0.0000000000000D+00
435  4.3400000000000D+00  0.0000000000000D+00  0.0000000000000D+00
436  4.3500000000000D+00  0.0000000000000D+00  0.0000000000000D+00
437  4.3600000000000D+00  0.0000000000000D+00  0.0000000000000D+00
438  4.3700000000000D+00  0.0000000000000D+00  0.0000000000000D+00
439  4.3800000000000D+00  0.0000000000000D+00  0.0000000000000D+00
440  4.3900000000000D+00  0.0000000000000D+00  0.0000000000000D+00
441  4.4000000000000D+00  0.0000000000000D+00  0.0000000000000D+00
442  4.4100000000000D+00  0.0000000000000D+00  0.0000000000000D+00
443  4.4200000000000D+00  0.0000000000000D+00  0.0000000000000D+00
444  4.4300000000000D+00  0.0000000000000D+00  0.0000000000000D+00