F     ONCVPSP  r_core=  1.31  1.60  1.31
9.0000      7.0000      140826    zatom,zion,pspd
8    11     2     4   601     0    pspcod,pspxc,lmax,lloc,mmax,r2well
6.00000000  0.10000000  0.00000000    rchrg fchrg qchrg
2     2     1     0     0    nproj
0                 extension_switch
0                         3.1710253920343D+00 -1.6124982756296D-01
1  0.0000000000000D+00 -0.0000000000000D+00 -0.0000000000000D+00
2  1.0000000000000D-02 -7.6490727855826D-02 -4.9264189121820D-02
3  2.0000000000000D-02 -1.5287111964348D-01 -9.7817199416188D-02
4  3.0000000000000D-02 -2.2902997265852D-01 -1.4495647935566D-01
5  4.0000000000000D-02 -3.0485436831770D-01 -1.8999662883682D-01
6  5.0000000000000D-02 -3.8022885747485D-01 -2.3227771816347D-01
7  6.0000000000000D-02 -4.5503469700530D-01 -2.7117330232778D-01
8  7.0000000000000D-02 -5.2914915369169D-01 -3.0609803461964D-01
9  8.0000000000000D-02 -6.0244489055807D-01 -3.3651478827189D-01
10  9.0000000000000D-02 -6.7478944970651D-01 -3.6194120064660D-01
11  1.0000000000000D-01 -7.4604484442850D-01 -3.8195556129135D-01
12  1.1000000000000D-01 -8.1606727191938D-01 -3.9620197277635D-01
13  1.2000000000000D-01 -8.8470695629904D-01 -4.0439472199105D-01
14  1.3000000000000D-01 -9.5180812990974D-01 -4.0632180865658D-01
15  1.4000000000000D-01 -1.0172091589903D+00 -4.0184758791083D-01
16  1.5000000000000D-01 -1.0807428178723D+00 -3.9091449419161D-01
17  1.6000000000000D-01 -1.1422367138218D+00 -3.7354382442951D-01
18  1.7000000000000D-01 -1.2015138625427D+00 -3.4983556987608D-01
19  1.8000000000000D-01 -1.2583934122712D+00 -3.1996729713326D-01
20  1.9000000000000D-01 -1.3126915127079D+00 -2.8419208967795D-01
21  2.0000000000000D-01 -1.3642223213899D+00 -2.4283557401126D-01
22  2.1000000000000D-01 -1.4127991416180D+00 -1.9629206148012D-01
23  2.2000000000000D-01 -1.4582356787303D+00 -1.4501985485132D-01
24  2.3000000000000D-01 -1.5003474059791D+00 -8.9535767855566D-02
25  2.4000000000000D-01 -1.5389530228421D+00 -3.0408931242430D-02
26  2.5000000000000D-01 -1.5738759958269D+00  3.1746059446616D-02
27  2.6000000000000D-01 -1.6049461575445D+00  9.6276546777278D-02
28  2.7000000000000D-01 -1.6320013572274D+00  1.6249971884035D-01
29  2.8000000000000D-01 -1.6548891292557D+00  2.2971086908994D-01
30  2.9000000000000D-01 -1.6734683752844D+00  2.9719197182529D-01
31  3.0000000000000D-01 -1.6876110314108D+00  3.6422043745326D-01
32  3.1000000000000D-01 -1.6972037019986D+00  4.3007795082930D-01
33  3.2000000000000D-01 -1.7021492345854D+00  4.9405926055323D-01
34  3.3000000000000D-01 -1.7023682254326D+00  5.5548085975046D-01
35  3.4000000000000D-01 -1.6978004507910D+00  6.1368954024303D-01
36  3.5000000000000D-01 -1.6884061177419D+00  6.6807025100540D-01
37  3.6000000000000D-01 -1.6741670977999D+00  7.1805413371268D-01
38  3.7000000000000D-01 -1.6550878899668D+00  7.6312536949691D-01
39  3.8000000000000D-01 -1.6311964880293D+00  8.0282777138925D-01
40  3.9000000000000D-01 -1.6025450915723D+00  8.3677082999532D-01
41  4.0000000000000D-01 -1.5692105527872D+00  8.6463455005790D-01
42  4.1000000000000D-01 -1.5312946759204D+00  8.8617377025182D-01
43  4.2000000000000D-01 -1.4889242935008D+00  9.0122151850988D-01
44  4.3000000000000D-01 -1.4422511259856D+00  9.0969143352217D-01
45  4.4000000000000D-01 -1.3914514210782D+00  9.1157922127390D-01
46  4.5000000000000D-01 -1.3367253710018D+00  9.0696312513083D-01
47  4.6000000000000D-01 -1.2782963082120D+00  8.9600339802430D-01
48  4.7000000000000D-01 -1.2164096826978D+00  8.7894077684815D-01
49  4.8000000000000D-01 -1.1513318329108D+00  8.5609393849683D-01
50  4.9000000000000D-01 -1.0833485511849D+00  8.2785616601853D-01
51  5.0000000000000D-01 -1.0127634276371D+00  7.9469091093221D-01
52  5.1000000000000D-01 -9.3989605365803D-01  7.5712646296102D-01
53  5.2000000000000D-01 -8.6508009834481D-01  7.1575004930124D-01
54  5.3000000000000D-01 -7.8866100050194D-01  6.7120085093086D-01
55  5.4000000000000D-01 -7.1099394167280D-01  6.2416274551563D-01
56  5.5000000000000D-01 -6.3244127567623D-01  5.7535606320896D-01
57  5.6000000000000D-01 -5.5337013946243D-01  5.2552908987480D-01
58  5.7000000000000D-01 -4.7414996918251D-01  4.7544933445776D-01
59  5.8000000000000D-01 -3.9514977927121D-01  4.2589391877343D-01
60  5.9000000000000D-01 -3.1673568167866D-01  3.7764051957151D-01
61  6.0000000000000D-01 -2.3926835185586D-01  3.3145808818630D-01
62  6.1000000000000D-01 -1.6310002483387D-01  2.8809615400164D-01
63  6.2000000000000D-01 -8.8572950296327D-02  2.4827849245627D-01
64  6.3000000000000D-01 -1.6015610772080D-02  2.1269000967088D-01
65  6.4000000000000D-01  5.4258620707978D-02  1.8197117821815D-01
66  6.5000000000000D-01  1.2195345367570D-01  1.5671073722560D-01
67  6.6000000000000D-01  1.8679310911166D-01  1.3743370748836D-01
68  6.7000000000000D-01  2.4852298179315D-01  1.2459850268961D-01
69  6.8000000000000D-01  3.0691152762106D-01  1.1859026215534D-01
70  6.9000000000000D-01  3.6175191858226D-01  1.1971508407503D-01
71  7.0000000000000D-01  4.1286388596044D-01  1.2819381482668D-01
72  7.1000000000000D-01  4.6009395024440D-01  1.4416138592317D-01
73  7.2000000000000D-01  5.0331653291813D-01  1.6766344225070D-01
74  7.3000000000000D-01  5.4243450561086D-01  1.9865504814317D-01
75  7.4000000000000D-01  5.7737938274338D-01  2.3700077225517D-01
76  7.5000000000000D-01  6.0811206398920D-01  2.8247331319312D-01
77  7.6000000000000D-01  6.3462185344134D-01  3.3475787830207D-01
78  7.7000000000000D-01  6.5692629067468D-01  3.9345419614835D-01
79  7.8000000000000D-01  6.7507046600325D-01  4.5808042712310D-01
80  7.9000000000000D-01  6.8912609661354D-01  5.2807806425763D-01
81  8.0000000000000D-01  6.9919037462660D-01  6.0281777097950D-01
82  8.1000000000000D-01  7.0538460056635D-01  6.8160609112790D-01
83  8.2000000000000D-01  7.0785261794600D-01  7.6369295603194D-01
84  8.3000000000000D-01  7.0675906671154D-01  8.4827990392395D-01
85  8.4000000000000D-01  7.0228747508999D-01  9.3452891847112D-01
86  8.5000000000000D-01  6.9463821097487D-01  1.0215717857973D+00
87  8.6000000000000D-01  6.8402631534154D-01  1.1085198630476D+00
88  8.7000000000000D-01  6.7067924132177D-01  1.1944741463221D+00
89  8.8000000000000D-01  6.5483452348186D-01  1.2785355216834D+00
90  8.9000000000000D-01  6.3673740254105D-01  1.3598150799344D+00
91  9.0000000000000D-01  6.1663843123023D-01  1.4374443740210D+00
92  9.1000000000000D-01  5.9479108721153D-01  1.5105854973174D+00
93  9.2000000000000D-01  5.7144941893299D-01  1.5784408618315D+00
94  9.3000000000000D-01  5.4686574994476D-01  1.6402625577033D+00
95  9.4000000000000D-01  5.2128846650920D-01  1.6953611794944D+00
96  9.5000000000000D-01  4.9495991224355D-01  1.7431140109382D+00
97  9.6000000000000D-01  4.6811454104553D-01  1.7829718741293D+00
98  9.7000000000000D-01  4.4097738454585D-01  1.8144644945676D+00
99  9.8000000000000D-01  4.1376077913275D-01  1.8372135098098D+00
100  9.9000000000000D-01  3.8666452491635D-01  1.8509295679482D+00
101  1.0000000000000D+00  3.5987407618442D-01  1.8554184885421D+00
102  1.0100000000000D+00  3.3355946503084D-01  1.8505838629996D+00
103  1.0200000000000D+00  3.0787444313869D-01  1.8364285392881D+00
104  1.0300000000000D+00  2.8295676944097D-01  1.8130514455245D+00
105  1.0400000000000D+00  2.5892530615545D-01  1.7806568144724D+00
106  1.0500000000000D+00  2.3588112383478D-01  1.7395465541845D+00
107  1.0600000000000D+00  2.1390818232023D-01  1.6901148553333D+00
108  1.0700000000000D+00  1.9307313219430D-01  1.6328459160051D+00
109  1.0800000000000D+00  1.7342673103116D-01  1.5683062897492D+00
110  1.0900000000000D+00  1.5500154270690D-01  1.4971481855638D+00
111  1.1000000000000D+00  1.3781467589969D-01  1.4200951699436D+00
112  1.1100000000000D+00  1.2186939962727D-01  1.3379331550023D+00
113  1.1200000000000D+00  1.0715617153593D-01  1.2515037908571D+00
114  1.1300000000000D+00  9.3652695340780D-02  1.1616986169505D+00
115  1.1400000000000D+00  8.1325230391864D-02  1.0694452630476D+00
116  1.1500000000000D+00  7.0131853102472D-02  9.7569682815362D-01
117  1.1600000000000D+00  6.0023204297494D-02  8.8142733616916D-01
118  1.1700000000000D+00  5.0943155364879D-02  7.8761634366683D-01
119  1.1800000000000D+00  4.2831755973937D-02  6.9523352087638D-01
120  1.1900000000000D+00  3.5626669928990D-02  6.0523681843095D-01
121  1.2000000000000D+00  2.9263377042975D-02  5.1857350376463D-01
122  1.2100000000000D+00  2.3679465531070D-02  4.3613047007687D-01
123  1.2200000000000D+00  1.8814404496406D-02  3.5875974735704D-01
124  1.2300000000000D+00  1.4609272901316D-02  2.8727967001166D-01
125  1.2400000000000D+00  1.1012315771503D-02  2.2241986051325D-01
126  1.2500000000000D+00  7.9778162209345D-03  1.6484373233694D-01
127  1.2600000000000D+00  5.4642538350401D-03  1.1516646293361D-01
128  1.2700000000000D+00  3.4408397246438D-03  7.3893890228824D-02
129  1.2800000000000D+00  1.8856877682398D-03  4.1444120861433D-02
130  1.2900000000000D+00  7.8204925063197D-04  1.8182560013093D-02
131  1.3000000000000D+00  1.5375784526145D-04  4.9784857477728D-03
132  1.3100000000000D+00 -7.9950276263395D-05 -8.1476860966706D-05
133  1.3200000000000D+00 -5.2088361605022D-05 -5.7209668093266D-04
134  1.3300000000000D+00  4.7238933843658D-06 -3.7073536926447D-06
135  1.3400000000000D+00  8.6361565811353D-07 -6.7777327696036D-07
136  1.3500000000000D+00  0.0000000000000D+00  0.0000000000000D+00
137  1.3600000000000D+00  0.0000000000000D+00  0.0000000000000D+00
138  1.3700000000000D+00  0.0000000000000D+00  0.0000000000000D+00
139  1.3800000000000D+00  0.0000000000000D+00  0.0000000000000D+00
140  1.3900000000000D+00  0.0000000000000D+00  0.0000000000000D+00
141  1.4000000000000D+00  0.0000000000000D+00  0.0000000000000D+00
142  1.4100000000000D+00  0.0000000000000D+00  0.0000000000000D+00
143  1.4200000000000D+00  0.0000000000000D+00  0.0000000000000D+00
144  1.4300000000000D+00  0.0000000000000D+00  0.0000000000000D+00
145  1.4400000000000D+00  0.0000000000000D+00  0.0000000000000D+00
146  1.4500000000000D+00  0.0000000000000D+00  0.0000000000000D+00
147  1.4600000000000D+00  0.0000000000000D+00  0.0000000000000D+00
148  1.4700000000000D+00  0.0000000000000D+00  0.0000000000000D+00
149  1.4800000000000D+00  0.0000000000000D+00  0.0000000000000D+00
150  1.4900000000000D+00  0.0000000000000D+00  0.0000000000000D+00
151  1.5000000000000D+00  0.0000000000000D+00  0.0000000000000D+00
152  1.5100000000000D+00  0.0000000000000D+00  0.0000000000000D+00
153  1.5200000000000D+00  0.0000000000000D+00  0.0000000000000D+00
154  1.5300000000000D+00  0.0000000000000D+00  0.0000000000000D+00
155  1.5400000000000D+00  0.0000000000000D+00  0.0000000000000D+00
156  1.5500000000000D+00  0.0000000000000D+00  0.0000000000000D+00
157  1.5600000000000D+00  0.0000000000000D+00  0.0000000000000D+00
158  1.5700000000000D+00  0.0000000000000D+00  0.0000000000000D+00
159  1.5800000000000D+00  0.0000000000000D+00  0.0000000000000D+00
160  1.5900000000000D+00  0.0000000000000D+00  0.0000000000000D+00
161  1.6000000000000D+00  0.0000000000000D+00  0.0000000000000D+00
162  1.6100000000000D+00  0.0000000000000D+00  0.0000000000000D+00
163  1.6200000000000D+00  0.0000000000000D+00  0.0000000000000D+00
164  1.6300000000000D+00  0.0000000000000D+00  0.0000000000000D+00
165  1.6400000000000D+00  0.0000000000000D+00  0.0000000000000D+00
166  1.6500000000000D+00  0.0000000000000D+00  0.0000000000000D+00
167  1.6600000000000D+00  0.0000000000000D+00  0.0000000000000D+00
168  1.6700000000000D+00  0.0000000000000D+00  0.0000000000000D+00
169  1.6800000000000D+00  0.0000000000000D+00  0.0000000000000D+00
170  1.6900000000000D+00  0.0000000000000D+00  0.0000000000000D+00
171  1.7000000000000D+00  0.0000000000000D+00  0.0000000000000D+00
172  1.7100000000000D+00  0.0000000000000D+00  0.0000000000000D+00
173  1.7200000000000D+00  0.0000000000000D+00  0.0000000000000D+00
174  1.7300000000000D+00  0.0000000000000D+00  0.0000000000000D+00
175  1.7400000000000D+00  0.0000000000000D+00  0.0000000000000D+00
176  1.7500000000000D+00  0.0000000000000D+00  0.0000000000000D+00
177  1.7600000000000D+00  0.0000000000000D+00  0.0000000000000D+00
178  1.7700000000000D+00  0.0000000000000D+00  0.0000000000000D+00
179  1.7800000000000D+00  0.0000000000000D+00  0.0000000000000D+00
180  1.7900000000000D+00  0.0000000000000D+00  0.0000000000000D+00
181  1.8000000000000D+00  0.0000000000000D+00  0.0000000000000D+00
182  1.8100000000000D+00  0.0000000000000D+00  0.0000000000000D+00
183  1.8200000000000D+00  0.0000000000000D+00  0.0000000000000D+00
184  1.8300000000000D+00  0.0000000000000D+00  0.0000000000000D+00
185  1.8400000000000D+00  0.0000000000000D+00  0.0000000000000D+00
186  1.8500000000000D+00  0.0000000000000D+00  0.0000000000000D+00
187  1.8600000000000D+00  0.0000000000000D+00  0.0000000000000D+00
188  1.8700000000000D+00  0.0000000000000D+00  0.0000000000000D+00
189  1.8800000000000D+00  0.0000000000000D+00  0.0000000000000D+00
190  1.8900000000000D+00  0.0000000000000D+00  0.0000000000000D+00
191  1.9000000000000D+00  0.0000000000000D+00  0.0000000000000D+00
192  1.9100000000000D+00  0.0000000000000D+00  0.0000000000000D+00
193  1.9200000000000D+00  0.0000000000000D+00  0.0000000000000D+00
194  1.9300000000000D+00  0.0000000000000D+00  0.0000000000000D+00
195  1.9400000000000D+00  0.0000000000000D+00  0.0000000000000D+00
196  1.9500000000000D+00  0.0000000000000D+00  0.0000000000000D+00
197  1.9600000000000D+00  0.0000000000000D+00  0.0000000000000D+00
198  1.9700000000000D+00  0.0000000000000D+00  0.0000000000000D+00
199  1.9800000000000D+00  0.0000000000000D+00  0.0000000000000D+00
200  1.9900000000000D+00  0.0000000000000D+00  0.0000000000000D+00
201  2.0000000000000D+00  0.0000000000000D+00  0.0000000000000D+00
202  2.0100000000000D+00  0.0000000000000D+00  0.0000000000000D+00
203  2.0200000000000D+00  0.0000000000000D+00  0.0000000000000D+00
204  2.0300000000000D+00  0.0000000000000D+00  0.0000000000000D+00
205  2.0400000000000D+00  0.0000000000000D+00  0.0000000000000D+00
206  2.0500000000000D+00  0.0000000000000D+00  0.0000000000000D+00
207  2.0600000000000D+00  0.0000000000000D+00  0.0000000000000D+00
208  2.0700000000000D+00  0.0000000000000D+00  0.0000000000000D+00
209  2.0800000000000D+00  0.0000000000000D+00  0.0000000000000D+00
210  2.0900000000000D+00  0.0000000000000D+00  0.0000000000000D+00
211  2.1000000000000D+00  0.0000000000000D+00  0.0000000000000D+00
212  2.1100000000000D+00  0.0000000000000D+00  0.0000000000000D+00
213  2.1200000000000D+00  0.0000000000000D+00  0.0000000000000D+00
214  2.1300000000000D+00  0.0000000000000D+00  0.0000000000000D+00
215  2.1400000000000D+00  0.0000000000000D+00  0.0000000000000D+00
216  2.1500000000000D+00  0.0000000000000D+00  0.0000000000000D+00
217  2.1600000000000D+00  0.0000000000000D+00  0.0000000000000D+00
218  2.1700000000000D+00  0.0000000000000D+00  0.0000000000000D+00
219  2.1800000000000D+00  0.0000000000000D+00  0.0000000000000D+00
220  2.1900000000000D+00  0.0000000000000D+00  0.0000000000000D+00
221  2.2000000000000D+00  0.0000000000000D+00  0.0000000000000D+00
222  2.2100000000000D+00  0.0000000000000D+00  0.0000000000000D+00
223  2.2200000000000D+00  0.0000000000000D+00  0.0000000000000D+00
224  2.2300000000000D+00  0.0000000000000D+00  0.0000000000000D+00
225  2.2400000000000D+00  0.0000000000000D+00  0.0000000000000D+00
226  2.2500000000000D+00  0.0000000000000D+00  0.0000000000000D+00
227  2.2600000000000D+00  0.0000000000000D+00  0.0000000000000D+00
228  2.2700000000000D+00  0.0000000000000D+00  0.0000000000000D+00
229  2.2800000000000D+00  0.0000000000000D+00  0.0000000000000D+00
230  2.2900000000000D+00  0.0000000000000D+00  0.0000000000000D+00
231  2.3000000000000D+00  0.0000000000000D+00  0.0000000000000D+00
232  2.3100000000000D+00  0.0000000000000D+00  0.0000000000000D+00
233  2.3200000000000D+00  0.0000000000000D+00  0.0000000000000D+00
234  2.3300000000000D+00  0.0000000000000D+00  0.0000000000000D+00
235  2.3400000000000D+00  0.0000000000000D+00  0.0000000000000D+00
236  2.3500000000000D+00  0.0000000000000D+00  0.0000000000000D+00
237  2.3600000000000D+00  0.0000000000000D+00  0.0000000000000D+00
238  2.3700000000000D+00  0.0000000000000D+00  0.0000000000000D+00
239  2.3800000000000D+00  0.0000000000000D+00  0.0000000000000D+00
240  2.3900000000000D+00  0.0000000000000D+00  0.0000000000000D+00
241  2.4000000000000D+00  0.0000000000000D+00  0.0000000000000D+00
242  2.4100000000000D+00  0.0000000000000D+00  0.0000000000000D+00
243  2.4200000000000D+00  0.0000000000000D+00  0.0000000000000D+00
244  2.4300000000000D+00  0.0000000000000D+00  0.0000000000000D+00
245  2.4400000000000D+00  0.0000000000000D+00  0.0000000000000D+00
246  2.4500000000000D+00  0.0000000000000D+00  0.0000000000000D+00
247  2.4600000000000D+00  0.0000000000000D+00  0.0000000000000D+00
248  2.4700000000000D+00  0.0000000000000D+00  0.0000000000000D+00
249  2.4800000000000D+00  0.0000000000000D+00  0.0000000000000D+00
250  2.4900000000000D+00  0.0000000000000D+00  0.0000000000000D+00
251  2.5000000000000D+00  0.0000000000000D+00  0.0000000000000D+00
252  2.5100000000000D+00  0.0000000000000D+00  0.0000000000000D+00
253  2.5200000000000D+00  0.0000000000000D+00  0.0000000000000D+00
254  2.5300000000000D+00  0.0000000000000D+00  0.0000000000000D+00
255  2.5400000000000D+00  0.0000000000000D+00  0.0000000000000D+00
256  2.5500000000000D+00  0.0000000000000D+00  0.0000000000000D+00
257  2.5600000000000D+00  0.0000000000000D+00  0.0000000000000D+00
258  2.5700000000000D+00  0.0000000000000D+00  0.0000000000000D+00
259  2.5800000000000D+00  0.0000000000000D+00  0.0000000000000D+00
260  2.5900000000000D+00  0.0000000000000D+00  0.0000000000000D+00
261  2.6000000000000D+00  0.0000000000000D+00  0.0000000000000D+00
262  2.6100000000000D+00  0.0000000000000D+00  0.0000000000000D+00
263  2.6200000000000D+00  0.0000000000000D+00  0.0000000000000D+00
264  2.6300000000000D+00  0.0000000000000D+00  0.0000000000000D+00
265  2.6400000000000D+00  0.0000000000000D+00  0.0000000000000D+00
266  2.6500000000000D+00  0.0000000000000D+00  0.0000000000000D+00
267  2.6600000000000D+00  0.0000000000000D+00  0.0000000000000D+00
268  2.6700000000000D+00  0.0000000000000D+00  0.0000000000000D+00
269  2.6800000000000D+00  0.0000000000000D+00  0.0000000000000D+00
270  2.6900000000000D+00  0.0000000000000D+00  0.0000000000000D+00
271  2.7000000000000D+00  0.0000000000000D+00  0.0000000000000D+00
272  2.7100000000000D+00  0.0000000000000D+00  0.0000000000000D+00
273  2.7200000000000D+00  0.0000000000000D+00  0.0000000000000D+00
274  2.7300000000000D+00  0.0000000000000D+00  0.0000000000000D+00
275  2.7400000000000D+00  0.0000000000000D+00  0.0000000000000D+00
276  2.7500000000000D+00  0.0000000000000D+00  0.0000000000000D+00
277  2.7600000000000D+00  0.0000000000000D+00  0.0000000000000D+00
278  2.7700000000000D+00  0.0000000000000D+00  0.0000000000000D+00
279  2.7800000000000D+00  0.0000000000000D+00  0.0000000000000D+00
280  2.7900000000000D+00  0.0000000000000D+00  0.0000000000000D+00
281  2.8000000000000D+00  0.0000000000000D+00  0.0000000000000D+00
282  2.8100000000000D+00  0.0000000000000D+00  0.0000000000000D+00
283  2.8200000000000D+00  0.0000000000000D+00  0.0000000000000D+00
284  2.8300000000000D+00  0.0000000000000D+00  0.0000000000000D+00
285  2.8400000000000D+00  0.0000000000000D+00  0.0000000000000D+00
286  2.8500000000000D+00  0.0000000000000D+00  0.0000000000000D+00
287  2.8600000000000D+00  0.0000000000000D+00  0.0000000000000D+00
288  2.8700000000000D+00  0.0000000000000D+00  0.0000000000000D+00
289  2.8800000000000D+00  0.0000000000000D+00  0.0000000000000D+00
290  2.8900000000000D+00  0.0000000000000D+00  0.0000000000000D+00
291  2.9000000000000D+00  0.0000000000000D+00  0.0000000000000D+00
292  2.9100000000000D+00  0.0000000000000D+00  0.0000000000000D+00
293  2.9200000000000D+00  0.0000000000000D+00  0.0000000000000D+00
294  2.9300000000000D+00  0.0000000000000D+00  0.0000000000000D+00
295  2.9400000000000D+00  0.0000000000000D+00  0.0000000000000D+00
296  2.9500000000000D+00  0.0000000000000D+00  0.0000000000000D+00
297  2.9600000000000D+00  0.0000000000000D+00  0.0000000000000D+00
298  2.9700000000000D+00  0.0000000000000D+00  0.0000000000000D+00
299  2.9800000000000D+00  0.0000000000000D+00  0.0000000000000D+00
300  2.9900000000000D+00  0.0000000000000D+00  0.0000000000000D+00
301  3.0000000000000D+00  0.0000000000000D+00  0.0000000000000D+00
302  3.0100000000000D+00  0.0000000000000D+00  0.0000000000000D+00
303  3.0200000000000D+00  0.0000000000000D+00  0.0000000000000D+00
304  3.0300000000000D+00  0.0000000000000D+00  0.0000000000000D+00
305  3.0400000000000D+00  0.0000000000000D+00  0.0000000000000D+00
306  3.0500000000000D+00  0.0000000000000D+00  0.0000000000000D+00
307  3.0600000000000D+00  0.0000000000000D+00  0.0000000000000D+00
308  3.0700000000000D+00  0.0000000000000D+00  0.0000000000000D+00
309  3.0800000000000D+00  0.0000000000000D+00  0.0000000000000D+00
310  3.0900000000000D+00  0.0000000000000D+00  0.0000000000000D+00
311  3.1000000000000D+00  0.0000000000000D+00  0.0000000000000D+00
312  3.1100000000000D+00  0.0000000000000D+00  0.0000000000000D+00
313  3.1200000000000D+00  0.0000000000000D+00  0.0000000000000D+00
314  3.1300000000000D+00  0.0000000000000D+00  0.0000000000000D+00
315  3.1400000000000D+00  0.0000000000000D+00  0.0000000000000D+00
316  3.1500000000000D+00  0.0000000000000D+00  0.0000000000000D+00
317  3.1600000000000D+00  0.0000000000000D+00  0.0000000000000D+00
318  3.1700000000000D+00  0.0000000000000D+00  0.0000000000000D+00
319  3.1800000000000D+00  0.0000000000000D+00  0.0000000000000D+00
320  3.1900000000000D+00  0.0000000000000D+00  0.0000000000000D+00
321  3.2000000000000D+00  0.0000000000000D+00  0.0000000000000D+00
322  3.2100000000000D+00  0.0000000000000D+00  0.0000000000000D+00
323  3.2200000000000D+00  0.0000000000000D+00  0.0000000000000D+00
324  3.2300000000000D+00  0.0000000000000D+00  0.0000000000000D+00
325  3.2400000000000D+00  0.0000000000000D+00  0.0000000000000D+00
326  3.2500000000000D+00  0.0000000000000D+00  0.0000000000000D+00
327  3.2600000000000D+00  0.0000000000000D+00  0.0000000000000D+00
328  3.2700000000000D+00  0.0000000000000D+00  0.0000000000000D+00
329  3.2800000000000D+00  0.0000000000000D+00  0.0000000000000D+00
330  3.2900000000000D+00  0.0000000000000D+00  0.0000000000000D+00
331  3.3000000000000D+00  0.0000000000000D+00  0.0000000000000D+00
332  3.3100000000000D+00  0.0000000000000D+00  0.0000000000000D+00
333  3.3200000000000D+00  0.0000000000000D+00  0.0000000000000D+00
334  3.3300000000000D+00  0.0000000000000D+00  0.0000000000000D+00
335  3.3400000000000D+00  0.0000000000000D+00  0.0000000000000D+00
336  3.3500000000000D+00  0.0000000000000D+00  0.0000000000000D+00
337  3.3600000000000D+00  0.0000000000000D+00  0.0000000000000D+00
338  3.3700000000000D+00  0.0000000000000D+00  0.0000000000000D+00
339  3.3800000000000D+00  0.0000000000000D+00  0.0000000000000D+00
340  3.3900000000000D+00  0.0000000000000D+00  0.0000000000000D+00
341  3.4000000000000D+00  0.0000000000000D+00  0.0000000000000D+00
342  3.4100000000000D+00  0.0000000000000D+00  0.0000000000000D+00
343  3.4200000000000D+00  0.0000000000000D+00  0.0000000000000D+00
344  3.4300000000000D+00  0.0000000000000D+00  0.0000000000000D+00
345  3.4400000000000D+00  0.0000000000000D+00  0.0000000000000D+00
346  3.4500000000000D+00  0.0000000000000D+00  0.0000000000000D+00
347  3.4600000000000D+00  0.0000000000000D+00  0.0000000000000D+00
348  3.4700000000000D+00  0.0000000000000D+00  0.0000000000000D+00
349  3.4800000000000D+00  0.0000000000000D+00  0.0000000000000D+00
350  3.4900000000000D+00  0.0000000000000D+00  0.0000000000000D+00
351  3.5000000000000D+00  0.0000000000000D+00  0.0000000000000D+00
352  3.5100000000000D+00  0.0000000000000D+00  0.0000000000000D+00
353  3.5200000000000D+00  0.0000000000000D+00  0.0000000000000D+00
354  3.5300000000000D+00  0.0000000000000D+00  0.0000000000000D+00
355  3.5400000000000D+00  0.0000000000000D+00  0.0000000000000D+00
356  3.5500000000000D+00  0.0000000000000D+00  0.0000000000000D+00
357  3.5600000000000D+00  0.0000000000000D+00  0.0000000000000D+00
358  3.5700000000000D+00  0.0000000000000D+00  0.0000000000000D+00
359  3.5800000000000D+00  0.0000000000000D+00  0.0000000000000D+00
360  3.5900000000000D+00  0.0000000000000D+00  0.0000000000000D+00
361  3.6000000000000D+00  0.0000000000000D+00  0.0000000000000D+00
362  3.6100000000000D+00  0.0000000000000D+00  0.0000000000000D+00
363  3.6200000000000D+00  0.0000000000000D+00  0.0000000000000D+00
364  3.6300000000000D+00  0.0000000000000D+00  0.0000000000000D+00
365  3.6400000000000D+00  0.0000000000000D+00  0.0000000000000D+00
366  3.6500000000000D+00  0.0000000000000D+00  0.0000000000000D+00
367  3.6600000000000D+00  0.0000000000000D+00  0.0000000000000D+00
368  3.6700000000000D+00  0.0000000000000D+00  0.0000000000000D+00
369  3.6800000000000D+00  0.0000000000000D+00  0.0000000000000D+00
370  3.6900000000000D+00  0.0000000000000D+00  0.0000000000000D+00
371  3.7000000000000D+00  0.0000000000000D+00  0.0000000000000D+00
372  3.7100000000000D+00  0.0000000000000D+00  0.0000000000000D+00
373  3.7200000000000D+00  0.0000000000000D+00  0.0000000000000D+00
374  3.7300000000000D+00  0.0000000000000D+00  0.0000000000000D+00
375  3.7400000000000D+00  0.0000000000000D+00  0.0000000000000D+00
376  3.7500000000000D+00  0.0000000000000D+00  0.0000000000000D+00
377  3.7600000000000D+00  0.0000000000000D+00  0.0000000000000D+00
378  3.7700000000000D+00  0.0000000000000D+00  0.0000000000000D+00
379  3.7800000000000D+00  0.0000000000000D+00  0.0000000000000D+00
380  3.7900000000000D+00  0.0000000000000D+00  0.0000000000000D+00
381  3.8000000000000D+00  0.0000000000000D+00  0.0000000000000D+00
382  3.8100000000000D+00  0.0000000000000D+00  0.0000000000000D+00
383  3.8200000000000D+00  0.0000000000000D+00  0.0000000000000D+00
384  3.8300000000000D+00  0.0000000000000D+00  0.0000000000000D+00
385  3.8400000000000D+00  0.0000000000000D+00  0.0000000000000D+00
386  3.8500000000000D+00  0.0000000000000D+00  0.0000000000000D+00
387  3.8600000000000D+00  0.0000000000000D+00  0.0000000000000D+00
388  3.8700000000000D+00  0.0000000000000D+00  0.0000000000000D+00
389  3.8800000000000D+00  0.0000000000000D+00  0.0000000000000D+00
390  3.8900000000000D+00  0.0000000000000D+00  0.0000000000000D+00
391  3.9000000000000D+00  0.0000000000000D+00  0.0000000000000D+00
392  3.9100000000000D+00  0.0000000000000D+00  0.0000000000000D+00
393  3.9200000000000D+00  0.0000000000000D+00  0.0000000000000D+00
394  3.9300000000000D+00  0.0000000000000D+00  0.0000000000000D+00
395  3.9400000000000D+00  0.0000000000000D+00  0.0000000000000D+00
396  3.9500000000000D+00  0.0000000000000D+00  0.0000000000000D+00
397  3.9600000000000D+00  0.0000000000000D+00  0.0000000000000D+00
398  3.9700000000000D+00  0.0000000000000D+00  0.0000000000000D+00
399  3.9800000000000D+00  0.0000000000000D+00  0.0000000000000D+00
400  3.9900000000000D+00  0.0000000000000D+00  0.0000000000000D+00
401  4.0000000000000D+00  0.0000000000000D+00  0.0000000000000D+00
402  4.0100000000000D+00  0.0000000000000D+00  0.0000000000000D+00
403  4.0200000000000D+00  0.0000000000000D+00  0.0000000000000D+00
404  4.0300000000000D+00  0.0000000000000D+00  0.0000000000000D+00
405  4.0400000000000D+00  0.0000000000000D+00  0.0000000000000D+00
406  4.0500000000000D+00  0.0000000000000D+00  0.0000000000000D+00
407  4.0600000000000D+00  0.0000000000000D+00  0.0000000000000D+00
408  4.0700000000000D+00  0.0000000000000D+00  0.0000000000000D+00
409  4.0800000000000D+00  0.0000000000000D+00  0.0000000000000D+00
410  4.0900000000000D+00  0.0000000000000D+00  0.0000000000000D+00
411  4.1000000000000D+00  0.0000000000000D+00  0.0000000000000D+00
412  4.1100000000000D+00  0.0000000000000D+00  0.0000000000000D+00
413  4.1200000000000D+00  0.0000000000000D+00  0.0000000000000D+00
414  4.1300000000000D+00  0.0000000000000D+00  0.0000000000000D+00
415  4.1400000000000D+00  0.0000000000000D+00  0.0000000000000D+00
416  4.1500000000000D+00  0.0000000000000D+00  0.0000000000000D+00
417  4.1600000000000D+00  0.0000000000000D+00  0.0000000000000D+00
418  4.1700000000000D+00  0.0000000000000D+00  0.0000000000000D+00
419  4.1800000000000D+00  0.0000000000000D+00  0.0000000000000D+00
420  4.1900000000000D+00  0.0000000000000D+00  0.0000000000000D+00
421  4.2000000000000D+00  0.0000000000000D+00  0.0000000000000D+00
422  4.2100000000000D+00  0.0000000000000D+00  0.0000000000000D+00
423  4.2200000000000D+00  0.0000000000000D+00  0.0000000000000D+00
424  4.2300000000000D+00  0.0000000000000D+00  0.0000000000000D+00
425  4.2400000000000D+00  0.0000000000000D+00  0.0000000000000D+00
426  4.2500000000000D+00  0.0000000000000D+00  0.0000000000000D+00
427  4.2600000000000D+00  0.0000000000000D+00  0.0000000000000D+00
428  4.2700000000000D+00  0.0000000000000D+00  0.0000000000000D+00
429  4.2800000000000D+00  0.0000000000000D+00  0.0000000000000D+00
430  4.2900000000000D+00  0.0000000000000D+00  0.0000000000000D+00
431  4.3000000000000D+00  0.0000000000000D+00  0.0000000000000D+00
432  4.3100000000000D+00  0.0000000000000D+00  0.0000000000000D+00
433  4.3200000000000D+00  0.0000000000000D+00  0.0000000000000D+00
434  4.3300000000000D+00  0.0000000000000D+00  0.0000000000000D+00
435  4.3400000000000D+00  0.0000000000000D+00  0.0000000000000D+00
436  4.3500000000000D+00  0.0000000000000D+00  0.0000000000000D+00
437  4.3600000000000D+00  0.0000000000000D+00  0.0000000000000D+00
438  4.3700000000000D+00  0.0000000000000D+00  0.0000000000000D+00
439  4.3800000000000D+00  0.0000000000000D+00  0.0000000000000D+00
440  4.3900000000000D+00  0.0000000000000D+00  0.0000000000000D+00
441  4.4000000000000D+00  0.0000000000000D+00  0.0000000000000D+00
442  4.4100000000000D+00  0.0000000000000D+00  0.0000000000000D+00
443  4.4200000000000D+00  0.0000000000000D+00  0.0000000000000D+00
444  4.4300000000000D+00  0.0000000000000D+00  0.0000000000000D+00