<?xml version="1.0" encoding="UTF-8" ?>
<psml version="1.1" energy_unit="hartree" length_unit="bohr"
 uuid="28865fc0-3438-11eb-79dc-032f9ddffaaf"
 xmlns="http://esl.cecam.org/PSML/ns/1.1">
<provenance creator="ONCVPSP-3.3.1+psml-3.3.1-75 (scalar-relativistic)"
 date="2020-12-01">
<annotation action="semilocal-pseudopotential-generation"
 action-cont="projectors-generation" />
<input-file name="oncvpsp-input">
<![CDATA[# atsym z nc nv iexc psfile
O 8 1 2 -001012 both
# n l f
1 0 2.0
2 0 2.0
2 1 4.0
# lmax
2
# l rc ep ncon nbas qcut
0 1.25 0.0 4 8 8.5
1 1.35 0.0 4 8 9.4
2 1.35 0.1 4 8 6.0
# lloc lpopt rc5 dvloc0
4 5 1.2 0.0
# l nproj debl
0 2 1.0
1 2 1.0
2 1 1.0
# icmod fcfact rcfact
3 4.0 1.5
# epsh1 epsh2 depsh
-12.0 12.0 0.02
# rlmax drl
6.0 0.01
 0
]]>
</input-file>
</provenance>
<pseudo-atom-spec atomic-label="O" atomic-number="8" z-pseudo="6"
 flavor="Hamann&apos;s oncvpsp" relativity="scalar" spin-dft="no"
 core-corrections="yes">
<annotation pseudo-energy="-15.7608964430" cutoff_hint_low="38"
 cutoff_hint_normal="41" cutoff_hint_high="44" />
<exchange-correlation>
<annotation oncvpsp-xc-code="-1012" oncvpsp-xc-type="libxc-interface" />
<libxc-info number-of-functionals="2">
<functional name="Slater exchange (LDA)" type="exchange" id="1" />
<functional name="Perdew &amp; Wang (LDA)" type="correlation" id="12" />
</libxc-info>
</exchange-correlation>
<valence-configuration total-valence-charge="6">
<shell n="2" l="s" occupation="2" />
<shell n="2" l="p" occupation="4" />
</valence-configuration>
</pseudo-atom-spec>
<grid npts="457">
<annotation type="sampled from oncvpsp log grid"
 recipe="r(i:1..N) = r1*exp(a*(i-1)) + r=0; resampled"
 recipe-cont="r1: scale; a: step" scale="0.625000000000E-04"
 step="0.119285708653E-01" delta="0.500000000000E-02" rmax="44.1243818316" />
<grid-data>
  0.000000000000E+00  5.038585340028E-03  1.006417880273E-02  1.509787304249E-02
  2.010240735005E-02  2.521609353432E-02  3.051869836261E-02  3.563794632140E-02
  4.112243467717E-02  4.633230903787E-02  5.158323284976E-02  5.674827400167E-02
  6.243049193037E-02  6.786726449336E-02  7.290266753181E-02  7.831167165686E-02
  8.412199615352E-02  8.929191396799E-02  9.477956140646E-02  1.006044653004E-01
  1.067873525493E-01  1.120061500728E-01  1.174799950991E-01  1.232213520374E-01
  1.292432944444E-01  1.355595347938E-01  1.421844557004E-01  1.473647654853E-01
  1.527338132677E-01  1.582984754767E-01  1.640658790751E-01  1.700434106874E-01
  1.762387260605E-01  1.826597598689E-01  1.893147358765E-01  1.962121774698E-01
  2.033609185741E-01  2.107701149672E-01  2.158589486230E-01  2.210706470785E-01
  2.264081767816E-01  2.318745758018E-01  2.374729555600E-01  2.432065025990E-01
  2.490784803978E-01  2.550922312285E-01  2.612511780593E-01  2.675588265023E-01
  2.740187668094E-01  2.806346759152E-01  2.874103195305E-01  2.943495542853E-01
  3.014563299240E-01  3.087346915536E-01  3.161887819465E-01  3.238228438978E-01
  3.316412226409E-01  3.396483683203E-01  3.478488385251E-01  3.562473008824E-01
  3.648485357149E-01  3.736574387612E-01  3.826790239627E-01  3.919184263172E-01
  4.013809048022E-01  4.110718453678E-01  4.209967640023E-01  4.260487251704E-01
  4.311613098724E-01  4.363352455909E-01  4.415712685380E-01  4.468701237604E-01
  4.522325652455E-01  4.576593560285E-01  4.631512683008E-01  4.687090835204E-01
  4.743335925227E-01  4.800255956330E-01  4.857859027806E-01  4.916153336139E-01
  4.975147176173E-01  5.034848942287E-01  5.095267129594E-01  5.156410335150E-01
  5.218287259171E-01  5.280906706281E-01  5.344277586757E-01  5.408408917798E-01
  5.473309824811E-01  5.538989542709E-01  5.605457417222E-01  5.672722906228E-01
  5.740795581103E-01  5.809685128076E-01  5.879401349613E-01  5.949954165809E-01
  6.021353615798E-01  6.093609859188E-01  6.166733177498E-01  6.240733975628E-01
  6.315622783336E-01  6.391410256736E-01  6.468107179816E-01  6.545724465974E-01
  6.624273159566E-01  6.703764437481E-01  6.784209610731E-01  6.865620126059E-01
  6.948007567572E-01  7.031383658383E-01  7.115760262283E-01  7.201149385431E-01
  7.287563178056E-01  7.375013936193E-01  7.463514103427E-01  7.553076272668E-01
  7.643713187940E-01  7.735437746195E-01  7.828262999150E-01  7.922202155140E-01
  8.017268581001E-01  8.113475803973E-01  8.210837513621E-01  8.309367563784E-01
  8.409079974550E-01  8.509988934244E-01  8.612108801455E-01  8.715454107073E-01
  8.820039556358E-01  8.925880031034E-01  9.032990591406E-01  9.141386478503E-01
  9.251083116245E-01  9.362096113640E-01  9.474441267004E-01  9.588134562208E-01
  9.703192176954E-01  9.819630483078E-01  9.937466048875E-01  1.005671564146E+00
  1.017739622916E+00  1.029952498391E+00  1.042311928372E+00  1.054819671512E+00
  1.067477507570E+00  1.080287237661E+00  1.093250684513E+00  1.106369692727E+00
  1.119646129040E+00  1.133081882588E+00  1.146678865179E+00  1.160439011562E+00
  1.174364279700E+00  1.188456651057E+00  1.202718130869E+00  1.217150748440E+00
  1.231756557421E+00  1.246537636110E+00  1.261496087743E+00  1.276634040796E+00
  1.291953649286E+00  1.307457093077E+00  1.323146578194E+00  1.339024337133E+00
  1.355092629178E+00  1.371353740728E+00  1.387809985617E+00  1.404463705444E+00
  1.421317269910E+00  1.438373077149E+00  1.455633554074E+00  1.473101156723E+00
  1.490778370604E+00  1.508667711051E+00  1.526771723584E+00  1.545092984267E+00
  1.563634100078E+00  1.582397709279E+00  1.601386481790E+00  1.620603119572E+00
  1.640050357007E+00  1.659730961291E+00  1.679647732826E+00  1.699803505620E+00
  1.720201147688E+00  1.740843561460E+00  1.761733684197E+00  1.782874488408E+00
  1.804268982269E+00  1.825920210056E+00  1.847831252577E+00  1.870005227608E+00
  1.892445290339E+00  1.915154633823E+00  1.938136489429E+00  1.961394127302E+00
  1.984930856830E+00  2.008750027112E+00  2.032855027437E+00  2.057249287766E+00
  2.081936279219E+00  2.106919514570E+00  2.132202548745E+00  2.157788979330E+00
  2.183682447082E+00  2.209886636447E+00  2.236405276084E+00  2.263242139397E+00
  2.290401045070E+00  2.317885857611E+00  2.345700487902E+00  2.373848893757E+00
  2.402335080482E+00  2.431163101448E+00  2.460337058665E+00  2.489861103369E+00
  2.519739436609E+00  2.549976309849E+00  2.580576025567E+00  2.611542937874E+00
  2.642881453128E+00  2.674596030566E+00  2.706691182933E+00  2.739171477128E+00
  2.772041534853E+00  2.805306033271E+00  2.838969705671E+00  2.873037342139E+00
  2.907513790244E+00  2.942403955727E+00  2.977712803196E+00  3.013445356834E+00
  3.049606701116E+00  3.086201981530E+00  3.123236405308E+00  3.160715242172E+00
  3.198643825078E+00  3.237027550979E+00  3.275871881591E+00  3.315182344170E+00
  3.354964532300E+00  3.395224106687E+00  3.435966795968E+00  3.477198397519E+00
  3.518924778289E+00  3.561151875629E+00  3.603885698137E+00  3.647132326514E+00
  3.690897914432E+00  3.735188689406E+00  3.780010953678E+00  3.825371085123E+00
  3.871275538144E+00  3.917730844602E+00  3.964743614737E+00  4.012320538114E+00
  4.060468384571E+00  4.109194005186E+00  4.158504333248E+00  4.208406385247E+00
  4.258907261870E+00  4.310014149013E+00  4.361734318801E+00  4.414075130626E+00
  4.467044032194E+00  4.520648560580E+00  4.574896343307E+00  4.629795099427E+00
  4.685352640620E+00  4.741576872307E+00  4.798475794775E+00  4.856057504312E+00
  4.914330194364E+00  4.973302156697E+00  5.032981782577E+00  5.093377563968E+00
  5.154498094735E+00  5.216352071872E+00  5.278948296735E+00  5.342295676296E+00
  5.406403224411E+00  5.471280063104E+00  5.536935423861E+00  5.603378648948E+00
  5.670619192735E+00  5.738666623048E+00  5.807530622524E+00  5.877220989995E+00
  5.947747641875E+00  6.019120613577E+00  6.091350060940E+00  6.164446261671E+00
  6.238419616811E+00  6.313280652213E+00  6.389040020040E+00  6.465708500280E+00
  6.543297002283E+00  6.621816566311E+00  6.701278365107E+00  6.781693705488E+00
  6.863074029954E+00  6.945430918313E+00  7.028776089333E+00  7.113121402405E+00
  7.198478859234E+00  7.284860605545E+00  7.372278932811E+00  7.460746280005E+00
  7.550275235365E+00  7.640878538189E+00  7.732569080648E+00  7.825359909615E+00
  7.919264228531E+00  8.014295399273E+00  8.110466944064E+00  8.207792547393E+00
  8.306286057962E+00  8.405961490657E+00  8.506833028545E+00  8.608915024888E+00
  8.712222005187E+00  8.816768669249E+00  8.922569893280E+00  9.029640731999E+00
  9.137996420783E+00  9.247652377832E+00  9.358624206366E+00  9.470927696843E+00
  9.584578829205E+00  9.699593775155E+00  9.815988900457E+00  9.933780767263E+00
  1.005298613647E+01  1.017362197011E+01  1.029570543375E+01  1.041925389895E+01
  1.054428494574E+01  1.067081636509E+01  1.079886616147E+01  1.092845255541E+01
  1.105959398607E+01  1.119230911391E+01  1.132661682327E+01  1.146253622515E+01
  1.160008665985E+01  1.173928769977E+01  1.188015915217E+01  1.202272106200E+01
  1.216699371474E+01  1.231299763932E+01  1.246075361099E+01  1.261028265432E+01
  1.276160604617E+01  1.291474531873E+01  1.306972226255E+01  1.322655892970E+01
  1.338527763686E+01  1.354590096850E+01  1.370845178012E+01  1.387295320148E+01
  1.403942863990E+01  1.420790178358E+01  1.437839660498E+01  1.455093736424E+01
  1.472554861261E+01  1.490225519597E+01  1.508108225832E+01  1.526205524542E+01
  1.544519990836E+01  1.563054230726E+01  1.581810881495E+01  1.600792612073E+01
  1.620002123418E+01  1.639442148899E+01  1.659115454686E+01  1.679024840142E+01
  1.699173138224E+01  1.719563215882E+01  1.740197974473E+01  1.761080350166E+01
  1.782213314368E+01  1.803599874141E+01  1.825243072631E+01  1.847145989502E+01
  1.869311741376E+01  1.891743482273E+01  1.914444404060E+01  1.937417736909E+01
  1.960666749752E+01  1.984194750749E+01  2.008005087758E+01  2.032101148811E+01
  2.056486362596E+01  2.081164198948E+01  2.106138169335E+01  2.131411827367E+01
  2.156988769295E+01  2.182872634527E+01  2.209067106141E+01  2.235575911415E+01
  2.262402822352E+01  2.289551656220E+01  2.317026276095E+01  2.344830591408E+01
  2.372968558505E+01  2.401444181207E+01  2.430261511381E+01  2.459424649518E+01
  2.488937745312E+01  2.518804998256E+01  2.549030658235E+01  2.579619026134E+01
  2.610574454447E+01  2.641901347901E+01  2.673604164076E+01  2.705687414044E+01
  2.738155663013E+01  2.771013530969E+01  2.804265693341E+01  2.837916881661E+01
  2.871971884241E+01  2.906435546852E+01  2.941312773414E+01  2.976608526695E+01
  3.012327829015E+01  3.048475762963E+01  3.085057472119E+01  3.122078161784E+01
  3.159543099726E+01  3.197457616923E+01  3.235827108326E+01  3.274657033625E+01
  3.313952918029E+01  3.353720353045E+01  3.393964997282E+01  3.434692577249E+01
  3.475908888176E+01  3.517619794834E+01  3.559831232372E+01  3.602549207161E+01
  3.645779797647E+01  3.689529155219E+01  3.733803505081E+01  3.778609147142E+01
  3.823952456908E+01  3.869839886391E+01  3.916277965027E+01  3.963273300608E+01
  4.010832580215E+01  4.058962571178E+01  4.107670122032E+01  4.156962163496E+01
  4.206845709458E+01  4.257327857972E+01  4.308415792267E+01  4.360116781774E+01
  4.412438183156E+01
</grid-data>
</grid>
<valence-charge total-charge="6" is-unscreening-charge="yes"
 rescaled-to-z-pseudo="no">
<radfunc>
<data npts="457">
  3.229354654588E+00  3.231813423993E+00  3.239161144223E+00  3.251411822050E+00
  3.268428177977E+00  3.290774069434E+00  3.319206212571E+00  3.351698263805E+00
  3.391954818309E+00  3.435357603708E+00  3.484128438151E+00  3.536956971592E+00
  3.600550429135E+00  3.666672054202E+00  3.732425000161E+00  3.807790823845E+00
  3.894084797734E+00  3.975396752618E+00  4.066243321235E+00  4.167632379188E+00
  4.280648347513E+00  4.380208365089E+00  4.488573848480E+00  4.606393644962E+00
  4.734336406940E+00  4.873084283256E+00  5.023324610309E+00  5.143957514327E+00
  5.271720216949E+00  5.406884314070E+00  5.549707122807E+00  5.700426477472E+00
  5.859254750262E+00  6.026372030138E+00  6.201918396564E+00  6.385985230978E+00
  6.578605518813E+00  6.779743109512E+00  6.918512564826E+00  7.060960094892E+00
  7.207008111830E+00  7.356556840830E+00  7.509482361395E+00  7.665634582151E+00
  7.824835160987E+00  7.986875385149E+00  8.151514029151E+00  8.318475211907E+00
  8.487446278390E+00  8.658075735323E+00  8.829971274930E+00  9.002697925519E+00
  9.175776372687E+00  9.348681499994E+00  9.520841203130E+00  9.691635536624E+00
  9.860396256955E+00  1.002640683029E+01  1.018890297681E+01  1.034707382634E+01
  1.050006376174E+01  1.064697502654E+01  1.078687117153E+01  1.091878141112E+01
  1.104170595369E+01  1.115462236042E+01  1.125649297438E+01  1.130295975522E+01
  1.134627344472E+01  1.138630403212E+01  1.142292235067E+01  1.145600043680E+01
  1.148541190497E+01  1.151103233741E+01  1.153273968799E+01  1.155041469918E+01
  1.156394133099E+01  1.157320720052E+01  1.157810403078E+01  1.157852810703E+01
  1.157438073888E+01  1.156556872625E+01  1.155200482700E+01  1.153360822391E+01
  1.151030498875E+01  1.148202854062E+01  1.144872009600E+01  1.141032910765E+01
  1.136681368932E+01  1.131814102336E+01  1.126428774793E+01  1.120524032092E+01
  1.114099535702E+01  1.107155993510E+01  1.099695187252E+01  1.091719996332E+01
  1.083234417732E+01  1.074243581723E+01  1.064753763101E+01  1.054772387702E+01
  1.044308033965E+01  1.033370429341E+01  1.021970441380E+01  1.010120063354E+01
  9.978323943264E+00  9.851216135935E+00  9.720029494965E+00  9.584926426217E+00
  9.446079034672E+00  9.303668646973E+00  9.157885281552E+00  9.008927068511E+00
  8.856999621933E+00  8.702315367722E+00  8.545092830544E+00  8.385555883826E+00
  8.223932967156E+00  8.060456275762E+00  7.895360927012E+00  7.728884109131E+00
  7.561264217473E+00  7.392739983812E+00  7.223549604137E+00  7.053929870423E+00
  6.884115311739E+00  6.714337349918E+00  6.544823474759E+00  6.375796443509E+00
  6.207473508997E+00  6.040065680493E+00  5.873777020938E+00  5.708803983848E+00
  5.545334792770E+00  5.383548865840E+00  5.223616287630E+00  5.065697330234E+00
  4.909942025294E+00  4.756489788564E+00  4.605469098547E+00  4.456997230814E+00
  4.311180049720E+00  4.168111859508E+00  4.027875317042E+00  3.890541408795E+00
  3.756169495064E+00  3.624807424708E+00  3.496491723976E+00  3.371247863090E+00
  3.249090604138E+00  3.130024433498E+00  3.014044081241E+00  2.901135128880E+00
  2.791274705222E+00  2.684432268025E+00  2.580570466590E+00  2.479646077427E+00
  2.381611001723E+00  2.286413309709E+00  2.193998313260E+00  2.104309887911E+00
  2.017292765481E+00  1.932895241442E+00  1.851070159427E+00  1.771775024470E+00
  1.694972411171E+00  1.620629429574E+00  1.548714927606E+00  1.479195671611E+00
  1.412035882941E+00  1.347198051018E+00  1.284642792325E+00  1.224329059231E+00
  1.166214292807E+00  1.110254577166E+00  1.056404790375E+00  1.004618751445E+00
  9.548493631680E-01  9.070487505358E-01  8.611683945251E-01  8.171592610580E-01
  7.749719249702E-01  7.345566888520E-01  6.958636966493E-01  6.588430419405E-01
  6.234448708259E-01  5.896194793927E-01  5.573174057378E-01  5.264895165543E-01
  4.970870883042E-01  4.690618830211E-01  4.423662188014E-01  4.169530350613E-01
  3.927759526479E-01  3.697893289091E-01  3.479483078392E-01  3.272088654243E-01
  3.075278503279E-01  2.888630200580E-01  2.711730727724E-01  2.544176748782E-01
  2.385574845922E-01  2.235541716301E-01  2.093704331974E-01  1.959700064564E-01
  1.833176776462E-01  1.713792880332E-01  1.601217368680E-01  1.495129815275E-01
  1.395220350166E-01  1.301189610018E-01  1.212748665500E-01  1.129618927384E-01
  1.051532033012E-01  9.782297147286E-02  9.094636518520E-02  8.449953076885E-02
  7.845957530718E-02  7.280454778362E-02  6.751341915909E-02  6.256606151047E-02
  5.794322635540E-02  5.362652228295E-02  4.959839200391E-02  4.584208892875E-02
  4.234165337518E-02  3.908188850164E-02  3.604833605708E-02  3.322725203178E-02
  3.060558228815E-02  2.817093824501E-02  2.591157268330E-02  2.381635573588E-02
  2.187475111884E-02  2.007679265682E-02  1.841306114987E-02  1.687466162467E-02
  1.545320100849E-02  1.414076625993E-02  1.292990298619E-02  1.181359457295E-02
  1.078524184898E-02  9.838643304036E-03  8.967975875435E-03  8.167776315409E-03
  7.432923148389E-03  6.758619224687E-03  6.140374874423E-03  5.573991663188E-03
  5.055546748752E-03  4.581377836089E-03  4.148068726200E-03  3.752435452489E-03
  3.391512996996E-03  3.062542577412E-03  2.762959494603E-03  2.490381529314E-03
  2.242597875815E-03  2.017558599413E-03  1.813364604138E-03  1.628258096288E-03
  1.460613529100E-03  1.308929013435E-03  1.171818179104E-03  1.048002471277E-03
  9.363038663022E-04  8.356379912410E-04  7.450076314343E-04  6.634966105194E-04
  5.902640274426E-04  5.245388352066E-04  4.656147463134E-04  4.128454501315E-04
  3.656401277099E-04  3.234592498849E-04  2.858106448737E-04  2.522458219130E-04
  2.223565378872E-04  1.957715942813E-04  1.721538522051E-04  1.511974536424E-04
  1.326252375013E-04  1.161863394599E-04  1.016539650238E-04  8.882332563060E-05
  7.750972805746E-05  6.754680779736E-05  5.878489748154E-05  5.108952182593E-05
  4.434001097511E-05  3.842822450427E-05  3.325737871811E-05  2.874097025462E-05
  2.480178936139E-05  2.137101656124E-05  1.838739676285E-05  1.579648520054E-05
  1.354995990434E-05  1.160499570797E-05  9.923695097392E-06  8.472571486729E-06
  7.222080780963E-06  6.146197346521E-06  5.222030761392E-06  4.429479955858E-06
  3.750921583528E-06  3.170929680145E-06  2.676023874841E-06  2.254443615250E-06
  1.895946054422E-06  1.591625423992E-06  1.333751884786E-06  1.115628003259E-06
  9.314611501331E-07  7.762502565594E-07  6.456854934512E-07  5.360595615259E-07
  4.441893934491E-07  3.673471755500E-07  3.031996952307E-07  2.497551117339E-07
  2.053163327054E-07  1.684402573043E-07  1.379022188248E-07  1.126650262123E-07
  9.185206481229E-08  7.472397251218E-08  6.065845842426E-08  4.913287773235E-08
  3.970921857961E-08  3.202119520113E-08  2.576317618479E-08  2.068070804628E-08
  1.656242248857E-08  1.323314102941E-08  1.054801335787E-08  8.387546045192E-09
  6.653396296337E-09  5.264821484810E-09  4.155689449261E-09  3.271967119577E-09
  2.569616143165E-09  2.012833948178E-09  1.572587247276E-09  1.225392479821E-09
  9.523042283763E-10  7.380783332814E-10  5.704813634061E-10  4.397223698423E-10
  3.379865314070E-10  2.590534679258E-10  1.979857134417E-10  1.508751641180E-10
  1.146372958397E-10  8.684462978027E-11  6.559235073119E-11  4.939018825925E-11
  3.707568596262E-11  2.774483655531E-11  2.069677407652E-11  1.538980992147E-11
  1.140659488916E-11  8.426568285236E-12  6.204426551701E-12  4.552869089918E-12
  0.000000000000E+00  0.000000000000E+00  0.000000000000E+00  0.000000000000E+00
  0.000000000000E+00  0.000000000000E+00  0.000000000000E+00  0.000000000000E+00
  0.000000000000E+00  0.000000000000E+00  0.000000000000E+00  0.000000000000E+00
  0.000000000000E+00  0.000000000000E+00  0.000000000000E+00  0.000000000000E+00
  0.000000000000E+00  0.000000000000E+00  0.000000000000E+00  0.000000000000E+00
  0.000000000000E+00  0.000000000000E+00  0.000000000000E+00  0.000000000000E+00
  0.000000000000E+00  0.000000000000E+00  0.000000000000E+00  0.000000000000E+00
  0.000000000000E+00  0.000000000000E+00  0.000000000000E+00  0.000000000000E+00
  0.000000000000E+00  0.000000000000E+00  0.000000000000E+00  0.000000000000E+00
  0.000000000000E+00  0.000000000000E+00  0.000000000000E+00  0.000000000000E+00
  0.000000000000E+00  0.000000000000E+00  0.000000000000E+00  0.000000000000E+00
  0.000000000000E+00  0.000000000000E+00  0.000000000000E+00  0.000000000000E+00
  0.000000000000E+00  0.000000000000E+00  0.000000000000E+00  0.000000000000E+00
  0.000000000000E+00  0.000000000000E+00  0.000000000000E+00  0.000000000000E+00
  0.000000000000E+00  0.000000000000E+00  0.000000000000E+00  0.000000000000E+00
  0.000000000000E+00  0.000000000000E+00  0.000000000000E+00  0.000000000000E+00
  0.000000000000E+00  0.000000000000E+00  0.000000000000E+00  0.000000000000E+00
  0.000000000000E+00  0.000000000000E+00  0.000000000000E+00  0.000000000000E+00
  0.000000000000E+00  0.000000000000E+00  0.000000000000E+00  0.000000000000E+00
  0.000000000000E+00  0.000000000000E+00  0.000000000000E+00  0.000000000000E+00
  0.000000000000E+00  0.000000000000E+00  0.000000000000E+00  0.000000000000E+00
  0.000000000000E+00  0.000000000000E+00  0.000000000000E+00  0.000000000000E+00
  0.000000000000E+00  0.000000000000E+00  0.000000000000E+00  0.000000000000E+00
  0.000000000000E+00
</data>
</radfunc>
</valence-charge>
<pseudocore-charge matching-radius="0.382679023963"
 number-of-continuous-derivatives="4">
<annotation model-charge-form="Teter function with specified parameters" />
<radfunc>
<data npts="290">
  4.373534577646E+01  4.372470035047E+01  4.369288826688E+01  4.363985037733E+01
  4.356618343706E+01  4.346944992930E+01  4.334637927095E+01  4.320574819895E+01
  4.303153033312E+01  4.284372010946E+01  4.263271019503E+01  4.240417792250E+01
  4.212912253227E+01  4.184318312382E+01  4.155888785911E+01  4.123308846264E+01
  4.086012185952E+01  4.050875681041E+01  4.011626571176E+01  3.967831454703E+01
  3.919024094266E+01  3.876035796941E+01  3.829252992079E+01  3.778396401714E+01
  3.723177869275E+01  3.663302834762E+01  3.598473568367E+01  3.546421697356E+01
  3.491292774934E+01  3.432966919565E+01  3.371329280740E+01  3.306271958667E+01
  3.237696181320E+01  3.165514752126E+01  3.089654777787E+01  3.010060680467E+01
  2.926697491598E+01  2.839554415516E+01  2.779366310120E+01  2.717518059759E+01
  2.654029355414E+01  2.588927312978E+01  2.522247036203E+01  2.454032178761E+01
  2.384335498536E+01  2.313219396264E+01  2.240756429434E+01  2.167029791243E+01
  2.092133743157E+01  2.016173988439E+01  1.939267972810E+01  1.861545097295E+01
  1.783146827304E+01  1.704226681126E+01  1.624950080424E+01  1.545494044941E+01
  1.466046713698E+01  1.386806675447E+01  1.307982092142E+01  1.229789600923E+01
  1.152452982449E+01  1.076201586664E+01  1.001268511216E+01  9.278885327949E+00
  8.562957977969E+00  7.867212857855E+00  7.193900673465E+00  6.866336971062E+00
  6.545183868928E+00  6.230692872992E+00  5.923106107205E+00  5.622655322727E+00
  5.329560908567E+00  5.044030909446E+00  4.766260057053E+00  4.496428821187E+00
  4.234702487660E+00  3.981230270074E+00  3.736144462907E+00  3.499559643491E+00
  3.271571930660E+00  3.052258307917E+00  2.841676019000E+00  2.639862043642E+00
  2.446832661227E+00  2.262583109737E+00  2.087087347116E+00  1.920297921697E+00
  1.762145957792E+00  1.612541261891E+00  1.471372554135E+00  1.338507828829E+00
  1.213794846731E+00  1.097061760789E+00  9.881178756463E-01  8.867545400725E-01
  7.927461698722E-01  7.058513974529E-01  6.258143426070E-01  5.523659974678E-01
  4.852257169655E-01  4.241028044770E-01  3.686981807537E-01  3.187061226647E-01
  2.738160568244E-01  2.337143918296E-01  1.980863716350E-01  1.666179315885E-01
  1.389975378590E-01  1.149179904490E-01  9.407816973415E-02  7.618470652060E-02
  6.095355600329E-02  4.811145674279E-02  3.739725688165E-02  2.856309128876E-02
  2.137539515275E-02  1.561574172871E-02  1.108149445421E-02  7.586266458220E-03
  4.960183545752E-03  3.049949999931E-03  1.718719936384E-03  8.457804010505E-04
  3.260558407070E-04  6.944690958872E-05  1.971499741149E-08  5.506445815300E-05
  1.840449036504E-04  3.474621264422E-04  5.156574622212E-04  6.675804601124E-04
  7.895478556067E-04  8.740191150606E-04  9.184129405900E-04  9.239872791684E-04
  8.948028907549E-04  8.367874616324E-04  7.569136903963E-04  6.625008382781E-04
  5.606450563292E-04  4.577795292010E-04  3.593612692795E-04  2.696774201744E-04
  1.917603459081E-04  1.273977409031E-04  7.722162554620E-05  4.085849457273E-05
  1.712212792045E-05  4.230682884924E-06  3.064504936974E-08  2.211960755296E-06
  8.501098778462E-06  1.682174634321E-05  2.541615478645E-05  3.292361031166E-05
  3.841590193489E-05  4.139278172717E-05  4.174306945960E-05  3.967908457371E-05
  3.565337778532E-05  3.026722235985E-05  2.418001222389E-05  1.802766447084E-05
  1.235646042738E-05  7.576655152972E-06  3.937848692923E-06  1.525769759042E-06
  2.779965834556E-07  1.442836723629E-08  4.771768984664E-07  1.374063074111E-06
  2.420096941050E-06  3.372137386205E-06  4.053244273137E-06  4.364871543071E-06
  4.286789903861E-06  3.866249166716E-06  3.199189890610E-06  2.407135210014E-06
  1.613648042341E-06  9.239185523900E-07  4.102264333554E-07  1.048488204986E-07
  6.542815754595E-10  0.000000000000E+00  0.000000000000E+00  0.000000000000E+00
  0.000000000000E+00  0.000000000000E+00  0.000000000000E+00  0.000000000000E+00
  0.000000000000E+00  0.000000000000E+00  0.000000000000E+00  0.000000000000E+00
  0.000000000000E+00  0.000000000000E+00  0.000000000000E+00  0.000000000000E+00
  0.000000000000E+00  0.000000000000E+00  0.000000000000E+00  0.000000000000E+00
  0.000000000000E+00  0.000000000000E+00  0.000000000000E+00  0.000000000000E+00
  0.000000000000E+00  0.000000000000E+00  0.000000000000E+00  0.000000000000E+00
  0.000000000000E+00  0.000000000000E+00  0.000000000000E+00  0.000000000000E+00
  0.000000000000E+00  0.000000000000E+00  0.000000000000E+00  0.000000000000E+00
  0.000000000000E+00  0.000000000000E+00  0.000000000000E+00  0.000000000000E+00
  0.000000000000E+00  0.000000000000E+00  0.000000000000E+00  0.000000000000E+00
  0.000000000000E+00  0.000000000000E+00  0.000000000000E+00  0.000000000000E+00
  0.000000000000E+00  0.000000000000E+00  0.000000000000E+00  0.000000000000E+00
  0.000000000000E+00  0.000000000000E+00  0.000000000000E+00  0.000000000000E+00
  0.000000000000E+00  0.000000000000E+00  0.000000000000E+00  0.000000000000E+00
  0.000000000000E+00  0.000000000000E+00  0.000000000000E+00  0.000000000000E+00
  0.000000000000E+00  0.000000000000E+00  0.000000000000E+00  0.000000000000E+00
  0.000000000000E+00  0.000000000000E+00  0.000000000000E+00  0.000000000000E+00
  0.000000000000E+00  0.000000000000E+00  0.000000000000E+00  0.000000000000E+00
  0.000000000000E+00  0.000000000000E+00  0.000000000000E+00  0.000000000000E+00
  0.000000000000E+00  0.000000000000E+00  0.000000000000E+00  0.000000000000E+00
  0.000000000000E+00  0.000000000000E+00  0.000000000000E+00  0.000000000000E+00
  0.000000000000E+00  0.000000000000E+00  0.000000000000E+00  0.000000000000E+00
  0.000000000000E+00  0.000000000000E+00  0.000000000000E+00  0.000000000000E+00
  0.000000000000E+00  0.000000000000E+00  0.000000000000E+00  0.000000000000E+00
  0.000000000000E+00  0.000000000000E+00  0.000000000000E+00  0.000000000000E+00
  0.000000000000E+00  0.000000000000E+00
</data>
</radfunc>
</pseudocore-charge>
<semilocal-potentials set="scalar_relativistic">
<slps n="2" l="s" rc="1.26149608774" eref="-0.872925001631">
<radfunc>
<data npts="290">
 -3.789280690906E+00 -3.789886373707E+00 -3.791696782913E+00 -3.794716813703E+00
 -3.798914976395E+00 -3.804433849550E+00 -3.811465491628E+00 -3.819514435340E+00
 -3.829506464666E+00 -3.840303909634E+00 -3.852467273634E+00 -3.865679252105E+00
 -3.881634334376E+00 -3.898283127241E+00 -3.914899668299E+00 -3.934020477015E+00
 -3.956013178270E+00 -3.976834295600E+00 -4.000210833020E+00 -4.026443958606E+00
 -4.055866772501E+00 -4.081947253418E+00 -4.110508305834E+00 -4.141770214651E+00
 -4.175969262655E+00 -4.213358025063E+00 -4.254205414841E+00 -4.287281519324E+00
 -4.322589010081E+00 -4.360258402945E+00 -4.400424400892E+00 -4.443225357883E+00
 -4.488802579137E+00 -4.537299430049E+00 -4.588860222696E+00 -4.643628845621E+00
 -4.701747099395E+00 -4.763352697558E+00 -4.806425672105E+00 -4.851143830946E+00
 -4.897541665158E+00 -4.945650964025E+00 -4.995500306805E+00 -5.047114506177E+00
 -5.100514001322E+00 -5.155714198966E+00 -5.212724761187E+00 -5.271548839415E+00
 -5.332182254790E+00 -5.394612626013E+00 -5.458818446956E+00 -5.524768117622E+00
 -5.592418933677E+00 -5.661716041561E+00 -5.732591368329E+00 -5.804962537689E+00
 -5.878731786364E+00 -5.953784897754E+00 -6.029990172954E+00 -6.107197462435E+00
 -6.185237285006E+00 -6.263920063962E+00 -6.343035513498E+00 -6.422352211201E+00
 -6.501617394740E+00 -6.580557022263E+00 -6.658876136395E+00 -6.697705273902E+00
 -6.736259570664E+00 -6.774496651114E+00 -6.812373034440E+00 -6.849844191325E+00
 -6.886864607635E+00 -6.923387855143E+00 -6.959366669352E+00 -6.994753034391E+00
 -7.029498274943E+00 -7.063553155054E+00 -7.096867983632E+00 -7.129392726372E+00
 -7.161077123734E+00 -7.191870814561E+00 -7.221723464794E+00 -7.250584900686E+00
 -7.278405245794E+00 -7.305135060954E+00 -7.330725486335E+00 -7.355128384574E+00
 -7.378296483882E+00 -7.400183519940E+00 -7.420744375280E+00 -7.439935214758E+00
 -7.457713615653E+00 -7.474038690819E+00 -7.488871203247E+00 -7.502173670333E+00
 -7.513910456078E+00 -7.524047849409E+00 -7.532554126790E+00 -7.539399597270E+00
 -7.544556628157E+00 -7.547999649542E+00 -7.549705135984E+00 -7.549651563810E+00
 -7.547819342637E+00 -7.544190719974E+00 -7.538749658038E+00 -7.531481682294E+00
 -7.522373701662E+00 -7.511413800850E+00 -7.498591005907E+00 -7.483895024775E+00
 -7.467315965458E+00 -7.448844035327E+00 -7.428469226108E+00 -7.406180990223E+00
 -7.381967915395E+00 -7.355817405717E+00 -7.327715378785E+00 -7.297645989949E+00
 -7.265591396176E+00 -7.231531573528E+00 -7.195444203628E+00 -7.157304645857E+00
 -7.117086013179E+00 -7.074759370424E+00 -7.030294074528E+00 -6.983658276475E+00
 -6.934819604456E+00 -6.883746046911E+00 -6.830407052598E+00 -6.774774862423E+00
 -6.716826084437E+00 -6.656543518935E+00 -6.593918234977E+00 -6.528951892617E+00
 -6.461659296811E+00 -6.392071159043E+00 -6.320237031423E+00 -6.246228365204E+00
 -6.170141631579E+00 -6.092101427432E+00 -6.012263472770E+00 -5.930817390315E+00
 -5.847989141897E+00 -5.764042981541E+00 -5.679282772653E+00 -5.594052507500E+00
 -5.508735862733E+00 -5.423754626413E+00 -5.339565841457E+00 -5.256657529136E+00
 -5.175542885546E+00 -5.096752884913E+00 -5.020827276712E+00 -4.948304028598E+00
 -4.879707343088E+00 -4.815534460431E+00 -4.756241549784E+00 -4.699897065293E+00